<?xml version="1.0"?>
<VTKFile type="UnstructuredGrid" version="0.1" byte_order="LittleEndian" header_type="UInt32" compressor="vtkZLibDataCompressor">
  <UnstructuredGrid>
    <Piece NumberOfPoints="55" NumberOfCells="85">
      <PointData>
        <DataArray type="Float64" Name="Velocity" NumberOfComponents="3" format="ascii" RangeMin="0" RangeMax="2.240617321894004">
          0.7598876821851911 -0.36429147936695905 0 0.6122199740223936 -0.20292516024313137 0
          0.9148140524289141 -0.6425929691866908 0 1.2191476505050822 -0.6922661374744616 0
          0.7148223617346787 -0.6435452855433768 0 0.5278186027057306 0 0
          0.5822331812356205 -0.38935140423619186 0 0.9337092836613042 -0.9013550851073434 0
          0.4914179395648278 -0.12872310389694724 0 0.5009054734391043 -0.6425237637075562 0
          1.3127130678992038 -1.0066316687566126 0 0.43195822803057904 -0.27255830133707704 0
          0.5954194431607822 -1.004906405416229 0 0.33510181089000174 -0.49201505359674197 0
          0.9603018467219268 -1.236628011025359 0 0.3750974620612941 0 0
          0.20543385328381084 -0.7874748200023474 0 0.3472224878563418 -0.1682048357869572 0
          1.5404637111166881 -1.145193234050835 0 0.23664491288964062 -0.3169764598059071 0
          0.3778636192903206 -0.9617119032352662 0 0.05095363354874596 -0.5027344730657585 0
          0.896939961121213 -0.8214318962271113 0 -0.01755573879285996 -0.5437604905431696 0
          0.2039119329416775 -0.16750146349095982 0 0.2906908371524291 -0.27330418323520256 0
          0.22580635911543 0 0 0.05220886057108834 -0.2638360824548333 0
          0.7898964459083677 0.099091749709844 0 -0.05277716672583259 -0.1981325921892091 0
          0.001188699839696336 0.2116672200789738 0 0.3334702590987972 0.5670346382699206 0
          0.10064305199304469 0 0 0.05472738693206272 -0.114962585553562 0
          0.17533150205630108 0.06426092854546132 0 0.05639731130233626 -0.07375600641040973 0
          0.39122936550606996 -0.03379419457697679 0 0.3152054502883959 -0.032453780624976385 0
          0.03757114789722848 0 0 0.21373594883114252 -0.029861729713944195 0
          0.11387621518154842 -0.025015227773665986 0 0.03515932871328051 -0.016312526289536073 0
          0 0 0 0.7287685345592636 0 0
          0.8128689187915558 -0.1445636301490615 0 0.9518388083293682 -0.2815802530577842 0
          1.0767593103477868 -0.406037308809165 0 1.3846889858327318 -0.7099543510640632 0
          1.347518949580379 -0.40912910772795813 0 1.2285884712818202 0.14386522537741908 0
          1.5122936212425173 -0.550270717548819 0 2.062262062066103 -0.8760371970038275 0
          1.6866331870819626 -0.8409228607058225 0 0.5421200326967535 0.585016021775867 0
          0.4528516808269958 -0.03677846624788401 0
          <InformationKey name="L2_NORM_RANGE" location="vtkDataArray" length="2">
            <Value index="0">
              0
            </Value>
            <Value index="1">
              2.2406173219
            </Value>
          </InformationKey>
        </DataArray>
        <DataArray type="Float64" Name="Pressure" format="ascii" RangeMin="-3.636076852467734" RangeMax="0.227988452048002">
          0.06093117642414346 0.1491385284073161 -0.1223964879916329 -0.2582032867676158 -0.18664887658348522 0.18760428567528906
          0.003760019846986152 -0.5783160078480474 0.127803205956215 -0.22429059628747924 -0.9625011292388551 0.012355515349955805
          -0.8132837727736357 -0.24619386621709652 -1.7306879066356429 0.11859667018548073 -0.8842153255388864 0.02680415634933966
          -2.3216603194953125 -0.1980587675649868 -2.0832968645548102 -0.7115537985136561 -3.247309192070249 -1.7792067694249007
          -0.08628178860386077 -2.9748484741387715 0.060123384956037404 -0.38395549067149987 -3.636076852467734 -0.9886652079409556
          -1.7960921426125367 -2.7352182182650964 0.07697132045592993 -0.42577655734211567 -0.9317931501481911 0.003385442596754001
          -2.0651340864416468 -1.0286045213656014 0.12204863528836658 -0.3299966600724624 0.0198041192184277 0.12591016976621616
          0.14169079108011065 0.227988452048002 0.1988126316559504 0.13118279147465386 0.011038685545240397 -0.36156078526615115
          -0.16728294751682127 -3.608441114862538 -3.536702960286421 -2.1929958551852127 -1.091958625408907 -3.115338753702354
          -3.006905564498627
        </DataArray>
        <DataArray type="Float64" Name="BTraction" NumberOfComponents="3" format="ascii" RangeMin="0" RangeMax="2.0684816941491375">
          0 0 0 0 0 0
          0 0 0 0 0 0
          0 0 0 -0.004283724183569742 0.21020887272352187 0
          0 0 0 0 0 0
          0 0 0 0 0 0
          0 0 0 0 0 0
          0 0 0 0 0 0
          0 0 0 -0.002983779544427098 0.14860204030643573 0
          0 0 0 0 0 0
          0 0 0 0 0 0
          0 0 0 0 0 0
          0 0 0 0 0 0
          0 0 0 0 0 0
          -0.0015900067862413114 0.10053923458770071 0 0 0 0
          0 0 0 0 0 0
          0 0 0 0 0 0
          -0.0013322452426191604 0.10120789423229908 0 0 0 0
          0 0 0 0 0 0
          -2.0311862435612693 0.04193423418529036 0 -1.0348866793379627 0.021926162963845888 0
          -0.003031517802030346 0.12628179007320345 0 -0.36087733053252175 0.011076240084457806 0
          -0.009592380526888997 -0.001007572362084603 0 0.10767619845689692 -0.00766739763291679 0
          0.05998480508980823 0.06692158518842016 0 -0.003379230685880666 0.2385374073624144 0
          0 0 0 0 0 0
          0 0 0 0 0 0
          0 0 0 0 0 0
          0 0 0 0 0 0
          0 0 0 0 0 0
          -1.7619713300838884 -1.0835467461039692 0
          <InformationKey name="L2_NORM_RANGE" location="vtkDataArray" length="2">
            <Value index="0">
              0
            </Value>
            <Value index="1">
              2.0684816941
            </Value>
          </InformationKey>
        </DataArray>
        <DataArray type="Float64" Name="ALEdispl" NumberOfComponents="3" format="ascii" RangeMin="0" RangeMax="0.5995024579402846">
          0.33705223689039626 -0.16091000806901062 0 0.16820318964194356 -0.10924785694955257 0
          0.4211571733616445 -0.15038982085612612 0 0.46614832424287955 -0.12442224740032515 0
          0.3999994394002064 -0.1684447701835883 0 0 0 0
          0.27385365837941583 -0.15545334355494467 0 0.4592230127534778 -0.15752675771454422 0
          0.11441852198326467 -0.08125907415198544 0 0.35419175368638683 -0.1732335064655754 0
          0.5002894992003318 -0.13567266051726257 0 0.2079093461760402 -0.13296543906541058 0
          0.4314022544303432 -0.17294151140752806 0 0.2980791065430772 -0.1641450885671882 0
          0.4930820283148043 -0.15817288260318524 0 0 0 0
          0.3827330874966118 -0.17240283045628843 0 0.13066042356228114 -0.09275706699093661 0
          0.5341793855837893 -0.13488581251781995 0 0.22242843833004602 -0.1375200913030839 0
          0.4601719622493163 -0.16529804069166476 0 0.31388961322220543 -0.15612379700277287 0
          0.5233580129230143 -0.14688046448124287 0 0.40278019618988425 -0.15590937816529798 0
          0.1338096141491525 -0.09170638977595685 0 0.4838790814739012 -0.14515215661924738 0
          0 0 0 0.22339910277444666 -0.12209417678427152 0
          0.5501790006725776 -0.12438541303424402 0 0.3189062237628726 -0.12969394466829184 0
          0.4024145035873697 -0.11781850900073632 0 0.4983427958843624 -0.11055465663645446 0
          0 0 0 0.21967078277609078 -0.09206680388073187 0
          0.31903784904550025 -0.0850269756249967 0 0.09171359883679048 -0.05217859946180273 0
          0.48095354594762024 -0.0464075220292203 0 0.3641717271531519 -0.04239247406398797 0
          0 0 0 0.23397857663176433 -0.036823732817585934 0
          0.11751846680155094 -0.029121538081008504 0 0.03498799603894686 -0.01787863676221557 0
          0 0 0 0 0 0
          0.19584014634553829 -0.1016285116073636 0 0.3437056389645317 -0.10744631827116599 0
          0.4268244010685754 -0.1110715543085842 0 0.46821500157135565 -0.10192857125730075 0
          0.41535485150556944 -0.05908577824723824 0 0.5912006755847239 -0.09942312741313632 0
          0.564465821280878 -0.12264545085323011 0 0.550857237028008 -0.111836142584117 0
          0.5136355061240471 -0.1118764143000397 0 0.5688221945176002 -0.0898416043923294 0
          0.5875021397952334 -0.049819812533492415 0
          <InformationKey name="L2_NORM_RANGE" location="vtkDataArray" length="2">
            <Value index="0">
              0
            </Value>
            <Value index="1">
              0.59950245794
            </Value>
          </InformationKey>
        </DataArray>
        <DataArray type="Float64" Name="ALEveloc" NumberOfComponents="3" format="ascii" RangeMin="0" RangeMax="0.45434271177491337">
          0.2613606686414158 -0.11043163446040599 0 0.13119307712359202 -0.0779395776543772 0
          0.3238350201030691 -0.09763773117050872 0 0.35442429501938744 -0.0767850156819454 0
          0.3103240106429904 -0.11143749304756956 0 0 0 0
          0.21536210658905208 -0.10730866456274107 0 0.35340956683888813 -0.10047720302862062 0
          0.09033740568836307 -0.05819207575538457 0 0.27837277495409884 -0.11651781264754207 0
          0.38059081372881964 -0.08310744151242117 0 0.16586138178512122 -0.09304153867730353 0
          0.33647718976913077 -0.11264391282255304 0 0.23796840241469375 -0.11204664340110554 0
          0.380286133014079 -0.0993598702912174 0 0 0 0
          0.3032399874581311 -0.11434349473022176 0 0.10580282541172548 -0.06577977635814483 0
          0.4063170880082865 -0.08190450802586419 0 0.1817906320230881 -0.09575620835891635 0
          0.36076039053282716 -0.10595827948619851 0 0.2548688497164958 -0.10602233748073492 0
          0.404237566580405 -0.09094220559987803 0 0.32224918632975363 -0.10216198577711344 0
          0.11198466939741364 -0.06471812563696577 0 0.3815044912735992 -0.09180547752844437 0
          0 0 0 0.1883848147981702 -0.08643402549547219 0
          0.4251301768462419 -0.07641595168800203 0 0.2650898100058805 -0.08849419633236444 0
          0.3279691981604025 -0.07730309686967979 0 0.39567941438831444 -0.06995701766782092 0
          0 0 0 0.19168716575393785 -0.0668822953544203 0
          0.2745109416499344 -0.06035983323930355 0 0.08397428008413105 -0.041079187360569425 0
          0.3912293648764711 -0.033794194522592344 0 0.3152054497811412 -0.03245378057274906 0
          0 0 0 0.2137359484871808 -0.02986172966588821 0
          0.11387621499828932 -0.025015227733409397 0 0.035159328656699185 -0.016312526263284596 0
          0 0 0 0 0 0
          0.15017405589406496 -0.07301478400747632 0 0.2622812447680435 -0.07242020759329615 0
          0.3250445916556194 -0.0693812659152574 0 0.3531394218525361 -0.060167711035518934 0
          0.3112966935980146 -0.031189864661200217 0 0.4480647111943168 -0.061020242332518015 0
          0.4288949227308019 -0.07418502205577787 0 0.41350692030545844 -0.06640746721722823 0
          0.38640971027310544 -0.06611585237097678 0 0.4401902987241606 -0.056713659328070876 0
          0.4528516800982292 -0.03677846618869701 0
          <InformationKey name="L2_NORM_RANGE" location="vtkDataArray" length="2">
            <Value index="0">
              0
            </Value>
            <Value index="1">
              0.45434271177
            </Value>
          </InformationKey>
        </DataArray>
      </PointData>
      <CellData>
        <DataArray type="UInt8" Name="vtkGhostType" format="ascii" RangeMin="0" RangeMax="1">
          1 1 1 1 1 0
          0 0 1 0 1 1
          0 0 0 0 0 0
          0 0 0 0 0 0
          0 0 0 0 0 0
          0 0 0 0 0 0
          0 0 0 0 0 0
          0 0 0 0 0 0
          0 0 0 0 0 0
          0 0 0 0 0 0
          0 0 0 0 0 0
          0 0 0 0 0 0
          0 0 0 0 0 0
          0 0 0 0 0 0
          0
        </DataArray>
        <DataArray type="Float64" Name="PStrain" NumberOfComponents="6" format="ascii" RangeMin="0.0004169319589142715" RangeMax="0.050285267465223146">
          0.00046525507459205685 0.00046525507459205685 0 0.00046525507459205685 0 0
          0.00031624727579971745 0.00031624727579971745 0 0.00031624727579971745 0 0
          0.0002942225318222929 0.0002942225318222929 0 0.0002942225318222929 0 0
          0.0002952886158531273 0.0002952886158531273 0 0.0002952886158531273 0 0
          0.00024071577871291264 0.00024071577871291264 0 0.00024071577871291264 0 0
          0.0007967825422009672 0.0007967825422009672 0 0.0007967825422009672 0 0
          0.000614189700701388 0.000614189700701388 0 0.000614189700701388 0 0
          0.00073819089443328 0.00073819089443328 0 0.00073819089443328 0 0
          0.0004765331766256838 0.0004765331766256838 0 0.0004765331766256838 0 0
          0.0008562474664116986 0.0008562474664116986 0 0.0008562474664116986 0 0
          0.0006508329189185253 0.0006508329189185253 0 0.0006508329189185253 0 0
          0.0006481775346197156 0.0006481775346197156 0 0.0006481775346197156 0 0
          0.0006302805244380733 0.0006302805244380733 0 0.0006302805244380733 0 0
          0.005627048579172322 0.005627048579172322 0 0.005627048579172322 0 0
          0.0066627246248344065 0.0066627246248344065 0 0.0066627246248344065 0 0
          0.007461369649322222 0.007461369649322222 0 0.007461369649322222 0 0
          0.005687918836724186 0.005687918836724186 0 0.005687918836724186 0 0
          0.004171546423379007 0.004171546423379007 0 0.004171546423379007 0 0
          0.008100817842505813 0.008100817842505813 0 0.008100817842505813 0 0
          0.0030956430618206 0.0030956430618206 0 0.0030956430618206 0 0
          0.003390735739526116 0.003390735739526116 0 0.003390735739526116 0 0
          0.0018010090699193647 0.0018010090699193647 0 0.0018010090699193647 0 0
          0.0032452531721160116 0.0032452531721160116 0 0.0032452531721160116 0 0
          0.0036752552008266015 0.0036752552008266015 0 0.0036752552008266015 0 0
          0.00421395408692977 0.00421395408692977 0 0.00421395408692977 0 0
          0.002419762209108142 0.002419762209108142 0 0.002419762209108142 0 0
          0.0029254382756536542 0.0029254382756536542 0 0.0029254382756536542 0 0
          0.0022437675354768215 0.0022437675354768215 0 0.0022437675354768215 0 0
          0.004260682058263262 0.004260682058263262 0 0.004260682058263262 0 0
          0.0017589943234436255 0.0017589943234436255 0 0.0017589943234436255 0 0
          0.0019523803113635787 0.0019523803113635787 0 0.0019523803113635787 0 0
          0.0011096876713851216 0.0011096876713851216 0 0.0011096876713851216 0 0
          0.0017298953063668025 0.0017298953063668025 0 0.0017298953063668025 0 0
          0.0024612484305986957 0.0024612484305986957 0 0.0024612484305986957 0 0
          0.0026400307481035815 0.0026400307481035815 0 0.0026400307481035815 0 0
          0.0015932781666321146 0.0015932781666321146 0 0.0015932781666321146 0 0
          0.002243444840964651 0.002243444840964651 0 0.002243444840964651 0 0
          0.001452554654952193 0.001452554654952193 0 0.001452554654952193 0 0
          0.0016028515459669674 0.0016028515459669674 0 0.0016028515459669674 0 0
          0.0012311579329977583 0.0012311579329977583 0 0.0012311579329977583 0 0
          0.0029031413882099556 0.0029031413882099556 0 0.0029031413882099556 0 0
          0.000990535811584645 0.000990535811584645 0 0.000990535811584645 0 0
          0.001122207206554749 0.001122207206554749 0 0.001122207206554749 0 0
          0.002472123505769526 0.002472123505769526 0 0.002472123505769526 0 0
          0.0031916136738983545 0.0031916136738983545 0 0.0031916136738983545 0 0
          0.0010025507914989793 0.0010025507914989793 0 0.0010025507914989793 0 0
          0.0017901645567107594 0.0017901645567107594 0 0.0017901645567107594 0 0
          0.0015626877603548948 0.0015626877603548948 0 0.0015626877603548948 0 0
          0.0009686224663364785 0.0009686224663364785 0 0.0009686224663364785 0 0
          0.0011931635385643707 0.0011931635385643707 0 0.0011931635385643707 0 0
          0.0018048940562462854 0.0018048940562462854 0 0.0018048940562462854 0 0
          0.0010986087447163663 0.0010986087447163663 0 0.0010986087447163663 0 0
          0.0009680409414696883 0.0009680409414696883 0 0.0009680409414696883 0 0
          0.0020633336004620946 0.0020633336004620946 0 0.0020633336004620946 0 0
          0.0010508827247853515 0.0010508827247853515 0 0.0010508827247853515 0 0
          0.0006023662993018596 0.0006023662993018596 0 0.0006023662993018596 0 0
          0.0021006269991139287 0.0021006269991139287 0 0.0021006269991139287 0 0
          0.0012955813416973111 0.0012955813416973111 0 0.0012955813416973111 0 0
          0.001313560130775514 0.001313560130775514 0 0.001313560130775514 0 0
          0.001254791146379978 0.001254791146379978 0 0.001254791146379978 0 0
          0.000816781729555267 0.000816781729555267 0 0.000816781729555267 0 0
          0.0013368769685356747 0.0013368769685356747 0 0.0013368769685356747 0 0
          0.0009571788110010273 0.0009571788110010273 0 0.0009571788110010273 0 0
          0.0007811951545305238 0.0007811951545305238 0 0.0007811951545305238 0 0
          0.0006195855458880513 0.0006195855458880513 0 0.0006195855458880513 0 0
          0.0009884041356528635 0.0009884041356528635 0 0.0009884041356528635 0 0
          0.0006697802082118419 0.0006697802082118419 0 0.0006697802082118419 0 0
          0.0015337503009913056 0.0015337503009913056 0 0.0015337503009913056 0 0
          0.029032212707318913 0.029032212707318913 0 0.029032212707318913 0 0
          0.015910833265601342 0.015910833265601342 0 0.015910833265601342 0 0
          0.013832763882072167 0.013832763882072167 0 0.013832763882072167 0 0
          0.007993108264800399 0.007993108264800399 0 0.007993108264800399 0 0
          0.004589359692185322 0.004589359692185322 0 0.004589359692185322 0 0
          0.0008683447559424068 0.0008683447559424068 0 0.0008683447559424068 0 0
          0.003372068002449064 0.003372068002449064 0 0.003372068002449064 0 0
          0.003029785948055623 0.003029785948055623 0 0.003029785948055623 0 0
          0.013070105456405235 0.013070105456405235 0 0.013070105456405235 0 0
          0.005348912558367398 0.005348912558367398 0 0.005348912558367398 0 0
          0.005851914946201005 0.005851914946201005 0 0.005851914946201005 0 0
          0.00409487483670045 0.00409487483670045 0 0.00409487483670045 0 0
          0.0015355954661160074 0.0015355954661160074 0 0.0015355954661160074 0 0
          0.0019932902641703917 0.0019932902641703917 0 0.0019932902641703917 0 0
          0.002515344784554514 0.002515344784554514 0 0.002515344784554514 0 0
          0.003444492366658198 0.003444492366658198 0 0.003444492366658198 0 0
          0.0044934611392427465 0.0044934611392427465 0 0.0044934611392427465 0 0
          <InformationKey name="L2_NORM_RANGE" location="vtkDataArray" length="2">
            <Value index="0">
              0.00041693195891
            </Value>
            <Value index="1">
              0.050285267465
            </Value>
          </InformationKey>
        </DataArray>
        <DataArray type="Float64" Name="Stress" NumberOfComponents="6" format="ascii" RangeMin="0.000005341769221510251" RangeMax="0.00048271354300831356">
          -0.0000010735150548387322 -0.000015442101173449452 0 0.000011061278835480053 0 0
          -0.0000017703179628357631 -0.00000470082463331776 0 0.000007750510652736515 0 0
          -0.0000017980933251753223 -0.000007513547385968147 0 0.000007413753634481999 0 0
          -0.0000046888119057442804 3.185685945673557e-7 0 0.0000059531989432653815 0 0
          -0.000002836179723639468 0.0000028625393765814756 0 0.0000035066296223883025 0 0
          -0.000021692937075268 0.000016391983758027106 0 -0.0000015311636691183967 0 0
          -0.000004558193954081097 4.7378919805778163e-7 0 0.000013562951640160134 0 0
          -0.00001162895437019394 0.000006583623489967855 0 0.000011937400550198562 0 0
          -0.00000770245825191488 0.000008030508627406073 0 0.000005968532810308191 0 0
          -0.000007029308101683387 -0.000007535806551689751 0 0.000020423531768461717 0 0
          -0.000013194512704358521 0.000007355386983064535 0 0.000010936552829468594 0 0
          -0.000011587649128111346 0.000014011392233163587 0 -0.0000024536396543273606 0 0
          -0.000005952529382030967 -0.00000953727243542851 0 0.00001699241970953151 0 0
          -0.00011176196389925362 0.00006555873237346425 0 0.000021949364096744727 0 0
          -0.00011419878977234426 0.00006926801438193138 0 0.000027410924536049677 0 0
          -0.000049528721842540654 0.000022503999448760228 0 0.00009224162764275259 0 0
          -0.0000895970677981984 0.00004253816238713358 0 0.00008103011205758096 0 0
          -0.00004553371161178801 0.00002493674930251843 0 0.00005885494561160843 0 0
          -0.000049933203993458306 -0.000025106835279333957 0 0.00014533939710070242 0 0
          -0.00006278130540550398 0.00004345289749273924 0 0.00002014103547917225 0 0
          -0.00006818112112009735 0.00004899612649015681 0 -0.000008515797619786236 0 0
          -0.00004188319598784207 0.00003274740500809636 0 -7.471211233312868e-8 0 0
          -0.00005758007656358131 0.00004167070734536221 0 0.000021821756014604984 0 0
          -0.000006096241076535097 -0.00001686751457903483 0 0.00006508119734633144 0 0
          -0.00004169636577480065 -3.0710426803509873e-7 0 0.0000834828291475799 0 0
          -0.00001388519773775403 -0.000004352827358351992 0 0.00004840136417457921 0 0
          -0.000048645245047383283 0.00002732133259832439 0 0.000044874438478777665 0 0
          -0.0000284403780908322 0.000017152161844748454 0 0.00003491140362674614 0 0
          -0.000007593728813748845 -0.00002210683918308327 0 0.00008183056588646324 0 0
          -0.000036043860823302783 0.000027946979572979345 0 0.00001530857445188017 0 0
          -0.000039457514587919664 0.000034707089878198096 0 -0.0000013871461509387617 0 0
          -0.000028235338881501504 0.000022322307568106865 0 2.07304683817934e-7 0 0
          -0.000031454857717130116 0.00002535356689448132 0 0.000015574779332787977 0 0
          0.0000020915749869112873 -0.000022114038753553286 0 0.00005228966905206463 0 0
          -0.000014177209369635385 -0.000016791678209257843 0 0.00005855988221486055 0 0
          -0.0000030355825759182957 -0.00001508047978290673 0 0.00003747876125691763 0 0
          -0.000025695031773601474 0.000003595410817275152 0 0.00004728235098782778 0 0
          -0.000012645584454552543 -0.0000010853989709048062 0 0.000032043319776014755 0 0
          -0.00002772872545751614 0.000016689949003473026 0 0.000026349897244338944 0 0
          -0.000016040135570025013 0.00001104851910948349 0 0.000020188987269937878 0 0
          0.000001534707467391513 -0.00003599253114706061 0 0.00005977567102858975 0 0
          -0.000018400182246900554 0.000017108516563197188 0 0.000010988478403210005 0 0
          -0.000020482237137222244 0.000021412096675125795 0 -0.0000015394570784858594 0 0
          0.000014722705649737335 -0.00003223069373059499 0 0.00005115718666919484 0 0
          0.000017463330516373797 -0.000042693894263321976 0 0.0000565575744068072 0 0
          -0.00001977531161775697 0.000016631931664483382 0 0.00001189338127631694 0 0
          0.000004672317803446286 -0.000030156304658205734 0 0.00004158230891490723 0 0
          -0.000013203223216634945 -0.000011188072283936458 0 0.00003676824811969015 0 0
          -0.000004264427417732149 -0.000009428630827025548 0 0.000023585672613435772 0 0
          -0.000013768846728803985 0.0000016152627731210126 0 0.000027076558679620798 0 0
          -0.000004083215471261701 -0.000028029244824031483 0 0.00004214137487108402 0 0
          -0.0000010785824834360524 -0.000021414182331670204 0 0.000028389570028557636 0 0
          -0.000018110379745425847 0.00000972530986998832 0 0.000015242018874057052 0 0
          0.000003692159677109243 -0.000045141054862577596 0 0.00004132717983905332 0 0
          -0.000004422014437914713 -0.000019636870403317228 0 0.000026897667194666428 0 0
          -0.00000217155068710862 -0.000012359597804759333 0 0.000016110539458438054 0 0
          0.0000140944805170558 -0.000046052150109849896 0 0.0000434172636842189 0 0
          5.825648617122379e-7 -0.00003477429784089826 0 0.00003094272406912252 0 0
          -0.0000032208949872843177 -0.00004633133558632057 0 0.000031451414871144465 0 0
          -0.0000024526011389041756 -0.00003312409909118421 0 0.00002982787398384461 0 0
          -0.0000017308684956821529 -0.000023023574863720757 0 0.000020486556492219127 0 0
          -4.174641753737486e-7 -0.000048061809635500806 0 0.000030411281995844926 0 0
          -0.000002570966157400346 -0.00003615276289561198 0 0.000023698379531190003 0 0
          -0.000003702170576281723 -0.000021679402916281997 0 0.0000193145000661681 0 0
          -0.000003341382446261895 -0.00002069732793760617 0 0.000016705086060809477 0 0
          -0.0000025956563248154513 -0.00003733751790311457 0 0.00002446922103307908 0 0
          -0.000001757766012526341 -0.000025284788026340437 0 0.00001656385525912718 0 0
          0.000010824401450507856 -0.00004580319643170876 0 0.000026415211017023506 0 0
          -0.00015512534055082996 -0.00007696763776227108 0 0.0004505823743333996 0 0
          -0.0002240322137748438 0.0001157507670900436 0 0.000022672977462893367 0 0
          -0.0002024610343633927 0.00004658924557260675 0 0.00019505003326291447 0 0
          0.000011125227610803732 -0.000016035128849837018 0 0.00010294477374790284 0 0
          0.00002191657886998319 -0.000023467455252925385 0 0.00006958069040638459 0 0
          -7.292029368662341e-7 -0.000010489303784152755 0 0.00000955012326516624 0 0
          0.00001454143999204641 -0.00002606564142300966 0 0.00006345801553822833 0 0
          0.0000307876082092459 -0.000019070993586465516 0 0.00004494354085748295 0 0
          0.000008415700914202822 -0.00003135278480589212 0 0.00020113931440528897 0 0
          0.00002615071294023621 -0.000010953829334628044 0 0.00008089701547124708 0 0
          0.00003212045753252383 -0.000014984214163233 0 0.00009046242829092863 0 0
          0.000016753364179860585 -0.00003172705583834689 0 0.00007126783075209218 0 0
          -0.0000024439935833434836 -0.00003515590769886396 0 0.00002874863832413351 0 0
          0.000030073444138657494 -0.00004386044278845258 0 0.000027615678363778852 0 0
          0.00003031374210887171 -0.00003029345039855576 0 0.00003839664844647172 0 0
          0.00002512002750070817 -0.000029807989876482724 0 0.000058303069217426184 0 0
          0.0000314971114231208 -0.000016703136413061097 0 0.00007267686633444938 0 0
          <InformationKey name="L2_NORM_RANGE" location="vtkDataArray" length="2">
            <Value index="0">
              5.3417692215e-06
            </Value>
            <Value index="1">
              0.00048271354301
            </Value>
          </InformationKey>
        </DataArray>
        <DataArray type="Float64" Name="Strain" NumberOfComponents="6" format="ascii" RangeMin="0.016962546736079828" RangeMax="0.06625081637757009">
          0 -0.03289065515241921 0 0.050640014921343436 0 0
          -0.004545252700015968 -0.014414079541831614 0 0.05220151746313806 0 0
          -0.004317721879472172 -0.02500600342284769 0 0.05367126420822325 0 0
          -0.015886337415509114 0.002173485911660347 0 0.042942101619868375 0 0
          -0.012555704361430864 0.012657166494756766 0 0.03102879726299563 0 0
          -0.028534786202732663 0.022370496655772783 0 -0.004093185332867885 0 0
          -0.0074435205224702705 0.0012818977821805605 0 0.04703609806636375 0 0
          -0.016304147700592783 0.009971434357301884 0 0.03444456354537313 0 0
          -0.01726181455775974 0.017899661176464583 0 0.026678047845433595 0 0
          -0.007565503339309552 -0.008195485757263258 0 0.05080554906530593 0 0
          -0.02096996349656642 0.012657166494756766 0 0.035792377505238455 0 0
          -0.01929815408555407 0.022762820869020595 0 -0.00806299537484512 0 0
          -0.008356853903657084 -0.014414079541831614 0 0.05742499185354134 0 0
          -0.020584160811949026 0.012976335223118411 0 0.008308466662099263 0 0
          -0.017787224424586023 0.011538938283085505 0 0.008762971989591556 0 0
          -0.006818761801892224 0.0034628422173114196 0 0.0263322521350903 0 0
          -0.016203329745661323 0.008537533158146399 0 0.030343987605499792 0 0
          -0.011283004759795934 0.006708174830851897 0 0.030051453688769422 0 0
          -0.0059233791534721355 -0.0026595009630740463 0 0.0382150199946647 0 0
          -0.021166549214677477 0.01538140667920708 0 0.013858317872541298 0 0
          -0.02102340560152549 0.015780927820919763 0 -0.005349472894245574 0 0
          -0.024415856272421592 0.01971584266690301 0 -0.00008835979891910761 0 0
          -0.018556781940318234 0.014014508882611177 0 0.014322562168794333 0 0
          -0.0013340109715783421 -0.0044552653208224935 0 0.03771791148448911 0 0
          -0.009847980894040292 0.0006123996880417204 0 0.04219752337498799 0 0
          -0.005589478277047366 -0.0013940352637419745 0 0.04260538713423899 0 0
          -0.01720461462306233 0.010450867246436887 0 0.03267290058903727 0 0
          -0.013150905978693783 0.008489506525569845 0 0.03314126287559767 0 0
          -0.0014155713297979086 -0.00504326810040405 0 0.040908733145231316 0 0
          -0.021504449825745064 0.017239418823370933 0 0.01853744673755897 0 0
          -0.021355165611398996 0.01910073496119518 0 -0.0015133431147110882 0 0
          -0.02672941862921291 0.0217922463917425 0 0.00039791284333279275 0 0
          -0.019120845920447938 0.01585293080967847 0 0.019177044909447383 0 0