<?xml version="1.0"?>
<VTKFile type="UnstructuredGrid" version="0.1" byte_order="LittleEndian" header_type="UInt32" compressor="vtkZLibDataCompressor">
  <UnstructuredGrid>
    <Piece NumberOfPoints="44" NumberOfCells="60">
      <PointData>
      </PointData>
      <CellData>
        <DataArray type="UInt8" Name="vtkGhostType" format="ascii" RangeMin="0" RangeMax="0">
          0 0 0 0 0 0
          0 0 0 0 0 0
          0 0 0 0 0 0
          0 0 0 0 0 0
          0 0 0 0 0 0
          0 0 0 0 0 0
          0 0 0 0 0 0
          0 0 0 0 0 0
          0 0 0 0 0 0
          0 0 0 0 0 0
        </DataArray>
        <DataArray type="Float64" Name="arvis" format="ascii" RangeMin="0.11738455587905672" RangeMax="1.119522013307678">
          0.7352054073993716 0.9214326109642987 0.7449091672146694 1.119522013307678 0.7399042714839656 1.0671753307633456
          0.7396470270733213 1.0664273904051735 0.7396429280879949 1.0664863695557216 0.7396467649702172 1.0664892950699278
          0.7398931926216838 1.0666407556560942 0.7390926303178498 1.0707314783559163 0.7132576639258932 1.0055892713002161
          0.7843693957175841 1.0645406414700098 0.4174036039937942 0.5765907238032477 0.4237864430537079 0.5401702320319739
          0.42117361707454165 0.5319860490319869 0.4209435339532876 0.532333376334636 0.4209353274790881 0.5323466880336032
          0.4209352038161324 0.532347137863837 0.4209332230117525 0.5323482181135475 0.4207491460414721 0.5321314062610921
          0.418380584685804 0.525768757168638 0.39856472119031117 0.5940098548248041 0.15295063998466474 0.2840105596454421
          0.134963507076458 0.13095191733254513 0.1317402097451227 0.12719421182611618 0.13166496659474317 0.12710509841115614
          0.13167158266788065 0.12711008722266645 0.1316718456517899 0.12711028100430483 0.1316715364026115 0.1271102803548205
          0.13170192242176093 0.1271101232274937 0.13300420303639146 0.12712905431083402 0.11738455587905672 0.127616654247229
        </DataArray>
        <DataArray type="Float64" Name="artco" format="ascii" RangeMin="0.14658536710752124" RangeMax="1.1581169212462572">
          0.760555740863646 0.9112921239529858 0.733538416891666 1.0943840948342864 0.7163432056487986 1.0403700061928183
          0.7151759954381139 1.0392076781943258 0.7151488065028395 1.0392637370552764 0.7151567870491788 1.0392683501686844
          0.7155245660130576 1.039490718962493 0.7143633263421882 1.0445134207068083 0.6718422200959685 0.9826471672456403
          0.7667845878572881 1.1581169212462572 0.45270142603638175 0.5596831433419618 0.44529178000739944 0.5179609465597651
          0.43651256263791766 0.5113825549384026 0.435651445267896 0.5107142318337443 0.43561571705677 0.510627780070875
          0.43561497712152253 0.5106255738627774 0.43560357530821775 0.5106280674636892 0.43503481532751054 0.5102494315505187
          0.43364556459753334 0.49554671757691365 0.4187095740798118 0.634273671775485 0.1823417084997731 0.28494173164435543
          0.16308448386838986 0.15135945748664204 0.15928745312891326 0.14684182850191121 0.1591743411164652 0.1467014524268322
          0.15917896147475408 0.1467038128672292 0.15917910430014648 0.1467038755717761 0.15917882508980022 0.14670387340352636
          0.15922160166857247 0.14670374019880328 0.1611282182834435 0.1467294489490943 0.14658536710752124 0.14746964617824104
        </DataArray>
      </CellData>
      <Points>
        <DataArray type="Float32" Name="Points" NumberOfComponents="3" format="ascii" RangeMin="0" RangeMax="4.2201894765504395">
          4.099999904632568 1 0 4.099999904632568 0.6666666865348816 0
          3.690000057220459 1 0 3.690000057220459 0.6666666865348816 0
          4.099999904632568 0.3333333134651184 0 3.690000057220459 0.3333333134651184 0
          3.2799999713897705 1 0 3.2799999713897705 0.6666666865348816 0
          4.099999904632568 0 0 3.2799999713897705 0.3333333134651184 0
          3.690000057220459 0 0 2.869999885559082 1 0
          2.869999885559082 0.6666666865348816 0 3.2799999713897705 0 0
          2.869999885559082 0.3333333134651184 0 2.869999885559082 0 0
          2.4600000381469727 1 0 2.4600000381469727 0.6666666865348816 0
          2.4600000381469727 0.3333333134651184 0 2.4600000381469727 0 0
          2.049999952316284 1 0 2.049999952316284 0.6666666865348816 0
          2.049999952316284 0.3333333134651184 0 2.049999952316284 0 0
          1.6399999856948853 1 0 1.6399999856948853 0.6666666865348816 0
          1.6399999856948853 0.3333333134651184 0 1.6399999856948853 0 0
          1.2300000190734863 1 0 1.2300000190734863 0.6666666865348816 0
          1.2300000190734863 0.3333333134651184 0 1.2300000190734863 0 0
          0.8199999928474426 1 0 0.8199999928474426 0.6666666865348816 0
          0.8199999928474426 0.3333333134651184 0 0.8199999928474426 0 0
          0.4099999964237213 1 0 0.4099999964237213 0.6666666865348816 0
          0.4099999964237213 0.3333333134651184 0 0.4099999964237213 0 0
          0 1 0 0 0.6666666865348816 0
          0 0.3333333134651184 0 0 0 0
          <InformationKey name="L2_NORM_RANGE" location="vtkDataArray" length="2">
            <Value index="0">
              0
            </Value>
            <Value index="1">
              4.2201894766
            </Value>
          </InformationKey>
        </DataArray>
      </Points>
      <Cells>
        <DataArray type="Int64" Name="connectivity" format="ascii" RangeMin="0" RangeMax="43">
          39 38 43 38 42 43
          35 34 39 34 38 39
          31 30 35 30 34 35
          27 26 31 26 30 31
          23 22 27 22 26 27
          19 18 23 18 22 23
          15 14 19 14 18 19
          13 9 15 9 14 15
          10 5 13 5 9 13
          8 4 10 4 5 10
          38 37 42 37 41 42
          34 33 38 33 37 38
          30 29 34 29 33 34
          26 25 30 25 29 30
          22 21 26 21 25 26
          18 17 22 17 21 22
          14 12 18 12 17 18
          9 7 14 7 12 14
          5 3 9 3 7 9
          4 1 5 1 3 5
          37 36 41 36 40 41
          33 32 37 32 36 37
          29 28 33 28 32 33
          25 24 29 24 28 29
          21 20 25 20 24 25
          17 16 21 16 20 21
          12 11 17 11 16 17
          7 6 12 6 11 12
          3 2 7 2 6 7
          1 0 3 0 2 3
        </DataArray>
        <DataArray type="Int64" Name="offsets" format="ascii" RangeMin="3" RangeMax="180">
          3 6 9 12 15 18
          21 24 27 30 33 36
          39 42 45 48 51 54
          57 60 63 66 69 72
          75 78 81 84 87 90
          93 96 99 102 105 108
          111 114 117 120 123 126
          129 132 135 138 141 144
          147 150 153 156 159 162
          165 168 171 174 177 180
        </DataArray>
        <DataArray type="UInt8" Name="types" format="ascii" RangeMin="5" RangeMax="5">
          5 5 5 5 5 5
          5 5 5 5 5 5
          5 5 5 5 5 5
          5 5 5 5 5 5
          5 5 5 5 5 5
          5 5 5 5 5 5
          5 5 5 5 5 5
          5 5 5 5 5 5
          5 5 5 5 5 5
          5 5 5 5 5 5
        </DataArray>
      </Cells>
    </Piece>
  </UnstructuredGrid>
</VTKFile>
