<?xml version="1.0"?>
<VTKFile type="UnstructuredGrid" version="0.1" byte_order="LittleEndian" header_type="UInt32" compressor="vtkZLibDataCompressor">
  <UnstructuredGrid>
    <Piece NumberOfPoints="44" NumberOfCells="60">
      <PointData>
      </PointData>
      <CellData>
        <DataArray type="UInt8" Name="vtkGhostType" format="ascii" RangeMin="0" RangeMax="0">
          0 0 0 0 0 0
          0 0 0 0 0 0
          0 0 0 0 0 0
          0 0 0 0 0 0
          0 0 0 0 0 0
          0 0 0 0 0 0
          0 0 0 0 0 0
          0 0 0 0 0 0
          0 0 0 0 0 0
          0 0 0 0 0 0
        </DataArray>
        <DataArray type="Float64" Name="arvis" format="ascii" RangeMin="0.13347545419772971" RangeMax="3.49375821627472">
          2.3674844822407297 2.471677316445541 2.3674844822407293 3.493758216273017 2.3674844822418963 3.49375821627472
          2.3674844822418954 3.493758216274717 2.3674844822418613 3.4937582162747116 2.3674844822407426 3.493758216272994
          2.367484482240742 3.49375821627301 2.3674844822419083 3.493758216274685 2.359814875884114 3.4272184022530983
          2.3013953387087476 3.050054623763793 1.186971427433859 1.3124408717631624 1.188848088491747 1.7120930230358493
          1.1888480884917385 1.7101418406911557 1.1888480884917383 1.7101418406911546 1.1888480884917383 1.7101418406911546
          1.1888480884917398 1.7101418406911557 1.1888480884917394 1.710141840691156 1.1888480884917372 1.7101418406911564
          1.1854253199080833 1.70538196734019 1.1655709979027882 1.8229155819749217 0.1694764198642544 0.2840105596454421
          0.14540067582255944 0.1338787649502286 0.14498467185123282 0.13347545419772977 0.14498467185123273 0.13347545419772971
          0.14498467185123273 0.13347545419772971 0.1449846718512328 0.13347545419772971 0.1449846718512328 0.13347545419772971
          0.14498467185123276 0.13347545419772971 0.1452425854918541 0.13347545419772971 0.1338067399240545 0.13363889191748862
        </DataArray>
        <DataArray type="Float64" Name="artco" format="ascii" RangeMin="0.15409622477770285" RangeMax="3.442680056371612">
          2.3796457091622725 2.446877117208502 2.3796457091622725 3.413004269350652 2.3796457091622725 3.4130042693506524
          2.379645709162272 3.413004269350652 2.379645709162219 3.4130042693506164 2.3796457091621486 3.413004269350579
          2.3796457091621486 3.413004269350579 2.3796457091623173 3.413004269350577 2.3678198494138902 3.442680056371612
          2.315342689287037 3.1706406575639594 1.2274543909106765 1.2704622274733781 1.2112540354485268 1.671622869135169
          1.2112540354485157 1.6703308034619566 1.211254035448518 1.670330803461961 1.211254035448518 1.670330803461961
          1.2112540354485146 1.6703308034619568 1.2112540354485157 1.6703308034619568 1.2112540354485155 1.6703308034619546
          1.2051528271420804 1.6593490177412593 1.1888236731183992 1.9265123883134223 0.19977714111227934 0.28494173164435543
          0.17387207746207306 0.15473996774011592 0.1732130555132012 0.15409622477770285 0.17321305551320118 0.1540962247777029
          0.17321305551320118 0.1540962247777029 0.1732130555132012 0.15409622477770296 0.1732130555132012 0.15409622477770296
          0.17321305551320118 0.15409622477770296 0.17360436896811093 0.15409622477770296 0.16449407055108156 0.15434739822318863
        </DataArray>
      </CellData>
      <Points>
        <DataArray type="Float32" Name="Points" NumberOfComponents="3" format="ascii" RangeMin="0" RangeMax="4.2201894765504395">
          4.099999904632568 1 0 4.099999904632568 0.6666666865348816 0
          3.690000057220459 1 0 3.690000057220459 0.6666666865348816 0
          4.099999904632568 0.3333333134651184 0 3.690000057220459 0.3333333134651184 0
          3.2799999713897705 1 0 3.2799999713897705 0.6666666865348816 0
          4.099999904632568 0 0 3.2799999713897705 0.3333333134651184 0
          3.690000057220459 0 0 2.869999885559082 1 0
          2.869999885559082 0.6666666865348816 0 3.2799999713897705 0 0
          2.869999885559082 0.3333333134651184 0 2.869999885559082 0 0
          2.4600000381469727 1 0 2.4600000381469727 0.6666666865348816 0
          2.4600000381469727 0.3333333134651184 0 2.4600000381469727 0 0
          2.049999952316284 1 0 2.049999952316284 0.6666666865348816 0
          2.049999952316284 0.3333333134651184 0 2.049999952316284 0 0
          1.6399999856948853 1 0 1.6399999856948853 0.6666666865348816 0
          1.6399999856948853 0.3333333134651184 0 1.6399999856948853 0 0
          1.2300000190734863 1 0 1.2300000190734863 0.6666666865348816 0
          1.2300000190734863 0.3333333134651184 0 1.2300000190734863 0 0
          0.8199999928474426 1 0 0.8199999928474426 0.6666666865348816 0
          0.8199999928474426 0.3333333134651184 0 0.8199999928474426 0 0
          0.4099999964237213 1 0 0.4099999964237213 0.6666666865348816 0
          0.4099999964237213 0.3333333134651184 0 0.4099999964237213 0 0
          0 1 0 0 0.6666666865348816 0
          0 0.3333333134651184 0 0 0 0
          <InformationKey name="L2_NORM_RANGE" location="vtkDataArray" length="2">
            <Value index="0">
              0
            </Value>
            <Value index="1">
              4.2201894766
            </Value>
          </InformationKey>
        </DataArray>
      </Points>
      <Cells>
        <DataArray type="Int64" Name="connectivity" format="ascii" RangeMin="0" RangeMax="43">
          39 38 43 38 42 43
          35 34 39 34 38 39
          31 30 35 30 34 35
          27 26 31 26 30 31
          23 22 27 22 26 27
          19 18 23 18 22 23
          15 14 19 14 18 19
          13 9 15 9 14 15
          10 5 13 5 9 13
          8 4 10 4 5 10
          38 37 42 37 41 42
          34 33 38 33 37 38
          30 29 34 29 33 34
          26 25 30 25 29 30
          22 21 26 21 25 26
          18 17 22 17 21 22
          14 12 18 12 17 18
          9 7 14 7 12 14
          5 3 9 3 7 9
          4 1 5 1 3 5
          37 36 41 36 40 41
          33 32 37 32 36 37
          29 28 33 28 32 33
          25 24 29 24 28 29
          21 20 25 20 24 25
          17 16 21 16 20 21
          12 11 17 11 16 17
          7 6 12 6 11 12
          3 2 7 2 6 7
          1 0 3 0 2 3
        </DataArray>
        <DataArray type="Int64" Name="offsets" format="ascii" RangeMin="3" RangeMax="180">
          3 6 9 12 15 18
          21 24 27 30 33 36
          39 42 45 48 51 54
          57 60 63 66 69 72
          75 78 81 84 87 90
          93 96 99 102 105 108
          111 114 117 120 123 126
          129 132 135 138 141 144
          147 150 153 156 159 162
          165 168 171 174 177 180
        </DataArray>
        <DataArray type="UInt8" Name="types" format="ascii" RangeMin="5" RangeMax="5">
          5 5 5 5 5 5
          5 5 5 5 5 5
          5 5 5 5 5 5
          5 5 5 5 5 5
          5 5 5 5 5 5
          5 5 5 5 5 5
          5 5 5 5 5 5
          5 5 5 5 5 5
          5 5 5 5 5 5
          5 5 5 5 5 5
        </DataArray>
      </Cells>
    </Piece>
  </UnstructuredGrid>
</VTKFile>
