<?xml version="1.0"?>
<VTKFile type="UnstructuredGrid" version="0.1" byte_order="LittleEndian" header_type="UInt32" compressor="vtkZLibDataCompressor">
  <UnstructuredGrid>
    <Piece NumberOfPoints="44" NumberOfCells="60">
      <PointData>
      </PointData>
      <CellData>
        <DataArray type="UInt8" Name="vtkGhostType" format="ascii" RangeMin="0" RangeMax="0">
          0 0 0 0 0 0
          0 0 0 0 0 0
          0 0 0 0 0 0
          0 0 0 0 0 0
          0 0 0 0 0 0
          0 0 0 0 0 0
          0 0 0 0 0 0
          0 0 0 0 0 0
          0 0 0 0 0 0
          0 0 0 0 0 0
        </DataArray>
        <DataArray type="Float64" Name="arvis" format="ascii" RangeMin="0.11363766372224032" RangeMax="0.9520371553962232">
          0.6218287061789487 0.8139481436541565 0.6326184232680763 0.9520371553962232 0.6259483834027031 0.8967903303652001
          0.6254500490540471 0.8955538852230345 0.6254351531951283 0.8956485914125868 0.6254422604443416 0.8956570654590188
          0.625756263153722 0.8958587384071082 0.6242638289625293 0.8997400617203452 0.6011238671347947 0.8378891085744992
          0.6817831783127141 0.9187093365794952 0.3609744475758659 0.5252100435239294 0.36815495414630744 0.4574064733549839
          0.36476057486823227 0.4480377859047022 0.36436941487633284 0.4483641451553675 0.3643498244703287 0.448374155554837
          0.3643492503022959 0.44837437810279207 0.36434604491160183 0.44837639061679657 0.3641136595526323 0.4480983076499404
          0.36241250245150464 0.44188292023017006 0.3414599704316368 0.5055472119327928 0.14927916594172014 0.2840105596454421
          0.1331117040742454 0.13085967174453056 0.1291397016694909 0.1260326043279416 0.1289868345273064 0.1258593584574442
          0.1289976398900312 0.12586753949313192 0.128998407329995 0.12586811757655672 0.12899780487689064 0.12586811955263189
          0.1290458562820333 0.12586783670476173 0.13061154330367172 0.125896327138177 0.11363766372224032 0.12640375894183106
        </DataArray>
        <DataArray type="Float64" Name="artco" format="ascii" RangeMin="0.14235386168698966" RangeMax="1.0056161052762893">
          0.6490841414853736 0.8062422786556068 0.6245143840706718 0.9305688908200274 0.6020647830301382 0.8742308633645647
          0.5998198747746832 0.872252974320236 0.5997178350706817 0.8723164998433699 0.5997308577376465 0.8723280714992743
          0.6001969678411732 0.8726227013649687 0.5979336070788857 0.8774124410870601 0.5578850748071831 0.8126170493218228
          0.6689486330031472 1.0056161052762893 0.3944457350195319 0.5108749893308182 0.3906237147391076 0.4376044979591389
          0.38058593530705426 0.43029429468849556 0.3792751321098645 0.4294276273604968 0.3791963178414378 0.42926995431800197
          0.37919342041500903 0.4292629066215605 0.37917616670356397 0.42926734096039376 0.3784940664063985 0.4287782178802666
          0.37867453817152613 0.4144765521287266 0.3609334711783684 0.5414667519227125 0.17840603192861554 0.28494173164435543
          0.1610233771084364 0.15113803675033838 0.15642376301448874 0.1454483258517063 0.15622367285699457 0.1452074469208511
          0.1562319676834404 0.14521175643667297 0.15623248261184994 0.14521203776369077 0.15623186891059215 0.14521202989151616
          0.1562975178960746 0.14521175349357668 0.158582372046235 0.14524914205523914 0.14235386168698966 0.1460238892368801
        </DataArray>
      </CellData>
      <Points>
        <DataArray type="Float32" Name="Points" NumberOfComponents="3" format="ascii" RangeMin="0" RangeMax="4.2201894765504395">
          4.099999904632568 1 0 4.099999904632568 0.6666666865348816 0
          3.690000057220459 1 0 3.690000057220459 0.6666666865348816 0
          4.099999904632568 0.3333333134651184 0 3.690000057220459 0.3333333134651184 0
          3.2799999713897705 1 0 3.2799999713897705 0.6666666865348816 0
          4.099999904632568 0 0 3.2799999713897705 0.3333333134651184 0
          3.690000057220459 0 0 2.869999885559082 1 0
          2.869999885559082 0.6666666865348816 0 3.2799999713897705 0 0
          2.869999885559082 0.3333333134651184 0 2.869999885559082 0 0
          2.4600000381469727 1 0 2.4600000381469727 0.6666666865348816 0
          2.4600000381469727 0.3333333134651184 0 2.4600000381469727 0 0
          2.049999952316284 1 0 2.049999952316284 0.6666666865348816 0
          2.049999952316284 0.3333333134651184 0 2.049999952316284 0 0
          1.6399999856948853 1 0 1.6399999856948853 0.6666666865348816 0
          1.6399999856948853 0.3333333134651184 0 1.6399999856948853 0 0
          1.2300000190734863 1 0 1.2300000190734863 0.6666666865348816 0
          1.2300000190734863 0.3333333134651184 0 1.2300000190734863 0 0
          0.8199999928474426 1 0 0.8199999928474426 0.6666666865348816 0
          0.8199999928474426 0.3333333134651184 0 0.8199999928474426 0 0
          0.4099999964237213 1 0 0.4099999964237213 0.6666666865348816 0
          0.4099999964237213 0.3333333134651184 0 0.4099999964237213 0 0
          0 1 0 0 0.6666666865348816 0
          0 0.3333333134651184 0 0 0 0
          <InformationKey name="L2_NORM_RANGE" location="vtkDataArray" length="2">
            <Value index="0">
              0
            </Value>
            <Value index="1">
              4.2201894766
            </Value>
          </InformationKey>
        </DataArray>
      </Points>
      <Cells>
        <DataArray type="Int64" Name="connectivity" format="ascii" RangeMin="0" RangeMax="43">
          39 38 43 38 42 43
          35 34 39 34 38 39
          31 30 35 30 34 35
          27 26 31 26 30 31
          23 22 27 22 26 27
          19 18 23 18 22 23
          15 14 19 14 18 19
          13 9 15 9 14 15
          10 5 13 5 9 13
          8 4 10 4 5 10
          38 37 42 37 41 42
          34 33 38 33 37 38
          30 29 34 29 33 34
          26 25 30 25 29 30
          22 21 26 21 25 26
          18 17 22 17 21 22
          14 12 18 12 17 18
          9 7 14 7 12 14
          5 3 9 3 7 9
          4 1 5 1 3 5
          37 36 41 36 40 41
          33 32 37 32 36 37
          29 28 33 28 32 33
          25 24 29 24 28 29
          21 20 25 20 24 25
          17 16 21 16 20 21
          12 11 17 11 16 17
          7 6 12 6 11 12
          3 2 7 2 6 7
          1 0 3 0 2 3
        </DataArray>
        <DataArray type="Int64" Name="offsets" format="ascii" RangeMin="3" RangeMax="180">
          3 6 9 12 15 18
          21 24 27 30 33 36
          39 42 45 48 51 54
          57 60 63 66 69 72
          75 78 81 84 87 90
          93 96 99 102 105 108
          111 114 117 120 123 126
          129 132 135 138 141 144
          147 150 153 156 159 162
          165 168 171 174 177 180
        </DataArray>
        <DataArray type="UInt8" Name="types" format="ascii" RangeMin="5" RangeMax="5">
          5 5 5 5 5 5
          5 5 5 5 5 5
          5 5 5 5 5 5
          5 5 5 5 5 5
          5 5 5 5 5 5
          5 5 5 5 5 5
          5 5 5 5 5 5
          5 5 5 5 5 5
          5 5 5 5 5 5
          5 5 5 5 5 5
        </DataArray>
      </Cells>
    </Piece>
  </UnstructuredGrid>
</VTKFile>
