<?xml version="1.0"?>
<VTKFile type="UnstructuredGrid" version="0.1" byte_order="LittleEndian" header_type="UInt32" compressor="vtkZLibDataCompressor">
  <UnstructuredGrid>
    <Piece NumberOfPoints="15" NumberOfCells="16">
      <PointData>
        <DataArray type="Float64" Name="Velocity" NumberOfComponents="3" format="ascii" RangeMin="2.6677841329462924" RangeMax="2.900000248698786">
          2.6193 -0.5063 0 2.8999329170889254 -0.00027042415056822283 0
          2.9000000027302266 0 0 2.6193 -0.5063 0
          2.8999328706589353 -0.0002702556558700882 0 2.9000000014077285 0 0
          2.6193 -0.5063 0 2.899932904600284 -0.00027030268626455613 0
          2.900000099947097 0 0 2.900000146286831 0 0
          2.8999325117894714 -0.00026695435078466566 0 2.6193 -0.5063 0
          2.900000248698786 0 0 2.899933191802224 -0.00027049557036618537 0
          2.6193 -0.5063 0
          <InformationKey name="L2_NORM_RANGE" location="vtkDataArray" length="2">
            <Value index="0">
              2.6677841329
            </Value>
            <Value index="1">
              2.9000002487
            </Value>
          </InformationKey>
        </DataArray>
        <DataArray type="Float64" Name="Pressure" format="ascii" RangeMin="0.29198649361105494" RangeMax="0.6247193999999999">
          0.6247193999999999 0.2921790447045452 0.2919865708467569 0.6247193999999999 0.2921789370285039 0.2919865691426419
          0.6247193999999999 0.2921789744214366 0.29198664785557804 0.291986877107162 0.2921770213780269 0.6247193999999999
          0.29198649361105494 0.29217918609016985 0.6247193999999999
        </DataArray>
        <DataArray type="Float64" Name="Temperature" format="ascii" RangeMin="0.9999863025548293" RangeMax="1.2585">
          1.2585 1.0002899645673338 0.99998669723249 1.2585 1.0002897943695908 0.9999866950201142
          1.2585 1.0002898381285765 0.9999867926323668 0.9999871099721686 1.0002866955436494 1.2585
          0.9999863025548293 1.000289982492697 1.2585
        </DataArray>
        <DataArray type="Float64" Name="Density" format="ascii" RangeMin="0.9999673084580828" RangeMax="1.7">
          1.7 1.000323108539026 0.9999673120818375 1.7 1.000322910095703 0.9999673084580828
          1.7 1.0003229943561538 0.999967480416142 0.9999679482008537 1.0003194504673079 1.7
          0.9999674422425513 1.0003235746700458 1.7
        </DataArray>
        <DataArray type="Float64" Name="Momentum" NumberOfComponents="3" format="ascii" RangeMin="2.8999051959361224" RangeMax="4.535233026008696">
          4.4528099999999995 -0.86071 0 2.9008699101770397 -0.0002705115269204303 0
          2.8999052077674663 0 0 4.4528099999999995 -0.86071 0
          2.900869288259732 -0.00027034292414978943 0 2.8999051959361224 0 0
          4.4528099999999995 -0.86071 0 2.9008695665616946 -0.00027038999250667277 0
          2.899905793150659 0 0 2.8999071960646177 0 0
          2.900858896585524 -0.00026703962947677366 0 4.4528099999999995 -0.86071 0
          2.8999058311940877 0 0 2.9008715367279168 -0.00027058309588111546 0
          4.4528099999999995 -0.86071 0
          <InformationKey name="L2_NORM_RANGE" location="vtkDataArray" length="2">
            <Value index="0">
              2.8999051959
            </Value>
            <Value index="1">
              4.535233026
            </Value>
          </InformationKey>
        </DataArray>
        <DataArray type="Float64" Name="Energy" format="ascii" RangeMin="4.922829510958164" RangeMax="7.585636452999999">
          7.585636452999999 4.924604360693827 4.922829534221427 7.585636452999999 4.9246031267802906 4.922829510958164
          7.585636452999999 4.924603671496864 4.922830713344248 4.922833378467682 4.924582827398657 7.585636452999999
          4.9228306049176735 4.92460746526507 7.585636452999999
        </DataArray>
      </PointData>
      <CellData>
        <DataArray type="UInt8" Name="vtkGhostType" format="ascii" RangeMin="0" RangeMax="1">
          1 1 1 1 0 0
          0 0 0 0 0 0
          0 0 0 0
        </DataArray>
      </CellData>
      <Points>
        <DataArray type="Float32" Name="Points" NumberOfComponents="3" format="ascii" RangeMin="1.024999976158142" RangeMax="3.2335159336633637">
          1.537500023841858 1 0 1.537500023841858 0.5 0
          1.537500023841858 0 0 2.049999952316284 1 0
          2.049999952316284 0.5 0 2.049999952316284 0 0
          2.5625 1 0 2.5625 0.5 0
          2.5625 0 0 1.024999976158142 0 0
          1.024999976158142 0.5 0 1.024999976158142 1 0
          3.075000047683716 0 0 3.075000047683716 0.5 0
          3.075000047683716 1 0
          <InformationKey name="L2_NORM_RANGE" location="vtkDataArray" length="2">
            <Value index="0">
              1.0249999762
            </Value>
            <Value index="1">
              3.2335159337
            </Value>
          </InformationKey>
        </DataArray>
      </Points>
      <Cells>
        <DataArray type="Int64" Name="connectivity" format="ascii" RangeMin="0" RangeMax="14">
          2 1 9 1 10 9
          1 0 10 0 11 10
          5 4 2 4 1 2
          8 7 5 7 4 5
          12 13 8 13 7 8
          4 3 1 3 0 1
          7 6 4 6 3 4
          13 14 7 14 6 7
        </DataArray>
        <DataArray type="Int64" Name="offsets" format="ascii" RangeMin="3" RangeMax="48">
          3 6 9 12 15 18
          21 24 27 30 33 36
          39 42 45 48
        </DataArray>
        <DataArray type="UInt8" Name="types" format="ascii" RangeMin="5" RangeMax="5">
          5 5 5 5 5 5
          5 5 5 5 5 5
          5 5 5 5
        </DataArray>
      </Cells>
    </Piece>
  </UnstructuredGrid>
</VTKFile>
