<?xml version="1.0"?>
<VTKFile type="UnstructuredGrid" version="0.1" byte_order="LittleEndian" header_type="UInt32" compressor="vtkZLibDataCompressor">
  <UnstructuredGrid>
    <Piece NumberOfPoints="15" NumberOfCells="16">
      <PointData>
        <DataArray type="Float64" Name="Velocity" NumberOfComponents="3" format="ascii" RangeMin="2.6677841329462924" RangeMax="2.9000001655155856">
          2.6193 -0.5063 0 2.8999552746839115 -0.00018030338552403567 0
          2.9000000011083795 0 0 2.6193 -0.5063 0
          2.89995524312974 -0.00018018864093149979 0 2.9000000006656035 0 0
          2.6193 -0.5063 0 2.899955265855561 -0.0001802202554769513 0
          2.900000066358089 0 0 2.900000099163678 0 0
          2.899955001639066 -0.00017797404365754659 0 2.6193 -0.5063 0
          2.9000001655155856 0 0 2.8999554573851047 -0.00018034872719845379 0
          2.6193 -0.5063 0
          <InformationKey name="L2_NORM_RANGE" location="vtkDataArray" length="2">
            <Value index="0">
              2.6677841329
            </Value>
            <Value index="1">
              2.9000001655
            </Value>
          </InformationKey>
        </DataArray>
        <DataArray type="Float64" Name="Pressure" format="ascii" RangeMin="0.29199098671113033" RangeMax="0.6247193999999999">
          0.6247193999999999 0.292119368119604 0.291991038323869 0.6247193999999999 0.2921192951087097 0.2919910377535788
          0.6247193999999999 0.2921193201746619 0.29199109016071656 0.2919912463965978 0.2921180107886329 0.6247193999999999
          0.29199098671113033 0.2921194611812338 0.6247193999999999
        </DataArray>
        <DataArray type="Float64" Name="Temperature" format="ascii" RangeMin="0.9999908602707352" RangeMax="1.2585">
          1.2585 1.0001933418410018 0.9999911239800753 1.2585 1.0001932264045654 0.9999911232398156
          1.2585 1.000193255790397 0.9999911881788438 0.999991404230598 1.000191148393317 1.2585
          0.9999908602707352 1.0001933518463666 1.2585
        </DataArray>
        <DataArray type="Float64" Name="Density" format="ascii" RangeMin="0.9999781839417982" RangeMax="1.7">
          1.7 1.0002154114411042 0.9999781851546142 1.7 1.0002152768910961 0.9999781839417982
          1.7 1.0002153333303334 0.9999782984816953 0.9999786174917595 1.0002129574366252 1.7
          0.9999782721030417 1.0002157200781199 1.7
        </DataArray>
        <DataArray type="Float64" Name="Momentum" NumberOfComponents="3" format="ascii" RangeMin="2.8999367340968036" RangeMax="4.535233026008696">
          4.4528099999999995 -0.86071 0 2.900579958228769 -0.00018034222493614735 0
          2.8999367380567365 0 0 4.4528099999999995 -0.86071 0
          2.900579536478799 -0.00018022743138193035 0 2.8999367340968036 0 0
          4.4528099999999995 -0.86071 0 2.9005797228807757 -0.0001802590629047567 0
          2.8999371319535654 0 0 2.8999380898876606 0 0
          2.9005725686225436 -0.0001780119445536697 0 4.4528099999999995 -0.86071 0
          2.8999371546108104 0 0 2.900581036002916 -0.00018038763203997386 0
          4.4528099999999995 -0.86071 0
          <InformationKey name="L2_NORM_RANGE" location="vtkDataArray" length="2">
            <Value index="0">
              2.8999367341
            </Value>
            <Value index="1">
              4.535233026
            </Value>
          </InformationKey>
        </DataArray>
        <DataArray type="Float64" Name="Energy" format="ascii" RangeMin="4.9228862281009125" RangeMax="7.585636452999999">
          7.585636452999999 4.924069605771984 4.922886235887115 7.585636452999999 4.9240687689337905 4.9228862281009125
          7.585636452999999 4.924069133811984 4.922887029109384 4.922888849849992 4.9240551570509075 7.585636452999999
          4.92288695136503 4.92407166232801 7.585636452999999
        </DataArray>
      </PointData>
      <CellData>
        <DataArray type="UInt8" Name="vtkGhostType" format="ascii" RangeMin="0" RangeMax="1">
          1 1 1 1 0 0
          0 0 0 0 0 0
          0 0 0 0
        </DataArray>
      </CellData>
      <Points>
        <DataArray type="Float32" Name="Points" NumberOfComponents="3" format="ascii" RangeMin="1.024999976158142" RangeMax="3.2335159336633637">
          1.537500023841858 1 0 1.537500023841858 0.5 0
          1.537500023841858 0 0 2.049999952316284 1 0
          2.049999952316284 0.5 0 2.049999952316284 0 0
          2.5625 1 0 2.5625 0.5 0
          2.5625 0 0 1.024999976158142 0 0
          1.024999976158142 0.5 0 1.024999976158142 1 0
          3.075000047683716 0 0 3.075000047683716 0.5 0
          3.075000047683716 1 0
          <InformationKey name="L2_NORM_RANGE" location="vtkDataArray" length="2">
            <Value index="0">
              1.0249999762
            </Value>
            <Value index="1">
              3.2335159337
            </Value>
          </InformationKey>
        </DataArray>
      </Points>
      <Cells>
        <DataArray type="Int64" Name="connectivity" format="ascii" RangeMin="0" RangeMax="14">
          2 1 9 1 10 9
          1 0 10 0 11 10
          5 4 2 4 1 2
          8 7 5 7 4 5
          12 13 8 13 7 8
          4 3 1 3 0 1
          7 6 4 6 3 4
          13 14 7 14 6 7
        </DataArray>
        <DataArray type="Int64" Name="offsets" format="ascii" RangeMin="3" RangeMax="48">
          3 6 9 12 15 18
          21 24 27 30 33 36
          39 42 45 48
        </DataArray>
        <DataArray type="UInt8" Name="types" format="ascii" RangeMin="5" RangeMax="5">
          5 5 5 5 5 5
          5 5 5 5 5 5
          5 5 5 5
        </DataArray>
      </Cells>
    </Piece>
  </UnstructuredGrid>
</VTKFile>
