<?xml version="1.0"?>
<VTKFile type="UnstructuredGrid" version="0.1" byte_order="LittleEndian" header_type="UInt32" compressor="vtkZLibDataCompressor">
  <UnstructuredGrid>
    <Piece NumberOfPoints="12" NumberOfCells="12">
      <PointData>
        <DataArray type="Float64" Name="Velocity" NumberOfComponents="3" format="ascii" RangeMin="2.6677841329462924" RangeMax="2.9000028647446268">
          2.6193 -0.5063 0 2.899933191802224 -0.00027049557036618537 0
          2.900000248698786 0 0 2.6193 -0.5063 0
          2.8999346366889056 -0.0002675181859612164 0 2.9000001318711854 0 0
          2.6193 -0.5063 0 2.899954659383943 -0.00022032633670436276 0
          2.9000028637787536 0.00007484698842332556 0 2.900000099947097 0 0
          2.899932904600284 -0.00027030268626455613 0 2.6193 -0.5063 0
          <InformationKey name="L2_NORM_RANGE" location="vtkDataArray" length="2">
            <Value index="0">
              2.6677841329
            </Value>
            <Value index="1">
              2.9000028647
            </Value>
          </InformationKey>
        </DataArray>
        <DataArray type="Float64" Name="Pressure" format="ascii" RangeMin="0.2919550617322344" RangeMax="0.6247193999999999">
          0.6247193999999999 0.29217918609016985 0.29198649361105494 0.6247193999999999 0.29217764862667156 0.2919817621590731
          0.6247193999999999 0.29215015158534174 0.2919550617322344 0.29198664785557804 0.2921789744214366 0.6247193999999999
        </DataArray>
        <DataArray type="Float64" Name="Temperature" format="ascii" RangeMin="0.9999320939390206" RangeMax="1.2585">
          1.2585 1.000289982492697 0.9999863025548293 1.2585 1.000286071817746 0.9999770597579548
          1.2585 1.0002309721579783 0.9999320939390206 0.9999867926323668 1.0002898381285765 1.2585
        </DataArray>
        <DataArray type="Float64" Name="Density" format="ascii" RangeMin="0.9999140020439173" RangeMax="1.7">
          1.7 1.0003235746700458 0.9999674422425513 1.7 1.0003222217114824 0.9999604809761304
          1.7 1.0002831801933008 0.9999140020439173 0.999967480416142 1.0003229943561538 1.7
        </DataArray>
        <DataArray type="Float64" Name="Momentum" NumberOfComponents="3" format="ascii" RangeMin="2.899753470425625" RangeMax="4.535233026008696">
          4.4528099999999995 -0.86071 0 2.9008715367279168 -0.00027058309588111546 0
          2.8999058311940877 0 0 4.4528099999999995 -0.86071 0
          2.9008690585907266 -0.00026760438612894946 0 2.8998855266967523 0 0
          4.4528099999999995 -0.86071 0 2.900775869104951 -0.00022038872875897994 0
          2.8997534694598346 0.00007484055173530222 0 2.899905793150659 0 0
          2.9008695665616946 -0.00027038999250667277 0 4.4528099999999995 -0.86071 0
          <InformationKey name="L2_NORM_RANGE" location="vtkDataArray" length="2">
            <Value index="0">
              2.8997534704
            </Value>
            <Value index="1">
              4.535233026
            </Value>
          </InformationKey>
        </DataArray>
        <DataArray type="Float64" Name="Energy" format="ascii" RangeMin="4.922536186752457" RangeMax="7.585636452999999">
          7.585636452999999 4.92460746526507 4.9228306049176735 7.585636452999999 4.924602186485899 4.922789359813956
          7.585636452999999 4.9244284813486825 4.922536186752457 4.922830713344248 4.924603671496864 7.585636452999999
        </DataArray>
      </PointData>
      <CellData>
        <DataArray type="UInt8" Name="vtkGhostType" format="ascii" RangeMin="0" RangeMax="1">
          1 1 1 1 0 0
          0 0 0 0 0 0
        </DataArray>
      </CellData>
      <Points>
        <DataArray type="Float32" Name="Points" NumberOfComponents="3" format="ascii" RangeMin="2.5625" RangeMax="4.2201894765504395">
          3.075000047683716 1 0 3.075000047683716 0.5 0
          3.075000047683716 0 0 3.5875000953674316 1 0
          3.5875000953674316 0.5 0 3.5875000953674316 0 0
          4.099999904632568 1 0 4.099999904632568 0.5 0
          4.099999904632568 0 0 2.5625 0 0
          2.5625 0.5 0 2.5625 1 0
          <InformationKey name="L2_NORM_RANGE" location="vtkDataArray" length="2">
            <Value index="0">
              2.5625
            </Value>
            <Value index="1">
              4.2201894766
            </Value>
          </InformationKey>
        </DataArray>
      </Points>
      <Cells>
        <DataArray type="Int64" Name="connectivity" format="ascii" RangeMin="0" RangeMax="11">
          2 1 9 1 10 9
          1 0 10 0 11 10
          5 4 2 4 1 2
          8 7 5 7 4 5
          4 3 1 3 0 1
          7 6 4 6 3 4
        </DataArray>
        <DataArray type="Int64" Name="offsets" format="ascii" RangeMin="3" RangeMax="36">
          3 6 9 12 15 18
          21 24 27 30 33 36
        </DataArray>
        <DataArray type="UInt8" Name="types" format="ascii" RangeMin="5" RangeMax="5">
          5 5 5 5 5 5
          5 5 5 5 5 5
        </DataArray>
      </Cells>
    </Piece>
  </UnstructuredGrid>
</VTKFile>
