<?xml version="1.0"?>
<VTKFile type="UnstructuredGrid" version="0.1" byte_order="LittleEndian" header_type="UInt32" compressor="vtkZLibDataCompressor">
  <UnstructuredGrid>
    <Piece NumberOfPoints="44" NumberOfCells="66">
      <PointData>
        <DataArray type="Float64" Name="ale_BC" NumberOfComponents="3" format="ascii" RangeMin="0" RangeMax="0">
          0 0 0 0 0 0
          0 0 0 0 0 0
          0 0 0 0 0 0
          0 0 0 0 0 0
          0 0 0 0 0 0
          0 0 0 0 0 0
          0 0 0 0 0 0
          0 0 0 0 0 0
          0 0 0 0 0 0
          0 0 0 0 0 0
          0 0 0 0 0 0
          0 0 0 0 0 0
          0 0 0 0 0 0
          0 0 0 0 0 0
          0 0 0 0 0 0
          0 0 0 0 0 0
          0 0 0 0 0 0
          0 0 0 0 0 0
          0 0 0 0 0 0
          0 0 0 0 0 0
          0 0 0 0 0 0
          0 0 0 0 0 0
          <InformationKey name="L2_NORM_RANGE" location="vtkDataArray" length="2">
            <Value index="0">
              0
            </Value>
            <Value index="1">
              0
            </Value>
          </InformationKey>
        </DataArray>
        <DataArray type="Float64" Name="ale_FIXNO" NumberOfComponents="3" format="ascii" RangeMin="1" RangeMax="1.4142135623730951">
          1 1 0 0 1 0
          1 0 0 -1 -1 0
          -1 -1 0 0 1 0
          1 0 0 -1 -1 0
          -1 -1 0 -1 -1 0
          -1 -1 0 -1 -1 0
          0 1 0 1 0 0
          -1 -1 0 -1 -1 0
          -1 -1 0 -1 -1 0
          -1 -1 0 -1 -1 0
          0 1 0 1 0 0
          -1 -1 0 -1 -1 0
          -1 -1 0 -1 -1 0
          -1 -1 0 1 1 0
          1 1 0 -1 -1 0
          1 0 0 0 1 0
          -1 -1 0 1 0 0
          0 1 0 -1 -1 0
          -1 -1 0 -1 -1 0
          1 0 0 0 1 0
          -1 -1 0 1 0 0
          0 1 0 1 1 0
          <InformationKey name="L2_NORM_RANGE" location="vtkDataArray" length="2">
            <Value index="0">
              1
            </Value>
            <Value index="1">
              1.4142135624
            </Value>
          </InformationKey>
        </DataArray>
        <DataArray type="Float64" Name="nsi_BC" NumberOfComponents="3" format="ascii" RangeMin="0" RangeMax="0">
          0 0 0 0 0 0
          0 0 0 0 0 0
          0 0 0 0 0 0
          0 0 0 0 0 0
          0 0 0 0 0 0
          0 0 0 0 0 0
          0 0 0 0 0 0
          0 0 0 0 0 0
          0 0 0 0 0 0
          0 0 0 0 0 0
          0 0 0 0 0 0
          0 0 0 0 0 0
          0 0 0 0 0 0
          0 0 0 0 0 0
          0 0 0 0 0 0
          0 0 0 0 0 0
          0 0 0 0 0 0
          0 0 0 0 0 0
          0 0 0 0 0 0
          0 0 0 0 0 0
          0 0 0 0 0 0
          0 0 0 0 0 0
          <InformationKey name="L2_NORM_RANGE" location="vtkDataArray" length="2">
            <Value index="0">
              0
            </Value>
            <Value index="1">
              0
            </Value>
          </InformationKey>
        </DataArray>
        <DataArray type="Float64" Name="nsi_FIXNO" NumberOfComponents="3" format="ascii" RangeMin="1" RangeMax="1.4142135623730951">
          1 1 0 0 1 0
          1 0 0 -1 -1 0
          -1 -1 0 0 1 0
          1 0 0 -1 -1 0
          -1 -1 0 -1 -1 0
          -1 -1 0 -1 -1 0
          0 1 0 1 0 0
          -1 -1 0 -1 -1 0
          -1 -1 0 -1 -1 0
          -1 -1 0 -1 -1 0
          0 1 0 1 0 0
          -1 -1 0 -1 -1 0
          -1 -1 0 -1 -1 0
          -1 -1 0 1 1 0
          1 1 0 -1 -1 0
          1 0 0 0 1 0
          -1 -1 0 1 0 0
          0 1 0 -1 -1 0
          -1 -1 0 -1 -1 0
          1 0 0 0 1 0
          -1 -1 0 1 0 0
          0 1 0 1 1 0
          <InformationKey name="L2_NORM_RANGE" location="vtkDataArray" length="2">
            <Value index="0">
              1
            </Value>
            <Value index="1">
              1.4142135624
            </Value>
          </InformationKey>
        </DataArray>
        <DataArray type="Float64" Name="lev_BC" format="ascii" RangeMin="-0.5" RangeMax="0.5">
          -0.5 -0.3 -0.5 -0.32499 -0.35371 -0.25
          -0.5 -0.198092 -0.109713 -0.357575 -0.207421 -0.006945
          -0.25 -0.5 -0.059263 -0.216878 0.02803 -0.061131
          0.142998 -0.351371 -0.25 -0.5 0.030858 0.192875
          -0.104258 0.199684 0.083861 -0.5 -0.25 0.222426
          -0.048337 -0.280888 0.341722 0.153327 -0.061777 0.146545
          0.227286 0.363955 0.354826 0.155833 0.392298 0.5
          0.37 0.5
        </DataArray>
        <DataArray type="Float64" Name="lev_FIXNO" format="ascii" RangeMin="0" RangeMax="0">
          0 0 0 0 0 0
          0 0 0 0 0 0
          0 0 0 0 0 0
          0 0 0 0 0 0
          0 0 0 0 0 0
          0 0 0 0 0 0
          0 0 0 0 0 0
          0 0
        </DataArray>
        <DataArray type="Float64" Name="Velocity" NumberOfComponents="3" format="ascii" RangeMin="0" RangeMax="7.970519978821096">
          0 0 0 0.88795029438609 0 0
          0 -0.20464548376133454 0 1.1236720892014163 -0.1702539530499253 0
          1.9877732401094212 -0.2967346681505993 0 0.9731583111759919 0 0
          0 -0.2738919058670011 0 2.491476198751742 -0.31676042000220755 0
          1.1013628757634883 -0.24164886368812363 0 2.1054507257448285 -0.3315859527459325 0
          7.948332075327576 -0.5943113267514463 0 0.4220862436377845 -0.284361264599081 0
          0.5305476495878623 0 0 0 -0.2604292051667692 0
          0.2016980161752457 -1.0442568611848455 0 1.5754400208390569 -0.2534178614612614 0
          0.018943199440355666 0.03252281570127968 0 -1.0789138683024193 -0.10363793980496883 0
          -0.07609083154332441 0.09807675992270969 0 0.16937495638515535 -0.1494720882398748 0
          0.6224280597385436 0 0 0 -0.12823386189233363 0
          -0.025974357518211418 -0.25439143165099604 0 0.007676524298294461 0.041946000515583566 0
          -1.6797538180041929 -0.06882123094345079 0 0.0010373953345834972 -0.022372677600866028 0
          0.025001271280451452 0.040604170881824275 0 0 0 0
          0 0 0 -0.0010831258530615662 0.06713612529346381 0
          0 -0.7100828085002604 0 -0.7010142818338132 0 0
          0.009499059687761414 0.029100090014244323 0 0 0.045157191576354665 0
          -2.2151691611770494 0 0 0.08236991567674389 0.10965459397375159 0
          0.029401356662897626 0.08646465182130424 0 0.009203918183421464 0.0649103903037566 0
          0 0.031998866409153955 0 0.24378706753059137 0 0
          0.028218292389249597 0.0412131897830497 0 0 0.05388046700520963 0
          0.006360157586648765 0 0 0 0 0
          <InformationKey name="L2_NORM_RANGE" location="vtkDataArray" length="2">
            <Value index="0">
              0
            </Value>
            <Value index="1">
              7.9705199788
            </Value>
          </InformationKey>
        </DataArray>
        <DataArray type="Float64" Name="Pressure" format="ascii" RangeMin="-4315.91503395253" RangeMax="7788.11440056237">
          -4315.91503395253 -4232.796486401926 -2232.687320351637 -2675.0426593855545 -1251.7762959001739 -3924.361070399157
          -1134.372592453359 -1448.277054875601 -2595.6555743745844 -221.91826312107477 400.69843076720326 -1154.3012503599552
          -3236.0761840737055 65.65757127564056 -1125.354016317631 -30.43787713897625 -369.34636707522253 -112.95644260134114
          -2164.2888381800026 731.6211220146913 -3096.5814276521864 1148.9817773477407 -1399.7165193165044 257.9643060491528
          -104.34942011242887 -1028.9569153695147 2944.906492845486 2731.0025091996677 -2751.4079171410503 2481.9787621438177
          -875.1197016584565 2461.5645238055695 849.4587000774468 -1707.0870229801849 1889.5617034561244 5928.766864729849
          5246.246793137749 2871.365748558427 709.960264219957 7788.11440056237 4956.049590900163 3670.1602558862446
          6445.817583235686 6301.769812254912
        </DataArray>
        <DataArray type="Float64" Name="Proj_residual_U" NumberOfComponents="3" format="ascii" RangeMin="73.66016151263477" RangeMax="572331.5407084018">
          359.80452185816745 391.4996799003485 0 91404.30870881818 214.31323101996728 0
          1106.6851345010332 -18049.651588893303 0 118518.69904231436 -16429.636038527075 0
          235495.9818564079 -28729.719818254045 0 98938.10848786557 371.7124895957032 0
          1158.8994855760002 -23511.55879541643 0 249016.69187620914 -31229.81690613965 0
          110000.24444003888 -24465.417947021095 0 243921.57256045213 -28567.990059258387 0
          571045.3634053314 -38348.21277355666 0 25279.06971524153 -15949.364349581901 0
          54834.942634854284 -1084.4495195366883 0 -1062.0857516530714 -21318.215558222044 0
          12047.537511117942 -58874.89530550622 0 143686.39324848237 -15248.577028695283 0
          851.9433514313657 -280.48958573465427 0 -36590.87157711243 -168.46029728009 0
          -1152.755475808986 1373.187997670335 0 13814.101843301045 -11151.52290036832 0
          16976.390568352934 -361.70162526156093 0 -1262.341817401481 -9761.973612812697 0
          -170.298885790191 -7849.662276493519 0 454.65029688029125 42.38127046351477 0
          -92882.10638369287 -2128.754725592531 0 783.4324520565082 -418.35863960554065 0
          -4715.572637540235 -544.7040908981497 0 -1135.651281726723 1802.7327392870682 0
          8.141324104064893 -73.20886719448686 0 -879.6541947507133 703.0745573049207 0
          107.92350715742488 -6533.8104559945905 0 -68967.09746378548 545.8857279199465 0
          355.4677667164213 -304.1866848418335 0 -815.1204098992592 2372.1133362924024 0
          -116385.29851414442 112.97386252864206 0 -3931.987206417363 1799.8449182528198 0
          405.9662584456425 1681.5577038652214 0 -79.65110341354698 655.6666252301134 0
          -142.57636371182787 -764.9255442819361 0 -10034.104209491805 -1437.6940667945992 0
          933.9688880904906 -93.95805323380553 0 -701.2357009739325 668.914332987586 0
          -3536.313201137694 -4748.76925512487 0 -1510.040626702377 -3295.5313436957367 0
          <InformationKey name="L2_NORM_RANGE" location="vtkDataArray" length="2">
            <Value index="0">
              73.660161513
            </Value>
            <Value index="1">
              572331.54071
            </Value>
          </InformationKey>
        </DataArray>
        <DataArray type="Float64" Name="Proj_residual_P" format="ascii" RangeMin="-7.14068173140584" RangeMax="16.64611696030769">
          6.469140424333512 2.894042095010999 10.73624175707357 5.039344246795097 16.64611696030769 0.8290304206798507
          14.92591883436833 -1.4086498987258762 -1.4806872979522638 15.788275013192566 4.276867896012228 -7.14068173140584
          2.51726978439995 8.311460740634134 -0.6663500576131524 -6.027544840085916 -1.373303599579516 -6.977042086656829
          -3.2620092356952908 -1.7571053875213785 1.593337479218566 0.47181726427168774 -1.2718816525623085 -0.05130180011561399
          -3.6528214054674506 -0.5214635915879109 3.0148566144715385 -2.264246276760859 0.005662122752288345 -0.20671484084178343
          -1.2104057127474352 -6.306703243520706 -0.19525433463340908 -1.3878485393256104 -1.9711302866177973 3.7016080120608303
          -0.13603142108747482 -0.11496508203266526 -0.14320080796415421 5.618440302359562 0.16581303227992522 -0.06032198196177591
          0.0741187883354859 0.1348196079428239
        </DataArray>
        <DataArray type="Float64" Name="ALEdispl" NumberOfComponents="3" format="ascii" RangeMin="0" RangeMax="0">
          0 0 0 0 0 0
          0 0 0 0 0 0
          0 0 0 0 0 0
          0 0 0 0 0 0
          0 0 0 0 0 0
          0 0 0 0 0 0
          0 0 0 0 0 0
          0 0 0 0 0 0
          0 0 0 0 0 0
          0 0 0 0 0 0
          0 0 0 0 0 0
          0 0 0 0 0 0
          0 0 0 0 0 0
          0 0 0 0 0 0
          0 0 0 0 0 0
          0 0 0 0 0 0
          0 0 0 0 0 0
          0 0 0 0 0 0
          0 0 0 0 0 0
          0 0 0 0 0 0
          0 0 0 0 0 0
          0 0 0 0 0 0
          <InformationKey name="L2_NORM_RANGE" location="vtkDataArray" length="2">
            <Value index="0">
              0
            </Value>
            <Value index="1">
              0
            </Value>
          </InformationKey>
        </DataArray>
        <DataArray type="Float64" Name="ALEveloc" NumberOfComponents="3" format="ascii" RangeMin="0" RangeMax="0">
          0 0 0 0 0 0
          0 0 0 0 0 0
          0 0 0 0 0 0
          0 0 0 0 0 0
          0 0 0 0 0 0
          0 0 0 0 0 0
          0 0 0 0 0 0
          0 0 0 0 0 0
          0 0 0 0 0 0
          0 0 0 0 0 0
          0 0 0 0 0 0
          0 0 0 0 0 0
          0 0 0 0 0 0
          0 0 0 0 0 0
          0 0 0 0 0 0
          0 0 0 0 0 0
          0 0 0 0 0 0
          0 0 0 0 0 0
          0 0 0 0 0 0
          0 0 0 0 0 0
          0 0 0 0 0 0
          0 0 0 0 0 0
          <InformationKey name="L2_NORM_RANGE" location="vtkDataArray" length="2">
            <Value index="0">
              0
            </Value>
            <Value index="1">
              0
            </Value>
          </InformationKey>
        </DataArray>
        <DataArray type="Float64" Name="LEVEL" format="ascii" RangeMin="-0.5450341079178321" RangeMax="0.5537389573464297">
          -0.5450341079178321 -0.44541508835268323 -0.410533745585607 -0.3180352369511201 -0.3157331660490486 -0.34338493804669007
          -0.4999559897900364 -0.1606935158658753 -0.22281535011671766 -0.37830884470895393 -0.27174055367618705 -0.012717121200686235
          -0.2373314203299416 -0.5018618109332891 -0.06767460733978269 -0.2318240806859409 0.013759980160958168 -0.05417858081330507
          0.14421407508611409 -0.3536263046696539 -0.24883901516351123 -0.49929368121027123 0.027199732767962462 0.2637695960693918
          -0.0862444178344429 0.2846510130718782 0.07954593705339802 -0.500601830216989 -0.2501288310720121 0.22398487855878824
          -0.05439086713748673 -0.2718778224433613 0.4114135483705534 0.15460535469617762 -0.043031140995971176 0.1454609451115718
          0.22812459876352292 0.3632989913934171 0.5537389573464297 0.15308171489092834 0.39141360509156975 0.5004289300008421
          0.3701195897560189 0.5002177653738498
        </DataArray>
      </PointData>
      <CellData>
        <DataArray type="UInt8" Name="vtkGhostType" format="ascii" RangeMin="0" RangeMax="0">
          0 0 0 0 0 0
          0 0 0 0 0 0
          0 0 0 0 0 0
          0 0 0 0 0 0
          0 0 0 0 0 0
          0 0 0 0 0 0
          0 0 0 0 0 0
          0 0 0 0 0 0
          0 0 0 0 0 0
          0 0 0 0 0 0
          0 0 0 0 0 0
        </DataArray>
        <DataArray type="Float64" Name="Residual_U" NumberOfComponents="3" format="ascii" RangeMin="224.23415958824728" RangeMax="568445.3759696033">
          -2080.2365825035045 326.2139028885099 0 -354.062298725604 -5645.057397187356 0
          -70411.21108898932 165.71840812467315 0 81947.70845307072 -22984.76080888712 0
          155980.78123522113 -24071.22250710259 0 81483.22764252548 -25515.082806960392 0
          81685.89409289054 -18953.69680201268 0 566744.8218155266 -43936.91393931432 0
          464022.86643167236 -29469.71309582807 0 4158.616174607827 -13561.15301974295 0
          4737.041994734738 -7498.588045589095 0 127246.91381395575 -18634.594477375693 0
          -4053.7530948067742 -7734.126066290901 0 -33873.43663733668 -4654.337409494645 0
          201843.84169283084 -14675.103801068408 0 -18524.57388328667 -3085.961912793221 0
          -125403.12820215872 1780.0095178560275 0 -145250.64392953968 -3405.83022718737 0
          -106213.76181552286 -9463.101814165284 0 -73178.35211340987 -6617.999223028011 0
          4639.115061895863 -3115.0411386842925 0 -100769.32237248932 -5415.001235018895 0
          46.730556750713845 -1540.6717725453543 0 -855.6330188436993 -383.4298800128083 0
          -585.2123468871589 1662.0951217219513 0 956.931990867806 -213.83681242193012 0
          204.03615873873306 -93.00647425523707 0 -782.213711159754 298.91320915018696 0
          -321.41187512686423 -445.84434827874543 0 -373.6765752805319 61.33747958165338 0
          556.2874632399862 -957.912516142228 0 -916.1928704627139 -112.47903292182741 0
          2144.4252131215358 -1190.4425753763157 0 758.6935830387155 496.8984648735661 0
          88.60714117572329 1358.9236253650224 0 254.93229571227596 -140.55683360141984 0
          -329.5334277496443 -117.60006121586991 0 126.19590102642678 -462.8517856752578 0
          4084.9297068369924 2035.2959997332391 0 -2633.532374997302 689.6911185756489 0
          -3640.6802010492784 -99.33935016234682 0 12695.174185214282 -56588.034686462066 0
          29065.276552170013 -21074.591928162055 0 1025.1747441212315 -418.91140583585934 0
          3776.6877662693114 -55976.02797468465 0 18360.132190673645 -49326.949432049645 0
          59942.31143839637 -48896.28010834605 0 35003.7501557173 -12030.612853676725 0
          62509.45325417636 -47280.98171902017 0 119484.17910271697 -25603.760315852134 0
          -63012.9037009377 -7602.649934247096 0 -15394.746549916737 4563.868859741695 0
          162628.62101107635 -23657.065039657995 0 314276.7975734409 -38787.9080968153 0
          113364.14658039113 -20460.78507571885 0 487286.64886877703 -43814.88849988222 0
          199759.16234556702 -25286.157254721784 0 105528.93152874146 -14051.227746486107 0
          70564.1411690496 -5283.027107130996 0 40171.881771310414 -12302.958969135889 0
          2078.7341210053096 -11515.320719685038 0 88431.31222720313 -7809.393792737594 0
          100785.09382302599 -7834.6048850170655 0 45440.097134784315 -37881.093245152246 0
          421.01563643160034 -39677.37705818597 0 4756.110726741628 -46670.22373865292 0
          <InformationKey name="L2_NORM_RANGE" location="vtkDataArray" length="2">
            <Value index="0">
              224.23415959
            </Value>
            <Value index="1">
              568445.37597
            </Value>
          </InformationKey>
        </DataArray>
        <DataArray type="Float64" Name="Residual_P" format="ascii" RangeMin="-35.41980682229342" RangeMax="39.694277928736">
          -0.2800604512836078 -1.1316934309490871 8.329735984987579 15.13799350822961 12.994020512460335 14.713844160507048
          9.812009571654578 39.694277928736 20.80827098258497 0.4616596197021956 0.4819749088411801 1.0855221098952825
          -6.1712883452735845 -18.451666919961724 -25.419874014692486 -3.8531604236913166 10.942451803139488 -7.267806961405986
          7.7960887933694885 -7.8330205540929345 -0.1584947754632392 7.792532872748053 0.3091616916270584 0.011760451844836484
          0.41261455926870716 0.03664226060780393 -0.17796647103881247 0.10051877855586645 -0.09817844327114822 -0.2022578040411161
          -0.31898930857193625 -0.15543745620625846 -0.2617955979582157 -0.312679523454223 0.005286907705904932 -0.3837992773894757
          -0.2044648197277094 0.5634986018679291 -0.9197889018218741 0.12942690395561807 -1.3220969304373584 -6.0083608499261025
          -3.7554805984089734 -0.10483758962011226 0.6394791082843173 -8.259811760416785 -5.316327221420166 -35.41980682229342
          1.402284714147374 -10.830126018550455 9.860299211892652 -31.15545412034424 1.8269109982602476 -14.753372696073065
          8.907152702496361 15.676456328747538 6.029493853635378 1.1545201546431236 5.45599701413291 7.350826887581123
          -2.2063756400464833 -0.4905162752652288 2.1485771166249297 5.934254130763291 -3.6203322398869124 3.645845370721232
        </DataArray>
      </CellData>
      <Points>
        <DataArray type="Float32" Name="Points" NumberOfComponents="3" format="ascii" RangeMin="0" RangeMax="1.4142135623730951">
          0 1 0 0.20000000298023224 1 0
          0 0.7799999713897705 0 0.17500990629196167 0.8324676752090454 0
          0.14628949761390686 0.6488438844680786 0 0.4000000059604645 1 0
          0 0.5849999785423279 0 0.30190789699554443 0.7062488794326782 0
          0.4018622040748596 0.8597133755683899 0 0.14242489635944366 0.45817598700523376 0
          0.29257911443710327 0.5176876783370972 0 0.49305540323257446 0.6697210073471069 0
          0.6000000238418579 1 0 0 0.38999998569488525 0
          0.6244276165962219 0.8092629909515381 0 0.2831222116947174 0.36456531286239624 0
          0.5280297994613647 0.49493080377578735 0 0.43886861205101013 0.3865315914154053 0
          0.659912109375 0.6070019006729126 0 0.14862869679927826 0.22861619293689728 0
          0.800000011920929 1 0 0 0.19499999284744263 0
          0.791735827922821 0.7191417813301086 0 0.6928746104240417 0.44221389293670654 0
          0.39574238657951355 0.1925719976425171 0 0.7972490191459656 0.5503162145614624 0
          0.5838605761528015 0.2565388083457947 0 0 0 0
          1 1 0 0.7224256992340088 0.28607040643692017 0
          1 0.7983365058898926 0 0.2191116064786911 0 0
          0.841722309589386 0.3865504860877991 0 1 0.5966730117797852 0
          0.4382232129573822 0 0 0.6465445160865784 0.11541219800710678 0
          0.7272865176200867 0.12795010209083557 0 0.8639553785324097 0.2512752115726471 0
          1 0.3951736092567444 0 0.6558331847190857 0 0
          0.8922978043556213 0.11509300023317337 0 1 0.19681400060653687 0
          0.8700000047683716 0 0 1 0 0
          <InformationKey name="L2_NORM_RANGE" location="vtkDataArray" length="2">
            <Value index="0">
              0
            </Value>
            <Value index="1">
              1.4142135624
            </Value>
          </InformationKey>
        </DataArray>
      </Points>
      <Cells>
        <DataArray type="Int64" Name="connectivity" format="ascii" RangeMin="0" RangeMax="43">
          42 36 35 35 36 26
          26 17 24 2 6 9
          4 2 9 9 6 13
          9 13 19 4 9 10
          10 9 15 19 13 21
          19 21 27 9 19 15
          15 19 24 15 24 17
          15 17 10 19 27 31
          39 24 34 34 24 31
          24 39 35 24 19 31
          42 35 39 35 26 24
          42 43 40 40 43 41
          42 40 36 40 41 37
          37 41 38 40 37 36
          36 37 29 29 37 32
          32 37 38 29 32 23
          36 29 26 26 29 23
          32 38 33 23 32 25
          25 32 33 23 25 18
          18 25 22 23 18 16
          22 25 33 18 22 14
          16 18 11 23 16 26
          14 22 20 18 14 11
          11 14 8 16 11 10
          8 14 12 11 8 7
          17 26 16 17 16 10
          7 8 3 11 7 10
          2 4 3 4 10 7
          4 7 3 3 8 1
          3 1 0 2 3 0
          28 20 22 12 5 8
          8 5 1 20 12 14
          33 30 22 22 30 28
        </DataArray>
        <DataArray type="Int64" Name="offsets" format="ascii" RangeMin="3" RangeMax="198">
          3 6 9 12 15 18
          21 24 27 30 33 36
          39 42 45 48 51 54
          57 60 63 66 69 72
          75 78 81 84 87 90
          93 96 99 102 105 108
          111 114 117 120 123 126
          129 132 135 138 141 144
          147 150 153 156 159 162
          165 168 171 174 177 180
          183 186 189 192 195 198
        </DataArray>
        <DataArray type="UInt8" Name="types" format="ascii" RangeMin="5" RangeMax="5">
          5 5 5 5 5 5
          5 5 5 5 5 5
          5 5 5 5 5 5
          5 5 5 5 5 5
          5 5 5 5 5 5
          5 5 5 5 5 5
          5 5 5 5 5 5
          5 5 5 5 5 5
          5 5 5 5 5 5
          5 5 5 5 5 5
          5 5 5 5 5 5
        </DataArray>
      </Cells>
    </Piece>
  </UnstructuredGrid>
</VTKFile>
