<?xml version="1.0"?>
<VTKFile type="UnstructuredGrid" version="0.1" byte_order="LittleEndian" header_type="UInt32" compressor="vtkZLibDataCompressor">
  <UnstructuredGrid>
    <Piece NumberOfPoints="25" NumberOfCells="15">
      <PointData>
        <DataArray type="Float64" Name="Velocity" NumberOfComponents="3" format="ascii" RangeMin="0" RangeMax="0.2725417071790379">
          0 0 0 6.989796014876472e-17 -1.9768283498170857e-17 0
          0 0 0 -0.21704855723185437 0.16482993039989702 0
          0.015618951321077088 -0.21181897975229208 0 0 0 0
          0 0 0 -2.4144800095432813e-18 -5.341356329856099e-17 0
          -0.15140014342222147 -0.12101692716231127 0 5.9475112304150254e-18 4.1884059988787817e-19 0
          0 0 0 -1.5968009184695308e-17 -4.560839257216554e-17 0
          0 0 0 0 0 0
          -0.20101249808817906 -0.024927473361783976 0 -0.08672027277018145 0.1237900687873469 0
          -0.1278924505669726 -0.041628139444476304 0 -0.06098788021507129 -0.24847702671248778 0
          0.11346605443216909 0.08813250982316624 0 0.1123970009066359 -0.10993498201782867 0
          2.4453406996171822e-17 1.6591832889491897e-16 0 -7.329227219899187e-17 -1.4395562914699415e-17 0
          0 0 0 5.468951245694715e-18 9.907659156314077e-17 0
          0 0 0
          <InformationKey name="L2_NORM_RANGE" location="vtkDataArray" length="2">
            <Value index="0">
              0
            </Value>
            <Value index="1">
              0.27254170718
            </Value>
          </InformationKey>
        </DataArray>
        <DataArray type="Float64" Name="Pressure" format="ascii" RangeMin="70.97553894969568" RangeMax="73.23358187894691">
          71.23866635862197 70.97553894969568 71.19822297639034 71.11775427140894 71.38560054890581 71.35237760706765
          71.87304893896061 71.66029126005509 72.32159992159224 72.89380473635926 72.95530671804751 72.49967361867334
          73.23358187894691 71.47420301266601 72.07458002656249 71.17393507438015 71.85776622841404 72.07101318842295
          71.36479068096921 71.31475965174408 71.97242725899153 71.42315676889184 71.4293217193366 71.08749249472919
          71.24468221588663
        </DataArray>
        <DataArray type="Float64" Name="Temperature" format="ascii" RangeMin="240.05698479824937" RangeMax="960.4962157883402">
          959.289721761487 781.2297176322481 960.4962157883402 385.6473196977475 672.7575164615666 959.5964910494622
          242.21633543669785 240.47853325728298 415.67348754908625 313.0806909113118 275.6605319170841 240.5568543695789
          240.05698479824937 959.4983782228119 392.3438566321822 487.36651538669173 540.6421847475269 550.7659950231266
          608.3663332980158 634.7063138966707 240.64712867025207 847.3963881063777 959.8497539947851 705.8861126386338
          240.2314444276987
        </DataArray>
        <DataArray type="Float64" Name="Density" format="ascii" RangeMin="0.31469780347658144" RangeMax="1.2591429056321446">
          0.31509359737653186 0.3869105879283081 0.31469780347658144 0.7837887985143042 0.44929419881617505 0.3149928664553433
          1.247917688174071 1.2569356826239917 0.7271718269509915 0.9654573345814671 1.096515512228199 1.256526446308504
          1.2591429056321446 0.3150250758276612 0.7704110673498582 0.6202027423166977 0.5590870595814008 0.5488102970908129
          0.49684874525772044 0.4762297817717436 1.2560550837502027 0.3566997140873043 0.31490975342564026 0.4282079558503783
          1.2582284974235787
        </DataArray>
      </PointData>
      <CellData>
        <DataArray type="UInt8" Name="vtkGhostType" format="ascii" RangeMin="0" RangeMax="1">
          1 1 1 1 1 1
          1 1 1 1 1 1
          1 0 1
        </DataArray>
      </CellData>
      <Points>
        <DataArray type="Float32" Name="Points" NumberOfComponents="3" format="ascii" RangeMin="0" RangeMax="1.4142135623730951">
          0 0.75 0 0.5 1 0
          0 0.5 0 0.25 0.25 0
          0.75 0.75 0 0 0 0
          0.25 0 0 1 0.75 0
          0.75 0.25 0 0.5 0 0
          0.75 0 0 1 0.25 0
          1 0 0 0 0.25 0
          0.5 0.25 0 0.25 0.5 0
          0.5 0.5 0 0.75 0.5 0
          0.25 0.75 0 0.5 0.75 0
          1 0.5 0 0.25 1 0
          0 1 0 0.75 1 0
          1 1 0
          <InformationKey name="L2_NORM_RANGE" location="vtkDataArray" length="2">
            <Value index="0">
              0
            </Value>
            <Value index="1">
              1.4142135624
            </Value>
          </InformationKey>
        </DataArray>
      </Points>
      <Cells>
        <DataArray type="Int64" Name="connectivity" format="ascii" RangeMin="0" RangeMax="24">
          6 3 13 5 9 14
          3 6 3 15 2 13
          14 16 15 3 8 17
          16 14 15 18 0 2
          17 4 19 16 20 7
          4 17 18 21 22 0
          19 1 21 18 4 23
          1 19 7 24 23 4
          10 8 14 9 12 11
          8 10 11 20 17 8
        </DataArray>
        <DataArray type="Int64" Name="offsets" format="ascii" RangeMin="4" RangeMax="60">
          4 8 12 16 20 24
          28 32 36 40 44 48
          52 56 60
        </DataArray>
        <DataArray type="UInt8" Name="types" format="ascii" RangeMin="9" RangeMax="9">
          9 9 9 9 9 9
          9 9 9 9 9 9
          9 9 9
        </DataArray>
      </Cells>
    </Piece>
  </UnstructuredGrid>
</VTKFile>
