<?xml version="1.0"?>
<VTKFile type="UnstructuredGrid" version="0.1" byte_order="LittleEndian" header_type="UInt32" compressor="vtkZLibDataCompressor">
  <UnstructuredGrid>
    <Piece NumberOfPoints="25" NumberOfCells="15">
      <PointData>
        <DataArray type="Float64" Name="Velocity" NumberOfComponents="3" format="ascii" RangeMin="0" RangeMax="0.39335527485170146">
          0 0 0 1.168993275673927e-16 8.946423435796026e-18 0
          0 0 0 -0.33261009486433757 -0.20999737390737522 0
          0.3046079407783023 0.12532239949284513 0 0 0 0
          0 0 0 4.8954228629457754e-17 4.5463141489669444e-17 0
          -0.23088637307821003 -0.21663238361541362 0 9.678415939985575e-18 1.456901750470067e-19 0
          0 0 0 -2.2069508033193474e-17 -6.30781891788211e-17 0
          0 0 0 0 0 0
          -0.3322346743837456 0.026632093234313703 0 -0.15052160657833868 0.0067605000332428 0
          -0.12177164485817507 0.03544274049063527 0 0.024730803119759795 -0.1365252771726132 0
          0.13122262341416294 0.2306787781776962 0 0.23963092015631748 0.015055954980940547 0
          -1.0358127606649349e-17 9.071668954404343e-17 0 -1.022691033416495e-16 -1.1221366897303726e-16 0
          0 0 0 -1.952553705957997e-16 -7.667967586608541e-17 0
          0 0 0
          <InformationKey name="L2_NORM_RANGE" location="vtkDataArray" length="2">
            <Value index="0">
              0
            </Value>
            <Value index="1">
              0.39335527485
            </Value>
          </InformationKey>
        </DataArray>
        <DataArray type="Float64" Name="Pressure" format="ascii" RangeMin="-36.40985142726383" RangeMax="-23.527859754908743">
          -26.66443905241293 -31.014954530410726 -24.515866046527755 -24.171285168287845 -31.864625878447928 -23.69102177088083
          -23.533029913727702 -33.55356052959992 -26.961834494161682 -25.463592900267106 -25.764006785833327 -27.349672378958108
          -25.84876253493572 -23.527859754908743 -25.77773272150528 -25.1514629175429 -27.181515494712666 -28.80408811446128
          -27.370038521428175 -29.165844008553428 -29.558509221451565 -29.823575545485106 -28.383976925286557 -33.402862117322016
          -36.40985142726383
        </DataArray>
        <DataArray type="Float64" Name="Temperature" format="ascii" RangeMin="240.00000000072393" RangeMax="960.0000000028977">
          960.0000000028972 784.5373615030653 960.000000002896 442.6890566861682 661.0407798114712 960.0000000028977
          288.25032432732144 240.00000000072416 518.2756976257778 340.11085336806093 286.29576342750397 240.00000000072419
          240.00000000072433 960.0000000028962 465.9515922990458 516.9152334210399 572.1633090776389 635.1645364830572
          615.2698300186429 633.6983545498421 240.00000000072393 866.0986536304744 960.0000000028961 832.7094610013905
          240.0000000007243
        </DataArray>
        <DataArray type="Float64" Name="Density" format="ascii" RangeMin="0.33891295815566846" RangeMax="1.3556518326226765">
          0.33891295815566863 0.41471121172239106 0.3389129581556691 0.7349547835357402 0.49218815202779986 0.33891295815566846
          1.128728790122597 1.3556518326226752 0.6277671156893568 0.9566188100393543 1.1364346993308225 1.3556518326226752
          1.3556518326226743 0.33891295815566896 0.6982623199656572 0.6294193298911992 0.5686426142125709 0.5122396184647544
          0.5288028503210784 0.5134247824606488 1.3556518326226765 0.3756574825126548 0.338912958155669 0.3907202392526683
          1.3556518326226745
        </DataArray>
      </PointData>
      <CellData>
        <DataArray type="UInt8" Name="vtkGhostType" format="ascii" RangeMin="0" RangeMax="1">
          1 1 1 1 1 1
          1 1 1 1 1 1
          1 0 1
        </DataArray>
      </CellData>
      <Points>
        <DataArray type="Float32" Name="Points" NumberOfComponents="3" format="ascii" RangeMin="0" RangeMax="1.4142135623730951">
          0 0.75 0 0.5 1 0
          0 0.5 0 0.25 0.25 0
          0.75 0.75 0 0 0 0
          0.25 0 0 1 0.75 0
          0.75 0.25 0 0.5 0 0
          0.75 0 0 1 0.25 0
          1 0 0 0 0.25 0
          0.5 0.25 0 0.25 0.5 0
          0.5 0.5 0 0.75 0.5 0
          0.25 0.75 0 0.5 0.75 0
          1 0.5 0 0.25 1 0
          0 1 0 0.75 1 0
          1 1 0
          <InformationKey name="L2_NORM_RANGE" location="vtkDataArray" length="2">
            <Value index="0">
              0
            </Value>
            <Value index="1">
              1.4142135624
            </Value>
          </InformationKey>
        </DataArray>
      </Points>
      <Cells>
        <DataArray type="Int64" Name="connectivity" format="ascii" RangeMin="0" RangeMax="24">
          6 3 13 5 9 14
          3 6 3 15 2 13
          14 16 15 3 8 17
          16 14 15 18 0 2
          17 4 19 16 20 7
          4 17 18 21 22 0
          19 1 21 18 4 23
          1 19 7 24 23 4
          10 8 14 9 12 11
          8 10 11 20 17 8
        </DataArray>
        <DataArray type="Int64" Name="offsets" format="ascii" RangeMin="4" RangeMax="60">
          4 8 12 16 20 24
          28 32 36 40 44 48
          52 56 60
        </DataArray>
        <DataArray type="UInt8" Name="types" format="ascii" RangeMin="9" RangeMax="9">
          9 9 9 9 9 9
          9 9 9 9 9 9
          9 9 9
        </DataArray>
      </Cells>
    </Piece>
  </UnstructuredGrid>
</VTKFile>
