<?xml version="1.0"?>
<VTKFile type="UnstructuredGrid" version="0.1" byte_order="LittleEndian" header_type="UInt32" compressor="vtkZLibDataCompressor">
  <UnstructuredGrid>
    <Piece NumberOfPoints="57" NumberOfCells="146">
      <PointData>
        <DataArray type="Float64" Name="tem_BC" format="ascii" RangeMin="0" RangeMax="0">
          0 0 0 0 0 0
          0 0 0 0 0 0
          0 0 0 0 0 0
          0 0 0 0 0 0
          0 0 0 0 0 0
          0 0 0 0 0 0
          0 0 0 0 0 0
          0 0 0 0 0 0
          0 0 0 0 0 0
          0 0 0
        </DataArray>
        <DataArray type="Float64" Name="tem_FIXNO" format="ascii" RangeMin="-1" RangeMax="1">
          1 -1 -1 1 -1 -1
          1 1 1 1 -1 -1
          1 -1 -1 1 1 1
          1 1 1 1 1 1
          1 1 1 1 -1 -1
          1 -1 -1 1 1 1
          -1 -1 1 -1 -1 1
          1 1 1 1 -1 -1
          1 -1 -1 1 1 1
          -1 -1 1
        </DataArray>
      </PointData>
      <CellData>
        <DataArray type="UInt8" Name="vtkGhostType" format="ascii" RangeMin="0" RangeMax="1">
          0 0 0 0 0 0
          0 0 0 0 0 0
          0 0 0 0 0 0
          0 0 0 0 0 0
          0 0 0 0 0 0
          0 0 0 0 0 0
          0 0 0 0 0 0
          0 0 0 0 0 0
          1 1 1 1 1 1
          1 1 1 1 1 1
          1 1 1 1 1 1
          1 1 1 1 1 1
          0 0 0 0 0 0
          0 0 0 0 0 0
          0 0 0 0 0 0
          0 0 0 0 0 0
          1 1 1 1 1 1
          1 1 1 1 1 1
          1 1 1 1 1 1
          1 1 1 1 1 1
          1 1 1 1 1 1
          1 1 1 1 1 1
          1 1 1 1 1 1
          1 1 1 1 1 1
          1 1
        </DataArray>
      </CellData>
      <Points>
        <DataArray type="Float32" Name="Points" NumberOfComponents="3" format="ascii" RangeMin="0.8246211482535318" RangeMax="1.7320508075688772">
          0.6000000238418579 1 0.6000000238418579 0.6000000238418579 0.800000011920929 0.6000000238418579
          0.6000000238418579 0.6000000238418579 0.6000000238418579 0.800000011920929 1 0.6000000238418579
          0.800000011920929 0.800000011920929 0.6000000238418579 0.800000011920929 0.6000000238418579 0.6000000238418579
          1 1 0.6000000238418579 1 0.800000011920929 0.6000000238418579
          1 0.6000000238418579 0.6000000238418579 0.6000000238418579 1 0.800000011920929
          0.6000000238418579 0.800000011920929 0.800000011920929 0.6000000238418579 0.6000000238418579 0.800000011920929
          0.800000011920929 1 0.800000011920929 0.800000011920929 0.800000011920929 0.800000011920929
          0.800000011920929 0.6000000238418579 0.800000011920929 1 1 0.800000011920929
          1 0.800000011920929 0.800000011920929 1 0.6000000238418579 0.800000011920929
          0.6000000238418579 1 1 0.6000000238418579 0.800000011920929 1
          0.6000000238418579 0.6000000238418579 1 0.800000011920929 1 1
          0.800000011920929 0.800000011920929 1 0.800000011920929 0.6000000238418579 1
          1 1 1 1 0.800000011920929 1
          1 0.6000000238418579 1 0.6000000238418579 1 0.4000000059604645
          0.6000000238418579 0.800000011920929 0.4000000059604645 0.6000000238418579 0.6000000238418579 0.4000000059604645
          0.800000011920929 1 0.4000000059604645 0.800000011920929 0.800000011920929 0.4000000059604645
          0.800000011920929 0.6000000238418579 0.4000000059604645 1 1 0.4000000059604645
          1 0.800000011920929 0.4000000059604645 1 0.6000000238418579 0.4000000059604645
          0.6000000238418579 0.4000000059604645 0.6000000238418579 0.800000011920929 0.4000000059604645 0.6000000238418579
          1 0.4000000059604645 0.6000000238418579 0.6000000238418579 0.4000000059604645 0.800000011920929
          0.800000011920929 0.4000000059604645 0.800000011920929 1 0.4000000059604645 0.800000011920929
          0.6000000238418579 0.4000000059604645 1 0.800000011920929 0.4000000059604645 1
          1 0.4000000059604645 1 0.4000000059604645 1 0.6000000238418579
          0.4000000059604645 0.800000011920929 0.6000000238418579 0.4000000059604645 0.6000000238418579 0.6000000238418579
          0.4000000059604645 1 0.800000011920929 0.4000000059604645 0.800000011920929 0.800000011920929
          0.4000000059604645 0.6000000238418579 0.800000011920929 0.4000000059604645 1 1
          0.4000000059604645 0.800000011920929 1 0.4000000059604645 0.6000000238418579 1
          0.4000000059604645 0.4000000059604645 0.6000000238418579 0.4000000059604645 0.4000000059604645 0.800000011920929
          0.4000000059604645 0.4000000059604645 1
          <InformationKey name="L2_NORM_RANGE" location="vtkDataArray" length="2">
            <Value index="0">
              0.82462114825
            </Value>
            <Value index="1">
              1.7320508076
            </Value>
          </InformationKey>
        </DataArray>
      </Points>
      <Cells>
        <DataArray type="Int64" Name="connectivity" format="ascii" RangeMin="0" RangeMax="56">
          0 3 9 10 3 12
          9 10 0 1 3 10
          13 12 3 10 1 4
          3 10 3 4 13 10
          1 4 10 11 4 13
          10 11 1 2 4 11
          14 13 4 11 2 5
          4 11 4 5 14 11
          3 6 12 13 6 15
          12 13 3 4 6 13
          16 15 6 13 4 7
          6 13 6 7 16 13
          4 7 13 14 7 16
          13 14 4 5 7 14
          17 16 7 14 5 8
          7 14 7 8 17 14
          9 12 18 19 12 21
          18 19 9 10 12 19
          22 21 12 19 10 13
          12 19 12 13 22 19
          10 13 19 20 13 22
          19 20 10 11 13 20
          23 22 13 20 11 14
          13 20 13 14 23 20
          12 15 21 22 15 24
          21 22 12 13 15 22
          25 24 15 22 13 16
          15 22 15 16 25 22
          13 16 22 23 16 25
          22 23 13 14 16 23
          26 25 16 23 14 17
          16 23 16 17 26 23
          27 30 0 1 30 3
          0 1 27 28 30 1
          4 3 30 1 28 31
          30 1 30 31 4 1
          28 31 1 2 31 4
          1 2 28 29 31 2
          5 4 31 2 29 32
          31 2 31 32 5 2
          30 33 3 4 33 6
          3 4 30 31 33 4
          7 6 33 4 31 34
          33 4 33 34 7 4
          31 34 4 5 34 7
          4 5 31 32 34 5
          8 7 34 5 32 35
          34 5 34 35 8 5
          2 5 11 39 5 14
          11 39 2 36 5 39
          40 14 5 39 36 37
          5 39 5 37 40 39
          5 8 14 40 8 17
          14 40 5 37 8 40
          41 17 8 40 37 38
          8 40 8 38 41 40
          11 14 20 42 14 23
          20 42 11 39 14 42
          43 23 14 42 39 40
          14 42 14 40 43 42
          14 17 23 43 17 26
          23 43 14 40 17 43
          44 26 17 43 40 41
          17 43 17 41 44 43
          45 0 48 49 0 9
          48 49 45 46 0 49
          10 9 0 49 46 1
          0 49 0 1 10 49
          46 1 49 50 1 10
          49 50 46 47 1 50
          11 10 1 50 47 2
          1 50 1 2 11 50
          48 9 51 52 9 18
          51 52 48 49 9 52
          19 18 9 52 49 10
          9 52 9 10 19 52
          49 10 52 53 10 19
          52 53 49 50 10 53
          20 19 10 53 50 11
          10 53 10 11 20 53
          47 2 50 55 2 11
          50 55 47 54 2 55
          39 11 2 55 54 36
          2 55 2 36 39 55
          50 11 53 56 11 20
          53 56 50 55 11 56
          42 20 11 56 55 39
          11 56 11 39 42 56
          27 0 45 46 1 0
          27 46 27 28 1 46
          28 1 46 47 2 1
          28 47 28 29 2 47
          29 32 2 36 32 5
          2 36 37 5 32 36
          32 35 5 37 35 8
          5 37 38 8 35 37
          29 2 47 54 36 2
          29 54
        </DataArray>
        <DataArray type="Int64" Name="offsets" format="ascii" RangeMin="4" RangeMax="584">
          4 8 12 16 20 24
          28 32 36 40 44 48
          52 56 60 64 68 72
          76 80 84 88 92 96
          100 104 108 112 116 120
          124 128 132 136 140 144
          148 152 156 160 164 168
          172 176 180 184 188 192
          196 200 204 208 212 216
          220 224 228 232 236 240
          244 248 252 256 260 264
          268 272 276 280 284 288
          292 296 300 304 308 312
          316 320 324 328 332 336
          340 344 348 352 356 360
          364 368 372 376 380 384
          388 392 396 400 404 408
          412 416 420 424 428 432
          436 440 444 448 452 456
          460 464 468 472 476 480
          484 488 492 496 500 504
          508 512 516 520 524 528
          532 536 540 544 548 552
          556 560 564 568 572 576
          580 584
        </DataArray>
        <DataArray type="UInt8" Name="types" format="ascii" RangeMin="10" RangeMax="10">
          10 10 10 10 10 10
          10 10 10 10 10 10
          10 10 10 10 10 10
          10 10 10 10 10 10
          10 10 10 10 10 10
          10 10 10 10 10 10
          10 10 10 10 10 10
          10 10 10 10 10 10
          10 10 10 10 10 10
          10 10 10 10 10 10
          10 10 10 10 10 10
          10 10 10 10 10 10
          10 10 10 10 10 10
          10 10 10 10 10 10
          10 10 10 10 10 10
          10 10 10 10 10 10
          10 10 10 10 10 10
          10 10 10 10 10 10
          10 10 10 10 10 10
          10 10 10 10 10 10
          10 10 10 10 10 10
          10 10 10 10 10 10
          10 10 10 10 10 10
          10 10 10 10 10 10
          10 10
        </DataArray>
      </Cells>
    </Piece>
  </UnstructuredGrid>
</VTKFile>
