<?xml version="1.0"?>
<VTKFile type="UnstructuredGrid" version="0.1" byte_order="LittleEndian" header_type="UInt32" compressor="vtkZLibDataCompressor">
  <UnstructuredGrid>
    <Piece NumberOfPoints="57" NumberOfCells="146">
      <PointData>
        <DataArray type="Float64" Name="tem_BC" format="ascii" RangeMin="0" RangeMax="0">
          0 0 0 0 0 0
          0 0 0 0 0 0
          0 0 0 0 0 0
          0 0 0 0 0 0
          0 0 0 0 0 0
          0 0 0 0 0 0
          0 0 0 0 0 0
          0 0 0 0 0 0
          0 0 0 0 0 0
          0 0 0
        </DataArray>
        <DataArray type="Float64" Name="tem_FIXNO" format="ascii" RangeMin="-1" RangeMax="1">
          1 1 1 1 1 1
          1 1 1 1 1 1
          -1 -1 1 -1 -1 1
          1 1 1 -1 -1 1
          -1 -1 1 1 1 1
          -1 -1 1 -1 -1 1
          1 1 1 1 -1 -1
          1 -1 -1 1 1 1
          -1 -1 1 -1 -1 1
          1 -1 -1
        </DataArray>
      </PointData>
      <CellData>
        <DataArray type="UInt8" Name="vtkGhostType" format="ascii" RangeMin="0" RangeMax="1">
          0 0 0 0 0 0
          0 0 0 0 0 0
          0 0 0 0 0 0
          0 0 0 0 0 0
          0 0 0 0 0 0
          0 0 0 0 0 0
          0 0 0 0 0 0
          0 0 0 0 0 0
          0 0 0 0 0 0
          0 0 0 0 0 0
          0 0 0 0 0 0
          0 0 0 0 0 0
          1 1 1 1 1 1
          1 1 1 1 1 1
          1 1 1 1 1 1
          1 1 1 1 1 1
          0 0 0 0 0 0
          0 0 0 0 0 0
          0 0 0 0 0 0
          0 0 0 0 0 0
          1 1 1 0 0 0
          1 1 1 0 0 0
          0 0 0 0 0 0
          1 1 1 1 1 1
          1 0
        </DataArray>
      </CellData>
      <Points>
        <DataArray type="Float32" Name="Points" NumberOfComponents="3" format="ascii" RangeMin="1.1102230246251565e-16" RangeMax="0.9380831850048437">
          0 0.4000000059604645 0 0 0.20000000298023224 0
          0 -1.1102230246251565e-16 0 0.20000000298023224 0.4000000059604645 0
          0.20000000298023224 0.20000000298023224 0 0.20000000298023224 -1.1102230246251565e-16 0
          0.4000000059604645 0.4000000059604645 0 0.4000000059604645 0.20000000298023224 0
          0.4000000059604645 -1.1102230246251565e-16 0 0 0.4000000059604645 0.20000000298023224
          0 0.20000000298023224 0.20000000298023224 0 -1.1102230246251565e-16 0.20000000298023224
          0.20000000298023224 0.4000000059604645 0.20000000298023224 0.20000000298023224 0.20000000298023224 0.20000000298023224
          0.20000000298023224 -1.1102230246251565e-16 0.20000000298023224 0.4000000059604645 0.4000000059604645 0.20000000298023224
          0.4000000059604645 0.20000000298023224 0.20000000298023224 0.4000000059604645 -1.1102230246251565e-16 0.20000000298023224
          0 0.4000000059604645 0.4000000059604645 0 0.20000000298023224 0.4000000059604645
          0 -1.1102230246251565e-16 0.4000000059604645 0.20000000298023224 0.4000000059604645 0.4000000059604645
          0.20000000298023224 0.20000000298023224 0.4000000059604645 0.20000000298023224 -1.1102230246251565e-16 0.4000000059604645
          0.4000000059604645 0.4000000059604645 0.4000000059604645 0.4000000059604645 0.20000000298023224 0.4000000059604645
          0.4000000059604645 -1.1102230246251565e-16 0.4000000059604645 0 0.4000000059604645 0.6000000238418579
          0 0.20000000298023224 0.6000000238418579 0 -1.1102230246251565e-16 0.6000000238418579
          0.20000000298023224 0.4000000059604645 0.6000000238418579 0.20000000298023224 0.20000000298023224 0.6000000238418579
          0.20000000298023224 -1.1102230246251565e-16 0.6000000238418579 0.4000000059604645 0.4000000059604645 0.6000000238418579
          0.4000000059604645 0.20000000298023224 0.6000000238418579 0.4000000059604645 -1.1102230246251565e-16 0.6000000238418579
          0 0.6000000238418579 0 0.20000000298023224 0.6000000238418579 0
          0.4000000059604645 0.6000000238418579 0 0 0.6000000238418579 0.20000000298023224
          0.20000000298023224 0.6000000238418579 0.20000000298023224 0.4000000059604645 0.6000000238418579 0.20000000298023224
          0 0.6000000238418579 0.4000000059604645 0.20000000298023224 0.6000000238418579 0.4000000059604645
          0.4000000059604645 0.6000000238418579 0.4000000059604645 0.6000000238418579 0.4000000059604645 0
          0.6000000238418579 0.20000000298023224 0 0.6000000238418579 -1.1102230246251565e-16 0
          0.6000000238418579 0.4000000059604645 0.20000000298023224 0.6000000238418579 0.20000000298023224 0.20000000298023224
          0.6000000238418579 -1.1102230246251565e-16 0.20000000298023224 0.6000000238418579 0.4000000059604645 0.4000000059604645
          0.6000000238418579 0.20000000298023224 0.4000000059604645 0.6000000238418579 -1.1102230246251565e-16 0.4000000059604645
          0.6000000238418579 0.6000000238418579 0 0.6000000238418579 0.6000000238418579 0.20000000298023224
          0.6000000238418579 0.6000000238418579 0.4000000059604645
          <InformationKey name="L2_NORM_RANGE" location="vtkDataArray" length="2">
            <Value index="0">
              1.1102230246e-16
            </Value>
            <Value index="1">
              0.938083185
            </Value>
          </InformationKey>
        </DataArray>
      </Points>
      <Cells>
        <DataArray type="Int64" Name="connectivity" format="ascii" RangeMin="0" RangeMax="56">
          0 3 9 10 3 12
          9 10 0 1 3 10
          13 12 3 10 1 4
          3 10 3 4 13 10
          1 4 10 11 4 13
          10 11 1 2 4 11
          14 13 4 11 2 5
          4 11 4 5 14 11
          3 6 12 13 6 15
          12 13 3 4 6 13
          16 15 6 13 4 7
          6 13 6 7 16 13
          4 7 13 14 7 16
          13 14 4 5 7 14
          17 16 7 14 5 8
          7 14 7 8 17 14
          9 12 18 19 12 21
          18 19 9 10 12 19
          22 21 12 19 10 13
          12 19 12 13 22 19
          10 13 19 20 13 22
          19 20 10 11 13 20
          23 22 13 20 11 14
          13 20 13 14 23 20
          12 15 21 22 15 24
          21 22 12 13 15 22
          25 24 15 22 13 16
          15 22 15 16 25 22
          13 16 22 23 16 25
          22 23 13 14 16 23
          26 25 16 23 14 17
          16 23 16 17 26 23
          18 21 27 28 21 30
          27 28 18 19 21 28
          31 30 21 28 19 22
          21 28 21 22 31 28
          19 22 28 29 22 31
          28 29 19 20 22 29
          32 31 22 29 20 23
          22 29 22 23 32 29
          21 24 30 31 24 33
          30 31 21 22 24 31
          34 33 24 31 22 25
          24 31 24 25 34 31
          22 25 31 32 25 34
          31 32 22 23 25 32
          35 34 25 32 23 26
          25 32 25 26 35 32
          36 37 39 9 37 40
          39 9 36 0 37 9
          12 40 37 9 0 3
          37 9 37 3 12 9
          37 38 40 12 38 41
          40 12 37 3 38 12
          15 41 38 12 3 6
          38 12 38 6 15 12
          39 40 42 18 40 43
          42 18 39 9 40 18
          21 43 40 18 9 12
          40 18 40 12 21 18
          40 41 43 21 41 44
          43 21 40 12 41 21
          24 44 41 21 12 15
          41 21 41 15 24 21
          6 45 15 16 45 48
          15 16 6 7 45 16
          49 48 45 16 7 46
          45 16 45 46 49 16
          7 46 16 17 46 49
          16 17 7 8 46 17
          50 49 46 17 8 47
          46 17 46 47 50 17
          15 48 24 25 48 51
          24 25 15 16 48 25
          52 51 48 25 16 49
          48 25 48 49 52 25
          16 49 25 26 49 52
          25 26 16 17 49 26
          53 52 49 26 17 50
          49 26 49 50 53 26
          38 54 41 15 54 55
          41 15 38 6 54 15
          48 55 54 15 6 45
          54 15 54 45 48 15
          41 55 44 24 55 56
          44 24 41 15 55 24
          51 56 55 24 15 48
          55 24 55 48 51 24
          24 51 33 34 24 25
          51 34 25 52 51 34
          25 52 34 35 25 26
          52 35 26 53 52 35
          42 18 43 27 18 21
          43 27 43 21 30 27
          43 21 44 30 21 24
          44 30 44 24 33 30
          44 24 56 33 24 51
          56 33
        </DataArray>
        <DataArray type="Int64" Name="offsets" format="ascii" RangeMin="4" RangeMax="584">
          4 8 12 16 20 24
          28 32 36 40 44 48
          52 56 60 64 68 72
          76 80 84 88 92 96
          100 104 108 112 116 120
          124 128 132 136 140 144
          148 152 156 160 164 168
          172 176 180 184 188 192
          196 200 204 208 212 216
          220 224 228 232 236 240
          244 248 252 256 260 264
          268 272 276 280 284 288
          292 296 300 304 308 312
          316 320 324 328 332 336
          340 344 348 352 356 360
          364 368 372 376 380 384
          388 392 396 400 404 408
          412 416 420 424 428 432
          436 440 444 448 452 456
          460 464 468 472 476 480
          484 488 492 496 500 504
          508 512 516 520 524 528
          532 536 540 544 548 552
          556 560 564 568 572 576
          580 584
        </DataArray>
        <DataArray type="UInt8" Name="types" format="ascii" RangeMin="10" RangeMax="10">
          10 10 10 10 10 10
          10 10 10 10 10 10
          10 10 10 10 10 10
          10 10 10 10 10 10
          10 10 10 10 10 10
          10 10 10 10 10 10
          10 10 10 10 10 10
          10 10 10 10 10 10
          10 10 10 10 10 10
          10 10 10 10 10 10
          10 10 10 10 10 10
          10 10 10 10 10 10
          10 10 10 10 10 10
          10 10 10 10 10 10
          10 10 10 10 10 10
          10 10 10 10 10 10
          10 10 10 10 10 10
          10 10 10 10 10 10
          10 10 10 10 10 10
          10 10 10 10 10 10
          10 10 10 10 10 10
          10 10 10 10 10 10
          10 10 10 10 10 10
          10 10 10 10 10 10
          10 10
        </DataArray>
      </Cells>
    </Piece>
  </UnstructuredGrid>
</VTKFile>
