<?xml version="1.0"?>
<VTKFile type="UnstructuredGrid" version="0.1" byte_order="LittleEndian" header_type="UInt32" compressor="vtkZLibDataCompressor">
  <UnstructuredGrid>
    <Piece NumberOfPoints="57" NumberOfCells="146">
      <PointData>
        <DataArray type="Float64" Name="tem_BC" format="ascii" RangeMin="0" RangeMax="0">
          0 0 0 0 0 0
          0 0 0 0 0 0
          0 0 0 0 0 0
          0 0 0 0 0 0
          0 0 0 0 0 0
          0 0 0 0 0 0
          0 0 0 0 0 0
          0 0 0 0 0 0
          0 0 0 0 0 0
          0 0 0
        </DataArray>
        <DataArray type="Float64" Name="tem_FIXNO" format="ascii" RangeMin="-1" RangeMax="1">
          1 1 1 1 1 1
          1 1 1 -1 -1 1
          -1 -1 1 1 1 1
          -1 -1 1 -1 -1 1
          1 1 1 -1 -1 1
          -1 -1 1 1 1 1
          1 1 1 -1 -1 1
          -1 -1 1 1 1 1
          -1 -1 1 -1 -1 1
          -1 -1 1
        </DataArray>
        <DataArray type="Float64" Name="Temperature" format="ascii" RangeMin="0" RangeMax="0.04842105330975526">
          0 0 0 0 0 0
          0 0 0 0.03508771915720172 0.025964912368710343 0
          0.025964912237910035 0.019649122979070028 0 0 0 0
          0.04842105277508892 0.035087719314082784 0 0.03508771939131295 0.02596491232175904 0
          0 0 0 0.04842105330975526 0.03508771955613315 0
          0.035087719665354705 0.025964912391258987 0 0 0 0
          0 0 0 0.03508771918319821 0.02596491226737047 0
          0.04842105308616372 0.03508771957487938 0 0 0 0
          0.03508771957965146 0.025964912443136867 0 0.04842105309465888 0.035087719388573184 0
          0.04842105306901217 0.03508771922818233 0
        </DataArray>
      </PointData>
      <CellData>
        <DataArray type="UInt8" Name="vtkGhostType" format="ascii" RangeMin="0" RangeMax="1">
          0 0 0 0 0 0
          0 0 0 0 0 0
          0 0 0 0 0 0
          0 0 0 0 0 0
          0 0 0 0 0 0
          0 0 0 0 0 0
          0 0 0 0 0 0
          0 0 0 0 0 0
          0 0 0 0 0 0
          0 0 0 0 0 0
          0 0 0 0 0 0
          0 0 0 0 0 0
          1 1 1 1 1 1
          1 1 1 1 1 1
          1 1 1 1 1 1
          1 1 1 1 1 1
          1 1 1 1 1 1
          1 1 1 1 1 1
          1 1 1 1 1 1
          1 1 1 1 1 1
          1 1 1 1 1 1
          1 0 1 0 1 0
          1 0 1 0 1 0
          1 1 1 1 1 1
          1 1
        </DataArray>
      </CellData>
      <Points>
        <DataArray type="Float32" Name="Points" NumberOfComponents="3" format="ascii" RangeMin="0.4000000059604645" RangeMax="1.2328828141306056">
          0.6000000238418579 0.4000000059604645 0 0.6000000238418579 0.20000000298023224 0
          0.6000000238418579 -1.1102230246251565e-16 0 0.800000011920929 0.4000000059604645 0
          0.800000011920929 0.20000000298023224 0 0.800000011920929 -1.1102230246251565e-16 0
          1 0.4000000059604645 0 1 0.20000000298023224 0
          1 -1.1102230246251565e-16 0 0.6000000238418579 0.4000000059604645 0.20000000298023224
          0.6000000238418579 0.20000000298023224 0.20000000298023224 0.6000000238418579 -1.1102230246251565e-16 0.20000000298023224
          0.800000011920929 0.4000000059604645 0.20000000298023224 0.800000011920929 0.20000000298023224 0.20000000298023224
          0.800000011920929 -1.1102230246251565e-16 0.20000000298023224 1 0.4000000059604645 0.20000000298023224
          1 0.20000000298023224 0.20000000298023224 1 -1.1102230246251565e-16 0.20000000298023224
          0.6000000238418579 0.4000000059604645 0.4000000059604645 0.6000000238418579 0.20000000298023224 0.4000000059604645
          0.6000000238418579 -1.1102230246251565e-16 0.4000000059604645 0.800000011920929 0.4000000059604645 0.4000000059604645
          0.800000011920929 0.20000000298023224 0.4000000059604645 0.800000011920929 -1.1102230246251565e-16 0.4000000059604645
          1 0.4000000059604645 0.4000000059604645 1 0.20000000298023224 0.4000000059604645
          1 -1.1102230246251565e-16 0.4000000059604645 0.6000000238418579 0.4000000059604645 0.6000000238418579
          0.6000000238418579 0.20000000298023224 0.6000000238418579 0.6000000238418579 -1.1102230246251565e-16 0.6000000238418579
          0.800000011920929 0.4000000059604645 0.6000000238418579 0.800000011920929 0.20000000298023224 0.6000000238418579
          0.800000011920929 -1.1102230246251565e-16 0.6000000238418579 1 0.4000000059604645 0.6000000238418579
          1 0.20000000298023224 0.6000000238418579 1 -1.1102230246251565e-16 0.6000000238418579
          0.6000000238418579 0.6000000238418579 0 0.800000011920929 0.6000000238418579 0
          1 0.6000000238418579 0 0.6000000238418579 0.6000000238418579 0.20000000298023224
          0.800000011920929 0.6000000238418579 0.20000000298023224 1 0.6000000238418579 0.20000000298023224
          0.6000000238418579 0.6000000238418579 0.4000000059604645 0.800000011920929 0.6000000238418579 0.4000000059604645
          1 0.6000000238418579 0.4000000059604645 0.4000000059604645 0.4000000059604645 0
          0.4000000059604645 0.20000000298023224 0 0.4000000059604645 -1.1102230246251565e-16 0
          0.4000000059604645 0.4000000059604645 0.20000000298023224 0.4000000059604645 0.20000000298023224 0.20000000298023224
          0.4000000059604645 -1.1102230246251565e-16 0.20000000298023224 0.4000000059604645 0.4000000059604645 0.4000000059604645
          0.4000000059604645 0.20000000298023224 0.4000000059604645 0.4000000059604645 -1.1102230246251565e-16 0.4000000059604645
          0.4000000059604645 0.4000000059604645 0.6000000238418579 0.4000000059604645 0.20000000298023224 0.6000000238418579
          0.4000000059604645 -1.1102230246251565e-16 0.6000000238418579
          <InformationKey name="L2_NORM_RANGE" location="vtkDataArray" length="2">
            <Value index="0">
              0.40000000596
            </Value>
            <Value index="1">
              1.2328828141
            </Value>
          </InformationKey>
        </DataArray>
      </Points>
      <Cells>
        <DataArray type="Int64" Name="connectivity" format="ascii" RangeMin="0" RangeMax="56">
          0 3 9 10 3 12
          9 10 0 1 3 10
          13 12 3 10 1 4
          3 10 3 4 13 10
          1 4 10 11 4 13
          10 11 1 2 4 11
          14 13 4 11 2 5
          4 11 4 5 14 11
          3 6 12 13 6 15
          12 13 3 4 6 13
          16 15 6 13 4 7
          6 13 6 7 16 13
          4 7 13 14 7 16
          13 14 4 5 7 14
          17 16 7 14 5 8
          7 14 7 8 17 14
          9 12 18 19 12 21
          18 19 9 10 12 19
          22 21 12 19 10 13
          12 19 12 13 22 19
          10 13 19 20 13 22
          19 20 10 11 13 20
          23 22 13 20 11 14
          13 20 13 14 23 20
          12 15 21 22 15 24
          21 22 12 13 15 22
          25 24 15 22 13 16
          15 22 15 16 25 22
          13 16 22 23 16 25
          22 23 13 14 16 23
          26 25 16 23 14 17
          16 23 16 17 26 23
          18 21 27 28 21 30
          27 28 18 19 21 28
          31 30 21 28 19 22
          21 28 21 22 31 28
          19 22 28 29 22 31
          28 29 19 20 22 29
          32 31 22 29 20 23
          22 29 22 23 32 29
          21 24 30 31 24 33
          30 31 21 22 24 31
          34 33 24 31 22 25
          24 31 24 25 34 31
          22 25 31 32 25 34
          31 32 22 23 25 32
          35 34 25 32 23 26
          25 32 25 26 35 32
          36 37 39 9 37 40
          39 9 36 0 37 9
          12 40 37 9 0 3
          37 9 37 3 12 9
          37 38 40 12 38 41
          40 12 37 3 38 12
          15 41 38 12 3 6
          38 12 38 6 15 12
          39 40 42 18 40 43
          42 18 39 9 40 18
          21 43 40 18 9 12
          40 18 40 12 21 18
          40 41 43 21 41 44
          43 21 40 12 41 21
          24 44 41 21 12 15
          41 21 41 15 24 21
          45 0 48 49 0 9
          48 49 45 46 0 49
          10 9 0 49 46 1
          0 49 0 1 10 49
          46 1 49 50 1 10
          49 50 46 47 1 50
          11 10 1 50 47 2
          1 50 1 2 11 50
          48 9 51 52 9 18
          51 52 48 49 9 52
          19 18 9 52 49 10
          9 52 9 10 19 52
          49 10 52 53 10 19
          52 53 49 50 10 53
          20 19 10 53 50 11
          10 53 10 11 20 53
          9 39 36 48 45 0
          36 48 36 0 9 48
          18 42 39 51 48 9
          39 51 39 9 18 51
          51 18 54 55 18 27
          54 55 51 52 18 55
          28 27 18 55 52 19
          18 55 18 19 28 55
          52 19 55 56 19 28
          55 56 52 53 19 56
          29 28 19 56 53 20
          19 56 19 20 29 56
          42 18 43 27 18 21
          43 27 43 21 30 27
          43 21 44 30 21 24
          44 30 44 24 33 30
          51 18 42 54 42 18
          27 54
        </DataArray>
        <DataArray type="Int64" Name="offsets" format="ascii" RangeMin="4" RangeMax="584">
          4 8 12 16 20 24
          28 32 36 40 44 48
          52 56 60 64 68 72
          76 80 84 88 92 96
          100 104 108 112 116 120
          124 128 132 136 140 144
          148 152 156 160 164 168
          172 176 180 184 188 192
          196 200 204 208 212 216
          220 224 228 232 236 240
          244 248 252 256 260 264
          268 272 276 280 284 288
          292 296 300 304 308 312
          316 320 324 328 332 336
          340 344 348 352 356 360
          364 368 372 376 380 384
          388 392 396 400 404 408
          412 416 420 424 428 432
          436 440 444 448 452 456
          460 464 468 472 476 480
          484 488 492 496 500 504
          508 512 516 520 524 528
          532 536 540 544 548 552
          556 560 564 568 572 576
          580 584
        </DataArray>
        <DataArray type="UInt8" Name="types" format="ascii" RangeMin="10" RangeMax="10">
          10 10 10 10 10 10
          10 10 10 10 10 10
          10 10 10 10 10 10
          10 10 10 10 10 10
          10 10 10 10 10 10
          10 10 10 10 10 10
          10 10 10 10 10 10
          10 10 10 10 10 10
          10 10 10 10 10 10
          10 10 10 10 10 10
          10 10 10 10 10 10
          10 10 10 10 10 10
          10 10 10 10 10 10
          10 10 10 10 10 10
          10 10 10 10 10 10
          10 10 10 10 10 10
          10 10 10 10 10 10
          10 10 10 10 10 10
          10 10 10 10 10 10
          10 10 10 10 10 10
          10 10 10 10 10 10
          10 10 10 10 10 10
          10 10 10 10 10 10
          10 10 10 10 10 10
          10 10
        </DataArray>
      </Cells>
    </Piece>
  </UnstructuredGrid>
</VTKFile>
