<?xml version="1.0"?>
<VTKFile type="UnstructuredGrid" version="0.1" byte_order="LittleEndian" header_type="UInt32" compressor="vtkZLibDataCompressor">
  <UnstructuredGrid>
    <Piece NumberOfPoints="183" NumberOfCells="79">
      <PointData>
        <DataArray type="Float64" Name="Density" format="ascii" RangeMin="0.9163149405932018" RangeMax="1.1801703413562195">
          0.9999999999984188 1.0000000000009674 1.0000000000005718 0.9999999999986852 1.0000000000780322 0.9999999999921727
          1.0000000000091316 1.0000000000491733 0.9999999996791265 1.0000000002354754 1.0000000000008016 0.9999999995684933
          0.9999999999965252 1.0000000066587644 1.0000000000180727 0.9999999992627817 1.0000000044390247 1.0000000000356282
          0.999999999996655 1.0000000000027611 0.9999999870785572 0.9999999999991945 0.9999999999828344 0.9999999840969238
          1.0000000137190697 1.0000000004084975 1.000000073392745 1.0000000014123085 0.9999999982392035 1.0000000835315188
          0.9999999719855933 0.9999999955020994 0.9999998803468356 1.0000000498145893 1.0000000301450522 0.999999786331345
          1.0000001771692655 0.99999749152753 0.9999998705443724 0.9999998898244802 0.999998646020121 0.9999998206560117
          0.9999996795285417 1.0000098663146852 0.9999997355258374 1.0000001778684484 0.9999995743085077 1.0000021955490423
          1.0000005214353263 0.9999993386781093 1.0000021343652743 1.00000141002172 0.9997683104712257 1.000004272844718
          0.9999997761114218 1.0000014311079792 0.9999959903807449 0.9999963882860409 0.9999869687129187 1.0000030933021402
          0.9999959434079734 1.0000008004278473 0.999683135627594 1.0012200243634342 1.0000119603784885 0.9999999541219574
          1.000002352105924 0.9998814448248915 0.9999987131091207 0.9999971492319731 1.0000094729575735 1.0000102230002437
          0.9999949952165732 1.000015896616659 1.0000263527946378 0.9998899712550453 0.9999859516357423 0.999986271737059
          0.9999152506721001 1.0000043668187966 1.0000724082637356 1.000046008611716 0.9999584301933737 1.000049563127541
          0.9999946425767097 0.9999938646937361 0.9999419867596314 0.9900884544926548 1.0005275518742587 1.0000190345999256
          0.9986999989998935 0.9998452504647708 1.0000380813985776 0.9998948268605948 0.9999608275563907 1.0000341583357761
          0.9999151934761168 1.0004379649597792 1.0000048347813915 0.9999789663109282 0.9994139916576202 1.00028088524096
          0.9999844624747757 0.9998372145317551 1.000003904129088 0.9999931381980814 0.9979363123308626 0.999541874590704
          1.000144530498217 0.9999946860788979 0.9999318308963311 1.0001139772002168 0.9997092799446101 1.0000154811053967
          0.9837548292126475 0.999569613459311 1.000101362838708 1.0035651064889866 0.9991240766961024 1.0005420821080828
          0.9996205533570688 0.9996452020755665 1.0006972071377367 0.9995657705907407 1.002747941281913 1.0001877328738928
          0.9994849115459543 1.0003357541772797 0.999376996293139 1.0035430891191381 0.998800667885141 0.9991459620088687
          0.9939672964901802 1.0000488681518143 0.9998758787721497 1.0201194019023219 1.000022479064863 1.0010885949888233
          0.9983457308043935 0.9992288769980239 1.0002706472017844 0.9602004045975131 0.9592685930618923 1.0007385172814558
          1.0010523856418978 0.9691811061681276 0.9989936772319865 0.9991245392201267 0.9307262806543778 0.9678100687013402
          0.9864327089320997 0.9721358902976898 0.9775338575574894 0.9170744402476513 0.9687041600701707 0.9163149405932018
          1.0844553144796605 1.1250989421385658 1.1536620179168624 1.1585542776092512 1.093617092512075 1.1717707361010297
          1.0193004813191362 0.9541770166699541 1.1696119803319462 1.1801703413562195 1.0981018890983432 1.1319762353240186
          1 1 1 1 1 1
          1 1.1272111485815828 1 1.098786254128932 1 1
          1 1 1
        </DataArray>
        <DataArray type="Float64" Name="Momentum" NumberOfComponents="3" format="ascii" RangeMin="0" RangeMax="1">
          -1.9167524071876374e-12 -1.2619323809850407e-12 0 2.8011522857851227e-13 0 0
          7.255038185193187e-14 9.88604831889479e-13 0 -1.5468875220052264e-12 -2.4316749287255075e-12 0
          6.786300363554723e-11 0 0 -7.249073305922646e-12 -4.318589269383483e-13 0
          7.295183710904326e-12 -2.682178820523841e-12 0 3.958789031933716e-11 -1.6969347401870758e-11 0
          -2.668134098998387e-10 0 0 2.0357364327804965e-10 -5.317639614578066e-11 0
          3.642819230070796e-13 -1.197440835019633e-12 0 -3.969150342374979e-10 2.378463075652659e-10 0
          -3.1553617415746636e-12 4.2802247698717e-12 0 6.144189058513906e-9 0 0
          1.4591844297435255e-11 -4.819348469980578e-12 0 -5.739497875093744e-10 7.154724146868475e-11 0
          4.060046561247606e-9 -1.430046746736758e-9 0 2.6033313343131888e-11 -3.808718118273802e-11 0
          -3.5133675280478392e-12 2.8824610945295473e-12 0 2.20697889070413e-12 0 0
          -1.1436559803017878e-8 0 0 -1.2362829836857678e-12 0 0
          -1.293325283861819e-11 0 0 -1.4031665651673318e-8 8.548851022104491e-9 0
          1.3055214964953728e-8 -3.4055131518734197e-9 0 5.342890981677296e-10 7.821648535634494e-10 0
          7.397237008167612e-8 0 0 1.2893265100648608e-9 0 0
          -1.7951585013063585e-9 -6.049022465410145e-9 0 7.972581879636263e-8 -3.8502640920585194e-8 0
          -2.425172392536688e-8 4.303296807023533e-9 0 -4.227653842575072e-9 0 0
          -1.1760390460489203e-7 0 0 4.6303922951789413e-8 0 0
          3.441636331880849e-8 3.376544233260954e-8 0 -1.8757168185377357e-7 7.312391050658648e-8 0
          1.6717752532918545e-7 -1.0354254930987749e-9 0 -0.0000031806234319874033 0 0
          -1.0761989675018681e-7 2.1989602477725705e-7 0 -9.873994763904249e-8 0 0
          -0.0000017628030849704245 8.955948645464114e-7 0 -1.295705092450576e-7 -1.48922235097112e-7 0
          -2.4619157762656304e-7 -2.8117208033895267e-7 0 0.00001308776326524988 0 0
          -0.0000010006942193594201 0.000003558205426758779 0 -5.289977272802884e-7 0 0
          -1.903079587756438e-7 -6.675307098976972e-8 0 0.0000050111160158209515 -0.000008663835584686783 0
          1.6383793269560858e-7 2.4528959012936214e-7 0 -7.107653397161918e-7 8.513871429168742e-7 0
          8.25714827476646e-7 -5.229431618995088e-7 0 0.0000012381603576789341 6.099251475326135e-7 0
          -0.0001786556865783307 0 0 0.000005548214305350145 -0.000009435001531803395 0
          0.0000028169975058295197 0 0 -1.1046026669711664e-7 0.000004486601156753752 0
          -0.0000036226855881296124 -0.0000012154438693838373 0 9.212444529526966e-7 0.000002735048471203516 0
          -0.000016770695785836844 0.0000049552293624513635 0 0.0000017065620504828946 -0.0000012739742197602675 0
          -0.0000015513330204518404 -0.000002095271625863948 0 -5.159634823244257e-7 8.027130922700918e-7 0
          -0.00020420997157609275 0.0005407815949854123 0 0.0008252904856588443 0 0
          0.000017225374098804006 -0.00001058492111185213 0 0.0000013580544692751558 -0.0000021040019487198806 0
          0.000004485875762966238 0.0000059369905225567685 0 -0.0000937420799556376 0 0
          0.00000252863949172878 0.0000022430013404527723 0 0.0000012108165506452456 -0.0000031616901331929476 0
          0.0000026362033784771866 9.617365233263966e-7 0 -0.000026218479751479227 0.00003005521814345487 0
          -0.000008766778721770695 -0.000009887918853029495 0 0.000001058555093369184 0.00001468500227249855 0
          0.000014832474587247623 0.000005350509415520468 0 -0.00005602764864194227 -0.00016070632751906934 0
          -0.000006649075038393022 0.000005232542391477924 0 -0.00000312559166224395 -0.000008232378275538043 0
          -0.00003541495670456021 0.0005795250863020234 0 -5.594784468577591e-7 -2.1975377095375082e-7 0
          0.00004279681728621641 0.000026372557715765688 0 0.00005345300895202418 -0.00003290765923753273 0
          0.0004208365165851518 -0.0011162800571891643 0 0.00003911450009365446 0.00003635043561534809 0
          0.0000025809462019279575 0.000008752297482059995 0 0.0000027624825660256624 -0.000006892491880489542 0
          -0.000041396760380216936 -0.000017431445493849374 0 -0.009406535021275031 0 0
          0.00028579525375150704 0 0 0.0000048438724367874474 -4.5448688546933044e-7 0
          -0.0011109951881124432 -0.0004949994477763115 0 -0.00010968779027351245 0.000019377282420163374 0
          0.000024077215113104555 -0.00005622625616686653 0 -0.00009932668062803825 0.00007142692497506207 0
          -0.000022245125791758887 0.000016786707017263442 0 0.000004836167972893579 0.00004279766358933531 0
          -0.00011650815979010732 -0.00013241299060895564 0 4.1282117217294023e-7 -0.0006634711099373538 0
          5.804454352405099e-7 -0.0000019179567925251207 0 -0.000008599556903087007 -0.000011359933424325707 0
          -0.0005299531012793613 -0.0007485899628925864 0 0.0002487327904376349 -0.00013082892024873484 0
          0.000004985440846600656 0.00002076882286186784 0 -0.00011099876074568495 0.00016074232438089618 0
          0 0 0 0.000009152020631347535 -0.000007628805677673017 0
          -0.0016675754295454042 0.000529441850452945 0 -0.00030414907664016034 0.0008827745485059778 0
          0.000104381861290677 0.0001261871789596567 0 0 0 0
          -0.000023251445980491915 -0.0001612656437414745 0 0.00008492173063478288 -0.00015834914087571855 0
          -0.0005884179238830491 -0.0011028966587191132 0 0 0 0
          -0.009098988314369944 0.01566421077129871 0 -0.00048453825945068843 0.00013605313738661773 0
          0.00004177348809251782 0.00009471409292193309 0 0.003013471549162766 0.00020677499704208028 0
          -0.0008290207234777845 0.0004526108405471701 0 0 0 0
          -0.0003114899715261783 -0.00026742755540627846 0 -0.0001541889136532996 -0.00017231955826880178 0
          0 0 0 -0.0003536457047467881 0.0003110853591582046 0
          0.0019008550447408754 -0.002251149306731797 0 0 0 0
          -0.0003906201949197879 -0.00036134730354066096 0 0.0018094019989008223 0.0017542785629227535 0
          -0.00065572778170859 -0.00011383969065406032 0 0.003862903932654861 0.000973178111056687 0
          -0.0012664625474417108 0.0013861156327792427 0 -0.0008496301902217499 -0.00014302541142540912 0
          -0.005351988412486513 0 0 -0.00020335004508441836 -0.0007470287752550122 0
          0.00016451935617390457 0.00005207161841350529 0 0.03244033311329825 0 0
          0.0001782847118864803 0.00011148211587983458 0 0.0017481237580976967 -0.0022282478555946048 0
          -0.00034203258994865913 0.0016437204182266245 0 -0.0009255495353459878 -0.00028649343552963056 0
          0.0019118534943213257 -0.0029815804333472597 0 -0.047187541493267024 0.019503316879547587 0
          -0.041164631674146905 0.0005745315216061255 0 0.0014387876446500289 0.0011857594384458753 0
          0.000618835202799696 -0.0003466829772389293 0 -0.017929918015637574 0.005310098151681127 0
          0.0009750699108375215 0.001535918783576023 0 0.0009752021493308906 -0.0012169530920982735 0
          -0.07344433021358515 0.005828439780171455 0 -0.01807446784043855 -0.015951554578351616 0
          -0.0065939926732674695 -0.017615908009630362 0 -0.014036669064562203 0.002346674667645518 0
          -0.014609957663250505 0.011801366445323081 0 -0.08967326798012976 -0.013276629404378895 0
          -0.01458798621450631 -0.004348669525622013 0 -0.08891683963238109 0.0003355087286725874 0
          0.09401918531267624 -0.0027392656617320965 0 0.14300606708511496 -0.017171477507172562 0
          0.18129737970354465 0.003306135046202294 0 0.1835415233436852 -0.003493587210985003 0
          0.10968157561818138 0.005175149084416022 0 0.19933541679138925 0.002886331574148519 0
          0.02847461780688166 0 0 -0.06287515639729474 -0.009569471722480176 0
          0.21049427686736827 0.00024756224868295243 0 0.20746913666477504 -0.002408999753831546 0
          0.11443530275497624 -0.005662041276460868 0 0.16492168192524845 0.003454434931254116 0
          1 0 0 1 0 0
          1 0 0 1 0 0
          1 0 0 1 0 0
          1 0 0 0.14931160022375706 0.006781245018204806 0
          1 0 0 0.11546417967535551 0.001803203125084638 0
          1 0 0 1 0 0
          1 0 0 1 0 0
          1 0 0
          <InformationKey name="L2_NORM_RANGE" location="vtkDataArray" length="2">
            <Value index="0">
              0
            </Value>
            <Value index="1">
              1
            </Value>
          </InformationKey>
        </DataArray>
        <DataArray type="Float64" Name="Energy" format="ascii" RangeMin="1.4797849665332239" RangeMax="2.25405646360441">
          1.7231999999962497 1.7232000000023173 1.7232000000013614 1.7231999999968082 1.7232000001884995 1.7231999999811676
          1.7232000000220635 1.7232000001194367 1.7231999992235194 1.7232000005789125 1.7232000000019487 1.7231999989421816
          1.7231999999915029 1.7232000160092051 1.7232000000437966 1.72319999820565 1.7232000107808974 1.7232000000864425
          1.7231999999918692 1.7232000000067023 1.723199968859795 1.7231999999979102 1.7231999999589462 1.7231999613630777
          1.7232000335491102 1.723200000998926 1.723200174704092 1.7232000034063382 1.7231999956876312 1.7232002028600157
          1.7231999316836537 1.7231999891247722 1.7231997155343293 1.7232001193566897 1.7232000735807969 1.7231994835123847
          1.7232004296022694 1.7231939288957712 1.7231996831695569 1.7231997346885586 1.7231967130624686 1.723199563142733
          1.723199224645806 1.7232238695045177 1.7231993901916944 1.723200402550698 1.72319897153981 1.7232052832355274
          1.7232012921379214 1.7231983692194253 1.723205136435174 1.7232034161015697 1.7226417307776398 1.7232103177130709
          1.723199462125252 1.7232032078882868 1.7231903082341653 1.7231912399232818 1.7231684146686412 1.7232081188010486
          1.723190259178524 1.7232019918207973 1.7224275484264178 1.726146075953422 1.7232277198185915 1.7231991093045649
          1.723205793609576 1.7229141811530215 1.7231968923480507 1.7231930969394766 1.7232227604820045 1.7232251569090693
          1.7231877994935425 1.7232395345971054 1.7232641545576455 1.722931653372937 1.7231661682290857 1.7231666405846804
          1.723024131351249 1.7232109023924485 1.7233756842291121 1.723307901920427 1.7230582881429943 1.7233187284046894
          1.7231872184746135 1.7231852502761607 1.7230585655754393 1.699495365403341 1.7244756587873458 1.7232453524431255
          1.720107809817338 1.7228279811907192 1.723300067885757 1.7229449378713573 1.7231054177983767 1.7232833719800886
          1.722992330543386 1.7242652024739082 1.7232130783989466 1.7231488540452258 1.7217101625762317 1.7238705785533697
          1.7231591394481074 1.7228017354644545 1.723213598423933 1.7231781312228758 1.7181430202925188 1.7220552588587807
          1.7235475477527813 1.7231925383383404 1.7230330959904265 1.7235039868366309 1.7226404065251764 1.7232485596927845
          1.684057666234185 1.7221488845237412 1.7234545292776575 1.73171673556848 1.7210448768324529 1.7244836752857513
          1.7222750841029464 1.7223916034313322 1.724896495444634 1.7221431489752632 1.7298462097139191 1.723615088498871
          1.7219322797511611 1.7237965158665425 1.7216735604340223 1.731523430946278 1.7203784736816392 1.7211032015964927
          1.7092760870667607 1.7231365370503748 1.7228978418113163 1.7836377524347726 1.7232716097500973 1.7258117269270328
          1.7192225420363936 1.7213373538725252 1.7235809392409969 1.6084531933365607 1.61023261860828 1.7246824982970173
          1.7254905357904688 1.6466569047172899 1.7204175437248064 1.720708292700812 1.5243459229643075 1.6455779443917946
          1.6878041518049296 1.6557223616188126 1.6654627750775053 1.4851988655917705 1.6444489287478992 1.4797849665332239
          1.9667010317687303 2.0939212470860538 2.1724624573873017 2.190263538934814 1.9960874399271011 2.228963277282537
          1.7818818295985308 1.5902090060604357 2.2226599000390372 2.25405646360441 2.0082894011567034 2.1082764314181475
          2.2232 2.2232 2.2232 2.2232 2.2232 2.2232
          2.2232 2.09510422364634 2.2232 2.0147673899266874 2.2232 2.2232
          2.2232 2.2232 2.2232
        </DataArray>
      </PointData>
      <CellData>
        <DataArray type="UInt8" Name="vtkGhostType" format="ascii" RangeMin="0" RangeMax="0">
          0 0 0 0 0 0
          0 0 0 0 0 0
          0 0 0 0 0 0
          0 0 0 0 0 0
          0 0 0 0 0 0
          0 0 0 0 0 0
          0 0 0 0 0 0
          0 0 0 0 0 0
          0 0 0 0 0 0
          0 0 0 0 0 0
          0 0 0 0 0 0
          0 0 0 0 0 0
          0 0 0 0 0 0
          0
        </DataArray>
      </CellData>
      <Points>
        <DataArray type="Float32" Name="Points" NumberOfComponents="3" format="ascii" RangeMin="0" RangeMax="7.102112369882704">
          7 1.2000000476837158 0 6.5 1.2000000476837158 0
          7 0.6000000238418579 0 6.5 0.6000000238418579 0
          6 1.2000000476837158 0 7 -2.220446049250313e-16 0
          6.25 0.16698729991912842 0 5.75 0.7669873237609863 0
          5.5 1.2000000476837158 0 5.5 0.33397459983825684 0
          7 -0.6000000238418579 0 5.25 0.7669873237609863 0
          6.5 -0.6000000238418579 0 5 1.2000000476837158 0
          5.75 -0.4330126941204071 0 5 2.220446049250313e-16 0
          4.75 0.4330126941204071 0 5.25 -0.4330126941204071 0
          7 -1.2000000476837158 0 6.5 -1.2000000476837158 0
          4.5 1.2000000476837158 0 6 -1.2000000476837158 0
          5.5 -1.2000000476837158 0 4.25 0.4330126941204071 0
          4.5 -0.33397459983825684 0 4.75 -0.7669873237609863 0
          4 1.2000000476837158 0 5 -1.2000000476837158 0
          4.25 -0.7669873237609863 0 3.6823039054870605 0.4431717097759247 0
          3.9323039054870605 -0.32381561398506165 0 4.5 -1.2000000476837158 0
          3.5 1.2000000476837158 0 4 -1.2000000476837158 0
          3.6823039054870605 -0.7568283081054688 0 3.1823039054870605 0.4431717097759247 0
          3.364607095718384 -0.31365659832954407 0 3 1.2000000476837158 0
          2.953885078430176 0.029621059074997902 0 3.5 -1.2000000476837158 0
          2.771580934524536 0.7864493131637573 0 3.1823039054870605 -0.7568283081054688 0
          2.9061310291290283 -0.4530656039714813 0 2.5 1.2000000476837158 0
          2.5431621074676514 0.3728986978530884 0 3 -1.2000000476837158 0
          2.495408058166504 -0.10978800058364868 0 2.271580934524536 0.7864493131637573 0
          2.7238268852233887 -0.8962373733520508 0 2.2451179027557373 0.2950834035873413 0
          2.4476540088653564 -0.5924746990203857 0 2.197364091873169 -0.18760329484939575 0
          2 1.2000000476837158 0 1.9735369682312012 0.708634078502655 0
          2.5 -1.2000000476837158 0 1.947074055671692 0.2172681987285614 0
          2.0834739208221436 -0.4830414056777954 0 2.2238268852233887 -0.8962373733520508 0
          1.766793966293335 0.8914316296577454 0 1.7403310537338257 0.40006569027900696 0
          1.833184003829956 -0.07816994935274124 0 1.696537971496582 0.15281939506530762 0
          1.5884170532226562 0.9876154065132141 0 1.5 1.2000000476837158 0
          1.5335869789123535 0.5828632116317749 0 1.7192939519882202 -0.3736081123352051 0
          1.8596470355987549 -0.7868040204048157 0 2 -1.2000000476837158 0
          1.4897949695587158 0.3356168866157532 0 1.5826480388641357 -0.1426188051700592 0
          1.4460029602050781 0.08837053179740906 0 1.3552099466323853 0.6790469884872437 0
          1.339123010635376 0.4750398099422455 0 1.4790019989013672 -0.34034401178359985 0
          1.5011229515075684 -0.5437853932380676 0 1.641476035118103 -0.9569813013076782 0
          1.2953310012817383 0.22779349982738495 0 1.3423570394515991 -0.10935469716787338 0
          1.1768330335617065 0.7752308249473572 0 1.2693469524383545 0.06596699357032776 0
          1.1607470512390137 0.5712236166000366 0 1.1446599960327148 0.36721640825271606 0
          1.0884170532226562 0.9876154065132141 0 1.2387109994888306 -0.3070800006389618 0
          1.1186749935150146 0.20538990199565887 0 1.1657010316848755 -0.13175830245018005 0
          1.2608319520950317 -0.5105212926864624 0 1 1.2000000476837158 0
          1.5 -1.2000000476837158 0 1.0926909446716309 0.043563440442085266 0
          1.2829530239105225 -0.7139626741409302 0 0.9874739050865173 0.6781361103057861 0
          1.0298000574111938 0.28314921259880066 0 0.9713870286941528 0.4741289019584656 0
          1.0038150548934937 0.12132269889116287 0 1.0768250226974487 -0.25308090448379517 0
          1.0993930101394653 -0.3733969032764435 0 0.8990572094917297 0.8905206918716431 0
          0.9963455200195312 0.021781720221042633 0 1.0038150548934937 -0.07775924354791641 0
          1.1215139627456665 -0.5768383145332336 0 0.9149399995803833 0.1990818977355957 0
          0.9074699878692627 0.09954095631837845 0 0.8565272092819214 0.39006170630455017 0
          0.8999999761581421 0 0 0.9074699878692627 -0.09954095631837845 0
          0.7981144189834595 0.5810413956642151 0 1.141476035118103 -0.9569813013076782 0
          0.9149399995803833 -0.1990818977355957 0 0.8500000238418579 0.08660253882408142 0
          0.9375075101852417 -0.319397896528244 0 0.8324699997901917 0.14284220337867737 0
          0.9600750803947449 -0.43971389532089233 0 0.8500000238418579 -0.08660253882408142 0
          0.7150853276252747 1.018962025642395 0 0.7654337286949158 0.21538899838924408 0
          0.8324699997901917 -0.14284220337867737 0 0.9678938984870911 -0.6856740713119507 0
          0.7070209980010986 0.4063687026500702 0 0.75 0.08660253882408142 0
          0.8092945218086243 -0.23232249915599823 0 0.8318619728088379 -0.35263851284980774 0
          0.75 -0.08660253882408142 0 0.6829637289047241 0.15914930403232574 0
          0.6141425967216492 0.7094823122024536 0 0.699999988079071 0 0
          0.7268245220184326 -0.1760828047990799 0 0.8064550161361694 -0.5485497117042542 0
          0.6600599884986877 0.04330126941204071 0 0.5785459280014038 0.5376487970352173 0
          0.615927517414093 0.23169609904289246 0 0.6600599884986877 -0.04330126941204071 0
          1 -1.2000000476837158 0 0.7036489844322205 -0.26556310057640076 0
          0.5930237174034119 0.11584799736738205 0 0.5 1.2000000476837158 0
          0.6368845105171204 -0.13278159499168396 0 0.8264175057411194 -0.9286928176879883 0
          0.678242027759552 -0.46147438883781433 0 0.5701199769973755 2.220446049250313e-16 0
          0.4874523878097534 0.3629761040210724 0 0.4301707148551941 0.8379232287406921 0
          0.6528350114822388 -0.6573855876922607 0 0.46278950572013855 0.17328590154647827 0
          0.5381790995597839 -0.23345430195331573 0 0.39457398653030396 0.6660897135734558 0
          0.47141459584236145 -0.10067269951105118 0 0.4398857057094574 0.05743790045380592 0
          0.3589772880077362 0.4942561089992523 0 0.5127720832824707 -0.42936548590660095 0
          0.7066044211387634 -1.0821729898452759 0 0.33431440591812134 0.30456599593162537 0
          0.5330219268798828 -0.8108659982681274 0 0.3727092146873474 -0.2013455033302307 0
          0.34118029475212097 -0.04323484003543854 0 0.3096514046192169 0.11487580090761185 0
          0.21508529782295227 1.018962025642395 0 0.21508529782295227 0.8189616203308105 0
          0.17948870360851288 0.6471279859542847 0 0.17948870360851288 0.4471279978752136 0
          0.3264175057411194 -0.5286927819252014 0 0.15482570230960846 0.25743791460990906 0
          0.5 -1.2000000476837158 0 0.4132086932659149 -0.9643464088439941 0
          0.1863546073436737 -0.10067269951105118 0 0.15482570230960846 0.05743790045380592 0
          0.3264175057411194 -0.7286928296089172 0 0.1863546073436737 -0.300672709941864 0
          0 1.2000000476837158 0 0 1 0
          0 0.800000011920929 0 0 0.6000000238418579 0
          0 0.4000000059604645 0 0 0.20000000298023224 0
          0 0 0 0.20660440623760223 -0.8821731805801392 0
          0 -0.20000000298023224 0 0.20660440623760223 -1.0821729898452759 0
          0 -0.4000000059604645 0 0 -0.6000000238418579 0
          0 -0.800000011920929 0 0 -1 0
          0 -1.2000000476837158 0
          <InformationKey name="L2_NORM_RANGE" location="vtkDataArray" length="2">
            <Value index="0">
              0
            </Value>
            <Value index="1">
              7.1021123699
            </Value>
          </InformationKey>
        </DataArray>
      </Points>
      <Cells>
        <DataArray type="Int64" Name="connectivity" format="ascii" RangeMin="0" RangeMax="182">
          104 122 108 113 116 105
          122 119 139 125 128 131
          119 104 101 109 102 111
          108 122 133 116 126 120
          139 119 130 128 123 134
          101 104 89 102 98 94
          104 108 89 105 99 98
          122 139 133 131 136 126
          119 101 130 111 115 123
          108 133 112 120 121 110
          139 130 155 134 143 147
          101 89 81 94 84 92
          112 133 142 121 138 127
          155 130 148 143 140 151
          81 89 70 84 79 76
          108 112 83 110 96 95
          139 155 153 147 154 146
          101 81 106 92 93 103
          142 133 153 138 144 149
          70 89 83 79 85 77
          153 155 174 154 165 164
          174 155 172 165 161 173
          148 130 106 140 118 129
          83 112 90 96 100 86
          106 81 78 93 80 91
          112 142 90 127 117 100
          81 70 64 76 68 72
          139 153 133 146 144 136
          155 148 172 151 159 161
          172 148 170 159 158 171
          108 83 89 95 85 99
          101 106 130 103 118 115
          153 174 178 164 176 167
          153 178 142 167 160 149
          168 170 141 169 157 156
          178 180 142 179 166 160
          180 182 163 181 177 175
          90 142 132 117 137 107
          78 81 64 80 72 71
          78 64 52 71 58 62
          64 70 55 68 61 59
          83 90 65 86 74 73
          106 78 87 91 82 97
          170 148 141 158 145 157
          87 78 52 82 62 63
          168 141 87 156 114 135
          163 182 132 177 162 150
          180 163 142 175 152 166
          142 163 132 152 150 137
          55 70 65 61 69 60
          64 55 52 59 53 58
          65 90 67 74 75 66
          83 65 70 73 69 77
          148 106 141 129 124 145
          90 132 67 107 88 75
          87 141 106 114 124 97
          65 67 50 66 57 56
          50 67 45 57 54 48
          65 50 55 56 51 60
          50 45 36 48 41 42
          52 55 44 53 49 47
          44 55 50 49 51 46
          52 44 37 47 40 43
          37 44 36 40 38 35
          36 45 33 41 39 34
          50 36 44 42 38 46
          33 27 24 31 25 28
          4 13 9 8 11 7
          24 27 9 25 17 15
          9 13 24 11 16 15
          4 9 5 7 6 3
          21 18 5 19 10 12
          26 37 36 32 35 29
          27 21 9 22 14 17
          13 26 24 20 23 16
          0 4 5 1 3 2
          33 24 36 28 30 34
          36 24 26 30 23 29
          5 9 21 6 14 12
        </DataArray>
        <DataArray type="Int64" Name="offsets" format="ascii" RangeMin="6" RangeMax="474">
          6 12 18 24 30 36
          42 48 54 60 66 72
          78 84 90 96 102 108
          114 120 126 132 138 144
          150 156 162 168 174 180
          186 192 198 204 210 216
          222 228 234 240 246 252
          258 264 270 276 282 288
          294 300 306 312 318 324
          330 336 342 348 354 360
          366 372 378 384 390 396
          402 408 414 420 426 432
          438 444 450 456 462 468
          474
        </DataArray>
        <DataArray type="UInt8" Name="types" format="ascii" RangeMin="22" RangeMax="22">
          22 22 22 22 22 22
          22 22 22 22 22 22
          22 22 22 22 22 22
          22 22 22 22 22 22
          22 22 22 22 22 22
          22 22 22 22 22 22
          22 22 22 22 22 22
          22 22 22 22 22 22
          22 22 22 22 22 22
          22 22 22 22 22 22
          22 22 22 22 22 22
          22 22 22 22 22 22
          22 22 22 22 22 22
          22
        </DataArray>
      </Cells>
    </Piece>
  </UnstructuredGrid>
</VTKFile>
