<?xml version="1.0"?>
<VTKFile type="UnstructuredGrid" version="0.1" byte_order="LittleEndian" header_type="UInt32" compressor="vtkZLibDataCompressor">
  <UnstructuredGrid>
    <Piece NumberOfPoints="141" NumberOfCells="306">
      <PointData>
        <DataArray type="Float64" Name="nsi_BC" NumberOfComponents="3" format="ascii" RangeMin="0" RangeMax="0">
          0 0 0 0 0 0
          0 0 0 0 0 0
          0 0 0 0 0 0
          0 0 0 0 0 0
          0 0 0 0 0 0
          0 0 0 0 0 0
          0 0 0 0 0 0
          0 0 0 0 0 0
          0 0 0 0 0 0
          0 0 0 0 0 0
          0 0 0 0 0 0
          0 0 0 0 0 0
          0 0 0 0 0 0
          0 0 0 0 0 0
          0 0 0 0 0 0
          0 0 0 0 0 0
          0 0 0 0 0 0
          0 0 0 0 0 0
          0 0 0 0 0 0
          0 0 0 0 0 0
          0 0 0 0 0 0
          0 0 0 0 0 0
          0 0 0 0 0 0
          0 0 0 0 0 0
          0 0 0 0 0 0
          0 0 0 0 0 0
          0 0 0 0 0 0
          0 0 0 0 0 0
          0 0 0 0 0 0
          0 0 0 0 0 0
          0 0 0 0 0 0
          0 0 0 0 0 0
          0 0 0 0 0 0
          0 0 0 0 0 0
          0 0 0 0 0 0
          0 0 0 0 0 0
          0 0 0 0 0 0
          0 0 0 0 0 0
          0 0 0 0 0 0
          0 0 0 0 0 0
          0 0 0 0 0 0
          0 0 0 0 0 0
          0 0 0 0 0 0
          0 0 0 0 0 0
          0 0 0 0 0 0
          0 0 0 0 0 0
          0 0 0 0 0 0
          0 0 0 0 0 0
          0 0 0 0 0 0
          0 0 0 0 0 0
          0 0 0 0 0 0
          0 0 0 0 0 0
          0 0 0 0 0 0
          0 0 0 0 0 0
          0 0 0 0 0 0
          0 0 0 0 0 0
          0 0 0 0 0 0
          0 0 0 0 0 0
          0 0 0 0 0 0
          0 0 0 0 0 0
          0 0 0 0 0 0
          0 0 0 0 0 0
          0 0 0 0 0 0
          0 0 0 0 0 0
          0 0 0 0 0 0
          0 0 0 0 0 0
          0 0 0 0 0 0
          0 0 0 0 0 0
          0 0 0 0 0 0
          0 0 0 0 0 0
          0 0 0
          <InformationKey name="L2_NORM_RANGE" location="vtkDataArray" length="2">
            <Value index="0">
              0
            </Value>
            <Value index="1">
              0
            </Value>
          </InformationKey>
        </DataArray>
        <DataArray type="Float64" Name="nsi_FIXNO" NumberOfComponents="3" format="ascii" RangeMin="1.7320508075688772" RangeMax="1.7320508075688772">
          -1 -1 -1 -1 -1 -1
          -1 -1 -1 -1 -1 -1
          -1 -1 -1 -1 -1 -1
          -1 -1 -1 -1 -1 -1
          -1 -1 -1 -1 -1 -1
          -1 -1 -1 -1 -1 -1
          -1 -1 -1 -1 -1 -1
          -1 -1 -1 -1 -1 -1
          -1 -1 -1 -1 -1 -1
          -1 -1 -1 -1 -1 -1
          -1 -1 -1 -1 -1 -1
          -1 -1 -1 -1 -1 -1
          -1 -1 -1 -1 -1 -1
          -1 -1 -1 -1 -1 -1
          -1 -1 -1 -1 -1 -1
          -1 -1 -1 -1 -1 -1
          -1 -1 -1 -1 -1 -1
          -1 -1 -1 -1 -1 -1
          -1 -1 -1 -1 -1 -1
          -1 -1 -1 -1 -1 -1
          -1 -1 -1 -1 -1 -1
          -1 -1 -1 -1 -1 -1
          -1 -1 -1 -1 -1 -1
          -1 -1 -1 -1 -1 -1
          -1 -1 -1 -1 -1 -1
          -1 -1 -1 -1 -1 -1
          -1 -1 -1 -1 -1 -1
          -1 -1 -1 -1 -1 -1
          -1 -1 -1 -1 -1 -1
          -1 -1 -1 -1 -1 -1
          -1 -1 -1 -1 -1 -1
          -1 -1 -1 -1 -1 -1
          -1 -1 -1 -1 -1 -1
          -1 -1 -1 -1 -1 -1
          -1 -1 -1 -1 -1 -1
          -1 -1 -1 -1 -1 -1
          -1 -1 -1 -1 -1 -1
          -1 -1 -1 -1 -1 -1
          -1 -1 -1 -1 -1 -1
          -1 -1 -1 -1 -1 -1
          -1 -1 -1 -1 -1 -1
          -1 -1 -1 -1 -1 -1
          -1 -1 -1 -1 -1 -1
          -1 -1 -1 -1 -1 -1
          -1 -1 -1 -1 -1 -1
          -1 -1 -1 -1 -1 -1
          -1 -1 -1 -1 -1 -1
          -1 -1 -1 -1 -1 -1
          -1 -1 -1 -1 -1 -1
          -1 -1 -1 -1 -1 -1
          -1 -1 -1 -1 -1 -1
          -1 -1 -1 -1 -1 -1
          -1 -1 -1 -1 -1 -1
          -1 -1 -1 -1 -1 -1
          -1 -1 -1 -1 -1 -1
          -1 -1 -1 -1 -1 -1
          -1 -1 -1 -1 -1 -1
          -1 -1 -1 -1 -1 -1
          -1 -1 -1 -1 -1 -1
          -1 -1 -1 -1 -1 -1
          -1 -1 -1 -1 -1 -1
          -1 -1 -1 -1 -1 -1
          -1 -1 -1 -1 -1 -1
          -1 -1 -1 -1 -1 -1
          -1 -1 -1 -1 -1 -1
          -1 -1 -1 -1 -1 -1
          -1 -1 -1 -1 -1 -1
          -1 -1 -1 -1 -1 -1
          -1 -1 -1 -1 -1 -1
          -1 -1 -1 -1 -1 -1
          -1 -1 -1
          <InformationKey name="L2_NORM_RANGE" location="vtkDataArray" length="2">
            <Value index="0">
              1.7320508076
            </Value>
            <Value index="1">
              1.7320508076
            </Value>
          </InformationKey>
        </DataArray>
        <DataArray type="Float64" Name="Velocity" NumberOfComponents="3" format="ascii" RangeMin="0.19741916413108973" RangeMax="0.20674794686516546">
          0.20674794686516546 -5.570084819585053e-10 4.4625158623259544e-10 0.19819882621878934 -6.099612860278543e-10 6.657796135857182e-10
          0.20530824787080681 -6.016547749825838e-10 4.984093983858975e-10 0.19819882623329893 -4.2164070686468305e-10 5.389549083795339e-10
          0.19767636606657685 -7.133935037209318e-10 4.013980254410663e-10 0.1980059340645589 -5.273365342794746e-10 5.194917526662813e-10
          0.20674794598234456 -5.349225321062585e-10 4.5498299085609765e-10 0.20674794594600332 -5.850391933501493e-10 4.6137286662515836e-10
          0.19994815747617542 -4.905517465648522e-10 6.221233113542183e-10 0.19819882618550402 -1.0977095611990662e-9 6.685217321356536e-10
          0.19819882613367992 -4.3138054024827716e-10 5.851183648366989e-11 0.1980059344505861 -5.488034520348773e-10 3.3790604317366677e-10
          0.19800593451159082 -6.958120690517632e-10 5.621193527307741e-10 0.20674794505068406 -5.665089044080146e-10 4.797194964961294e-10
          0.2053082469043494 -5.978427805028209e-10 5.059557286953902e-10 0.19819882611482745 -5.899751861167783e-10 5.570141109486785e-10
          0.20024329741369387 -5.562378921084443e-10 4.986283854018357e-10 0.2002432974765903 -5.715765279522603e-10 5.223898986911425e-10
          0.19767636611104533 -5.922088401223348e-10 4.206022957082009e-10 0.20013019322702844 -5.574322739880826e-10 5.190044834372736e-10
          0.1980059349110914 -7.236116331109542e-10 4.1220676389825356e-10 0.2002432973145353 -5.702300955980793e-10 5.468161473869586e-10
          0.19994815802059318 -5.992323312627103e-10 6.358422376622336e-10 0.19819882600936514 -5.760465774100663e-10 6.396706336318452e-11
          0.200243297262387 -5.601946908325737e-10 5.346692073207028e-10 0.1979582971125218 -5.365025969517271e-10 4.480482652383047e-10
          0.20674794603605093 -5.581450012520545e-10 4.690275922820209e-10 0.20024329741533867 -5.921494928637742e-10 5.503663955889441e-10
          0.19819882625992294 -1.184269748412448e-10 6.638545609048012e-10 0.20024329729007623 -5.722291355934456e-10 4.869101696763218e-10
          0.19989719401097833 -6.606190831657405e-10 3.87523661856766e-10 0.20013019310934488 -5.894108010142094e-10 5.418219642432226e-10
          0.20013019303798363 -5.775039852644422e-10 5.264260743261869e-10 0.19795829759132874 -3.9653497330275867e-10 4.631607489098369e-10
          0.20674794511200192 -5.689375932825856e-10 4.676272635330094e-10 0.19795829754145228 -5.431327070069412e-10 5.907125217035266e-10
          0.1980059345827259 -4.369181427751848e-10 5.258568287558233e-10 0.20024329720929093 -6.033007629474174e-10 5.471474273774169e-10
          0.20024329719178274 -5.850653770438672e-10 5.295597183262898e-10 0.19795829802259785 -4.218740284904561e-10 6.455885705457347e-10
          0.19800593498930122 -4.4922824038781466e-10 3.674108139700832e-10 0.19989719457451302 -5.830916114696809e-10 4.0310591686272706e-10
          0.19800394222753523 -6.082824534561365e-10 2.9226771551958587e-10 0.19800394225631177 -7.131706989267994e-10 4.4929082972691623e-10
          0.20024329738682442 -5.83040832710855e-10 5.048209101367747e-10 0.1998971944744729 -6.770524965941588e-10 4.996846792023609e-10
          0.2053082479659875 -5.94065568448495e-10 4.639360777444554e-10 0.19819882633234123 -7.514821984138888e-10 5.393304865856183e-10
          0.19741916415254035 -4.752027694177488e-10 5.806956998683856e-10 0.19767636616967244 -4.869980254362993e-10 3.9819823304876797e-10
          0.19800394225293227 -9.877779840390073e-11 3.260834674114181e-10 0.1980039422221196 -7.387988008932801e-10 9.722193364740317e-10
          0.1999481575722326 -6.609076249459153e-10 6.052906926595103e-10 0.19800394210981645 -5.596181603714175e-10 4.662131042222978e-10
          0.19800394208148012 -5.997344706038376e-10 4.6180907594856776e-10 0.19741916416090333 -5.74155700830649e-10 5.955595339681545e-10
          0.19741916413108973 -4.669130513165616e-10 4.953637003467363e-10 0.20674794686516546 -5.570084819585053e-10 4.4625158623259544e-10
          0.20674794686516546 -5.570084819585053e-10 4.4625158623259544e-10 0.1980039420858195 -5.622711881867828e-10 9.813708265567925e-10
          0.20530824787080681 -6.016547749825838e-10 4.984093983858975e-10 0.19819882621878934 -6.099612860278543e-10 6.657796135857182e-10
          0.1980059340645589 -5.273365342794746e-10 5.194917526662813e-10 0.20674794598234456 -5.349225321062585e-10 4.5498299085609765e-10
          0.20674794594600332 -5.850391933501493e-10 4.6137286662515836e-10 0.20674794505068406 -5.665089044080146e-10 4.797194964961294e-10
          0.20530824685572446 -5.826433340243716e-10 5.187058832133296e-10 0.2053082469043494 -5.978427805028209e-10 5.059557286953902e-10
          0.197958298060323 -6.831717960145897e-10 5.841561047900058e-10 0.20024329727818907 -5.792751959130751e-10 4.81159659480262e-10
          0.20013019308559865 -5.500846364329708e-10 4.5379341504214687e-10 0.19800593503655592 -4.193486088797885e-10 6.410198325568594e-10
          0.20024329730176138 -5.6058711128534e-10 4.692751181660892e-10 0.1980059344505861 -5.488034520348773e-10 3.3790604317366677e-10
          0.19994815803975688 -6.631568442449956e-10 5.113916438297978e-10 0.19819882607176953 -7.85537042259088e-11 5.129454549275869e-10
          0.19767636611510914 -4.5975942065814297e-10 5.007238653635629e-10 0.2067479451589613 -5.494390782923887e-10 4.906955231557825e-10
          0.19819882623088336 -7.599259486198455e-10 2.5208251248980063e-11 0.20674794594600332 -5.850391933501493e-10 4.6137286662515836e-10
          0.20530824692321342 -5.956749753393519e-10 4.840899461164399e-10 0.19795829761923484 -6.96396936595153e-10 4.4959681006144446e-10
          0.20013019324331707 -5.49529357876714e-10 4.634510196431133e-10 0.20024329747547404 -5.598781746379292e-10 4.770506947133909e-10
          0.19800394210620673 -8.389503338342959e-11 4.8590999803507e-10 0.19741916414879868 -5.507974352098275e-10 4.571164733203891e-10
          0.1979582980579922 -4.049996133516347e-10 3.0325170439214323e-10 0.19989719505763578 -5.525465634642281e-10 4.489471152914329e-10
          0.2001301929793653 -5.834814876381145e-10 4.868355391589251e-10 0.19800593496562088 -6.915434849931969e-10 6.792832193154366e-10
          0.1999481585051959 -5.935156412882955e-10 5.547877042233238e-10 0.19819882599820288 -1.0825426217889348e-9 5.435233008462132e-10
          0.19767636607208564 -5.595458620915126e-10 5.294847497014128e-10 0.2067479451086033 -5.255265557704584e-10 4.764144758787876e-10
          0.2053082458677046 -5.565827828815152e-10 4.822489560969411e-10 0.197958297570055 -5.480893643189294e-10 2.8511641160643586e-10
          0.19800593450376955 -5.710658535572103e-10 6.279664393972508e-10 0.20024329731970425 -5.726363984393876e-10 5.184586224688434e-10
          0.19994815791468684 -5.034012615406983e-10 5.492460442293462e-10 0.19819882603378133 -5.993213549324904e-10 4.971021021420706e-10
          0.19767636603867955 -7.04566182613117e-10 5.241024948901556e-10 0.20674794598311125 -5.775889183190278e-10 4.763290644903086e-10
          0.20530824685572446 -5.826433340243716e-10 5.187058832133296e-10 0.1979582971125218 -5.365025969517271e-10 4.480482652383047e-10
          0.20024329741369387 -5.562378921084443e-10 4.986283854018357e-10 0.2067479451086033 -5.255265557704584e-10 4.764144758787876e-10
          0.20674794511200192 -5.689375932825856e-10 4.676272635330094e-10 0.2053082458677046 -5.565827828815152e-10 4.822489560969411e-10
          0.20674794603605093 -5.581450012520545e-10 4.690275922820209e-10 0.19800394227407989 -1.079682431184662e-9 2.9705625128529236e-10
          0.20674794598311125 -5.775889183190278e-10 4.763290644903086e-10 0.19800394226848306 -7.100085680894563e-10 -3.116614788864249e-11
          0.19819882623329893 -4.2164070686468305e-10 5.389549083795339e-10 0.1980059340645589 -5.273365342794746e-10 5.194917526662813e-10
          0.19800593451159082 -6.958120690517632e-10 5.621193527307741e-10 0.19819882611482745 -5.899751861167783e-10 5.570141109486785e-10
          0.2002432974765903 -5.715765279522603e-10 5.223898986911425e-10 0.20024329741533867 -5.921494928637742e-10 5.503663955889441e-10
          0.1980059345827259 -4.369181427751848e-10 5.258568287558233e-10 0.19819882633234123 -7.514821984138888e-10 5.393304865856183e-10
          0.20024329747547404 -5.598781746379292e-10 4.770506947133909e-10 0.19800593450376955 -5.710658535572103e-10 6.279664393972508e-10
          0.19819882603378133 -5.993213549324904e-10 4.971021021420706e-10 0.20674794686516546 -5.570084819585053e-10 4.4625158623259544e-10
          0.20674794598234456 -5.349225321062585e-10 4.5498299085609765e-10 0.20674794594600332 -5.850391933501493e-10 4.6137286662515836e-10
          0.1979582971125218 -5.365025969517271e-10 4.480482652383047e-10 0.20674794603605093 -5.581450012520545e-10 4.690275922820209e-10
          0.20024329729007623 -5.722291355934456e-10 4.869101696763218e-10 0.19795829759132874 -3.9653497330275867e-10 4.631607489098369e-10
          0.19795829754145228 -5.431327070069412e-10 5.907125217035266e-10 0.19800394222753523 -6.082824534561365e-10 2.9226771551958587e-10
          0.19800394225631177 -7.131706989267994e-10 4.4929082972691623e-10 0.2053082479659875 -5.94065568448495e-10 4.639360777444554e-10
          0.19800394210981645 -5.596181603714175e-10 4.662131042222978e-10 0.19800394208148012 -5.997344706038376e-10 4.6180907594856776e-10
          0.2067479451589613 -5.494390782923887e-10 4.906955231557825e-10 0.20530824692321342 -5.956749753393519e-10 4.840899461164399e-10
          0.19795829761923484 -6.96396936595153e-10 4.4959681006144446e-10 0.197958297570055 -5.480893643189294e-10 2.8511641160643586e-10
          0.20674794598311125 -5.775889183190278e-10 4.763290644903086e-10
          <InformationKey name="L2_NORM_RANGE" location="vtkDataArray" length="2">
            <Value index="0">
              0.19741916413
            </Value>
            <Value index="1">
              0.20674794687
            </Value>
          </InformationKey>
        </DataArray>
        <DataArray type="Float64" Name="Pressure" format="ascii" RangeMin="-0.023055477990320435" RangeMax="0.024256331519194388">
          0.0003825088065493649 -0.019752023187060038 0.00036544943167989854 -0.019752023150933225 -0.023055475075901347 -0.01888567837529623
          0.0003825088357063511 0.00038250877999962727 -0.01670623201170918 -0.01975202459195098 -0.019752024612250726 -0.01888567846876002
          -0.01888567840458153 0.0003825088179355416 0.0003654494663991851 -0.019752025368475198 0.000763762530682804 0.000763762565877224
          -0.023055476526330915 0.0007703963631464358 -0.018885678485841766 0.0007637625444497641 -0.016706231985205836 -0.0197520268275799
          0.0007637625242545006 0.020363884719915907 0.00038250885564418164 0.0007637625819541217 -0.01975202456351003 0.0007637625424913358
          0.01815530420288214 0.0007703963885768673 0.0007703963866388367 0.02036388475045083 0.00038250883589279676 0.020363884695341266
          -0.018885678389683504 0.0007637625491408303 0.0007637625710324806 0.02036388473691338 -0.018885678474411076 0.018155304227793177
          0.02093643106590584 0.020936431091766464 0.0007637625496282567 0.018155304214182 0.00036544945132712466 -0.01975202312643826
          0.024256328489589047 -0.023055475044668993 0.020936432508572588 0.02093643248227215 -0.01670623199607124 0.020936433379143884
          0.020936433332904934 0.024256330025078682 0.024256329996786934 0.0003825088065493649 0.0003825088065493649 0.02093643478321504
          0.00036544943167989854 -0.019752023187060038 -0.01888567837529623 0.0003825088357063511 0.00038250877999962727 0.0003825088179355416
          0.00036544944991918427 0.0003654494663991851 0.02036388473487464 0.0007637625639310208 0.0007703963740086189 -0.018885678418576635
          0.0007637625211337841 -0.01888567846876002 -0.016706231986459142 -0.019752026798677012 -0.023055476519807445 0.0003825088718785854
          -0.019752024590520858 0.00038250877999962727 0.0003654494644346308 0.020363884746467612 0.0007703963628650917 0.0007637625602671586
          0.02093643478834178 0.024256331519194388 0.02036388477322293 0.018155304232170315 0.0007703964176771574 -0.018885678416585384
          -0.01670623196038969 -0.019752026809071874 -0.023055477990320435 0.0003825088640113958 0.00036544945845496 0.020363884729723836
          -0.01888567840220165 0.000763762580078769 -0.01670623197972769 -0.019752025410012922 -0.02305547652849798 0.00038250882856094825
          0.00036544944991918427 0.020363884719915907 0.000763762530682804 0.0003825088640113958 0.00038250883589279676 0.00036544945845496
          0.00038250885564418164 0.020936432517230586 0.00038250882856094825 0.020936432519857495 -0.019752023150933225 -0.01888567837529623
          -0.01888567840458153 -0.019752025368475198 0.000763762565877224 0.0007637625819541217 -0.018885678389683504 -0.01975202312643826
          0.0007637625602671586 -0.01888567840220165 -0.019752025410012922 0.0003825088065493649 0.0003825088357063511 0.00038250877999962727
          0.020363884719915907 0.00038250885564418164 0.0007637625424913358 0.02036388475045083 0.020363884695341266 0.02093643106590584
          0.020936431091766464 0.00036544945132712466 0.020936433379143884 0.020936433332904934 0.0003825088718785854 0.0003654494644346308
          0.020363884746467612 0.020363884729723836 0.00038250882856094825
        </DataArray>
      </PointData>
      <CellData>
        <DataArray type="UInt8" Name="vtkGhostType" format="ascii" RangeMin="0" RangeMax="1">
          0 0 0 0 0 0
          0 0 0 0 0 0
          0 0 0 0 0 0
          0 0 0 0 0 0
          0 0 0 0 0 0
          0 0 0 0 0 0
          0 0 0 0 0 0
          0 0 0 0 0 0
          0 0 0 0 0 0
          0 0 0 0 0 0
          0 0 0 0 0 0
          0 0 0 0 0 0
          0 0 0 0 0 0
          0 0 0 0 0 0
          0 0 0 0 0 0
          0 0 0 0 0 0
          0 0 0 0 0 0
          0 0 0 0 0 0
          0 0 0 0 0 0
          0 0 0 0 0 0
          0 0 0 0 0 0
          0 0 0 0 0 0
          0 0 0 0 0 0
          0 0 0 0 0 0
          0 0 0 0 0 0
          0 0 0 0 0 0
          0 0 0 0 0 0
          0 0 0 0 0 0
          0 0 0 0 0 0
          0 0 0 0 0 0
          0 0 0 0 0 0
          0 0 0 0 0 0
          0 0 0 0 0 0
          0 0 0 0 0 0
          0 0 0 0 0 0
          0 0 0 0 0 0
          0 0 0 0 0 0
          0 0 0 0 0 0
          0 0 0 0 0 0
          0 0 0 0 0 0
          0 0 0 0 0 0
          0 0 0 0 0 0
          0 0 0 0 0 0
          0 0 0 0 0 0
          0 0 0 0 0 0
          0 0 0 0 0 0
          0 0 0 0 0 0
          0 0 0 0 0 0
          0 0 0 0 0 0
          0 0 0 0 0 0
          0 0 0 0 0 1
        </DataArray>
      </CellData>
      <Points>
        <DataArray type="Float32" Name="Points" NumberOfComponents="3" format="ascii" RangeMin="0" RangeMax="1.7320508075688772">
          1 1 1 0.8333333134651184 1 0.8333333134651184
          1 0.8333333134651184 0.8333333134651184 0.8333333134651184 0.8333333134651184 1
          0.8333333134651184 0.8333333134651184 0.8333333134651184 0.6666666865348816 1 1
          1 0.6666666865348816 1 1 1 0.6666666865348816
          0.6666666865348816 0.8333333134651184 0.8333333134651184 0.8333333134651184 0.6666666865348816 0.8333333134651184
          0.8333333134651184 0.8333333134651184 0.6666666865348816 0.6666666865348816 1 0.6666666865348816
          0.6666666865348816 0.6666666865348816 1 1 0.6666666865348816 0.6666666865348816
          1 0.5 0.8333333134651184 0.8333333134651184 0.5 1
          0.5 1 0.8333333134651184 0.5 0.8333333134651184 1
          0.8333333134651184 0.5 0.8333333134651184 0.5 0.8333333134651184 0.8333333134651184
          0.6666666865348816 0.6666666865348816 0.6666666865348816 0.5 0.6666666865348816 0.8333333134651184
          0.6666666865348816 0.5 0.8333333134651184 0.8333333134651184 0.5 0.6666666865348816
          0.5 0.8333333134651184 0.6666666865348816 0.3333333134651184 1 1
          1 0.3333333134651184 1 0.5 0.5 1
          0.8333333134651184 0.3333333134651184 0.8333333134651184 0.5 1 0.5
          0.3333333134651184 0.8333333134651184 0.8333333134651184 0.5 0.5 0.8333333134651184
          0.5 0.8333333134651184 0.5 0.3333333134651184 0.6666666865348816 1
          1 0.3333333134651184 0.6666666865348816 0.3333333134651184 1 0.6666666865348816
          0.6666666865348816 0.3333333134651184 1 0.5 0.5 0.6666666865348816
          0.5 0.6666666865348816 0.5 0.3333333134651184 0.6666666865348816 0.6666666865348816
          0.6666666865348816 0.3333333134651184 0.6666666865348816 0.3333333134651184 0.5 0.8333333134651184
          0.16666670143604279 1 0.8333333134651184 0.16666670143604279 0.8333333134651184 1
          0.5 0.3333333134651184 0.8333333134651184 0.3333333134651184 0.8333333134651184 0.5
          1 0.16666670143604279 0.8333333134651184 0.8333333134651184 0.16666670143604279 1
          0.16666670143604279 0.8333333134651184 0.8333333134651184 0.8333333134651184 0.16666670143604279 0.8333333134651184
          0.16666670143604279 0.6666666865348816 0.8333333134651184 0.16666670143604279 0.8333333134651184 0.6666666865348816
          0.6666666865348816 0.16666670143604279 0.8333333134651184 0.16666670143604279 0.5 1
          0.16666670143604279 1 0.5 0.16666670143604279 0.5 0.8333333134651184
          0.16666670143604279 0.8333333134651184 0.5 1 0 1
          0 1 1 0.16666670143604279 0.5 0.6666666865348816
          0 0.8333333134651184 0.8333333134651184 0.8333333134651184 0 0.8333333134651184
          0.6666666865348816 0 1 0 0.6666666865348816 1
          0 1 0.6666666865348816 0 0.6666666865348816 0.6666666865348816
          0 0.8333333134651184 0.5 0 0.5 0.8333333134651184
          0.3333333134651184 0.3333333134651184 0.6666666865348816 0.5 0.3333333134651184 0.5
          0.5 0.16666670143604279 0.5 0.6666666865348816 0.3333333134651184 0.3333333134651184
          0.5 0.16666670143604279 0.6666666865348816 0.6666666865348816 0 0.6666666865348816
          0.6666666865348816 0.16666670143604279 0.5 0.8333333134651184 0.3333333134651184 0.5
          0.8333333134651184 0.16666670143604279 0.5 1 0.3333333134651184 0.3333333134651184
          0.8333333134651184 0.16666670143604279 0.6666666865348816 1 0 0.6666666865348816
          1 0.16666670143604279 0.5 0.3333333134651184 0.3333333134651184 1
          0.5 0.16666670143604279 0.8333333134651184 0.5 0.16666670143604279 1
          0.16666670143604279 0.6666666865348816 0.5 0.16666670143604279 0.5 0.5
          0.3333333134651184 0.6666666865348816 0.3333333134651184 0.3333333134651184 0.5 0.5
          0.5 0.5 0.5 0.6666666865348816 0.6666666865348816 0.3333333134651184
          0.6666666865348816 0.5 0.5 0.8333333134651184 0.6666666865348816 0.5
          0.8333333134651184 0.5 0.5 1 0.6666666865348816 0.3333333134651184
          1 0.5 0.5 0.3333333134651184 1 0.3333333134651184
          0.6666666865348816 1 0.3333333134651184 0.5 0.8333333134651184 0.3333333134651184
          0.6666666865348816 0.8333333134651184 0.5 0.8333333134651184 1 0.5
          0.8333333134651184 0.8333333134651184 0.5 1 1 0.3333333134651184
          1 0.8333333134651184 0.5 0.3333333134651184 0 1
          0.5 0 0.8333333134651184 0 0.6666666865348816 0.3333333134651184
          0 0.3333333134651184 0.6666666865348816 0 0.5 0.5
          0 0.3333333134651184 1 0.16666670143604279 0.3333333134651184 0.8333333134651184
          0 1 0.3333333134651184 0.16666670143604279 0.8333333134651184 0.3333333134651184
          0.8333333134651184 0.8333333134651184 0 0.6666666865348816 0 0
          0.6666666865348816 0.6666666865348816 0 0.8333333134651184 0.5 0
          0.5 0.8333333134651184 0 0.5 0.5 0
          0.6666666865348816 0.3333333134651184 0 0.8333333134651184 0.16666670143604279 0
          0.5 0.16666670143604279 0 0.6666666865348816 0 0.3333333134651184
          0.8333333134651184 0 0.5 0 0 0
          0 0.6666666865348816 0 0 0 0.6666666865348816
          0.3333333134651184 0 0 0 0.3333333134651184 0
          0.5 0 0.5 0.3333333134651184 0.6666666865348816 0
          0.3333333134651184 0 0.6666666865348816 0.16666670143604279 0 0.8333333134651184
          0.16666670143604279 0.8333333134651184 0 0 0.16666670143604279 0.8333333134651184
          0.16666670143604279 0.5 0 0.16666670143604279 0 0.5
          0 0.3333333134651184 0.3333333134651184 0 0.16666670143604279 0.5
          0.3333333134651184 0.3333333134651184 0 0.3333333134651184 0 0.3333333134651184
          0 0 0.3333333134651184
          <InformationKey name="L2_NORM_RANGE" location="vtkDataArray" length="2">
            <Value index="0">
              0
            </Value>
            <Value index="1">
              1.7320508076
            </Value>
          </InformationKey>
        </DataArray>
      </Points>
      <Cells>
        <DataArray type="Int64" Name="connectivity" format="ascii" RangeMin="0" RangeMax="111">
          40 68 69 70 71 40
          69 70 68 40 72 70
          40 73 72 70 40 71
          74 70 73 40 74 70
          34 40 75 76 40 71
          75 76 77 34 75 76
          40 34 78 76 34 79
          78 76 73 40 78 76
          71 40 74 76 40 73
          74 76 34 77 80 76
          79 34 80 76 36 81
          44 82 81 68 44 82
          68 40 44 82 40 36
          44 82 81 36 83 82
          36 62 83 82 73 40
          72 82 40 68 72 82
          36 40 52 82 40 73
          52 82 62 36 52 82
          26 36 28 49 36 40
          28 49 40 34 28 49
          34 26 28 49 36 26
          47 49 26 57 47 49
          57 62 47 49 62 36
          47 49 40 36 52 49
          36 62 52 49 73 40
          52 49 40 73 78 49
          79 34 78 49 34 40
          78 49 26 34 46 49
          34 79 46 49 79 57
          46 49 57 26 46 49
          39 65 84 85 86 39
          84 85 65 39 59 85
          39 68 59 85 39 86
          87 85 68 39 87 85
          20 39 38 88 39 86
          38 88 86 89 38 88
          89 20 38 88 39 20
          37 88 20 40 37 88
          40 68 37 88 68 39
          37 88 86 39 87 88
          39 68 87 88 20 89
          90 88 71 40 90 88
          40 20 90 88 68 40
          69 88 40 71 69 88
          13 20 91 92 20 89
          91 92 93 13 91 92
          20 13 23 92 13 34
          23 92 34 40 23 92
          40 20 23 92 89 20
          90 92 20 40 90 92
          40 71 90 92 13 93
          94 92 77 34 94 92
          34 13 94 92 40 34
          75 92 34 77 75 92
          71 40 75 92 33 63
          50 55 65 39 50 55
          39 33 50 55 63 33
          53 55 33 81 53 55
          68 39 59 55 39 65
          59 55 33 39 41 55
          39 68 41 55 68 81
          41 55 81 33 41 55
          12 33 21 31 33 39
          21 31 39 20 21 31
          20 12 21 31 33 12
          27 31 12 36 27 31
          36 81 27 31 81 33
          27 31 39 33 41 31
          33 81 41 31 81 68
          41 31 68 39 41 31
          39 68 37 31 68 40
          37 31 40 20 37 31
          20 39 37 31 12 20
          22 31 20 40 22 31
          40 36 22 31 36 12
          22 31 81 36 44 31
          36 40 44 31 40 68
          44 31 68 81 44 31
          6 12 9 18 12 20
          9 18 20 13 9 18
          13 6 9 18 12 6
          15 18 6 26 15 18
          26 36 15 18 36 12
          15 18 20 12 22 18
          12 36 22 18 36 40
          22 18 40 20 22 18
          20 40 23 18 40 34
          23 18 34 13 23 18
          13 20 23 18 6 13
          14 18 13 34 14 18
          34 26 14 18 26 6
          14 18 36 26 28 18
          26 34 28 18 34 40
          28 18 40 36 28 18
          35 64 54 56 95 35
          54 56 64 35 51 56
          35 39 51 56 39 65
          51 56 35 95 45 56
          95 86 45 56 86 39
          45 56 39 35 45 56
          65 39 84 56 39 86
          84 56 11 35 29 32
          35 95 29 32 95 96
          29 32 96 11 29 32
          35 11 24 32 11 20
          24 32 20 39 24 32
          39 35 24 32 95 35
          45 32 35 39 45 32
          39 86 45 32 86 95
          45 32 95 86 97 32
          86 89 97 32 89 96
          97 32 96 95 97 32
          11 96 98 32 96 89
          98 32 89 20 98 32
          20 11 98 32 39 20
          38 32 20 89 38 32
          89 86 38 32 86 39
          38 32 7 11 99 100
          11 96 99 100 101 7
          99 100 11 7 10 100
          7 13 10 100 13 20
          10 100 20 11 10 100
          96 11 98 100 11 20
          98 100 20 89 98 100
          7 101 102 100 93 13
          102 100 13 7 102 100
          20 13 91 100 13 93
          91 100 89 20 91 100
          25 58 42 48 58 64
          42 48 64 35 42 48
          35 25 42 48 58 25
          43 48 25 33 43 48
          33 63 43 48 63 58
          43 48 64 58 60 48
          58 63 60 48 63 65
          60 48 65 64 60 48
          64 65 51 48 65 39
          51 48 39 35 51 48
          35 64 51 48 25 35
          30 48 35 39 30 48
          39 33 30 48 33 25
          30 48 63 33 50 48
          33 39 50 48 39 65
          50 48 65 63 50 48
          5 25 16 19 25 35
          16 19 35 11 16 19
          11 5 16 19 25 5
          17 19 5 12 17 19