<?xml version="1.0"?>
<VTKFile type="UnstructuredGrid" version="0.1" byte_order="LittleEndian" header_type="UInt32" compressor="vtkZLibDataCompressor">
  <UnstructuredGrid>
    <Piece NumberOfPoints="146" NumberOfCells="345">
      <PointData>
        <DataArray type="Float64" Name="nsi_BC" NumberOfComponents="3" format="ascii" RangeMin="0" RangeMax="0">
          0 0 0 0 0 0
          0 0 0 0 0 0
          0 0 0 0 0 0
          0 0 0 0 0 0
          0 0 0 0 0 0
          0 0 0 0 0 0
          0 0 0 0 0 0
          0 0 0 0 0 0
          0 0 0 0 0 0
          0 0 0 0 0 0
          0 0 0 0 0 0
          0 0 0 0 0 0
          0 0 0 0 0 0
          0 0 0 0 0 0
          0 0 0 0 0 0
          0 0 0 0 0 0
          0 0 0 0 0 0
          0 0 0 0 0 0
          0 0 0 0 0 0
          0 0 0 0 0 0
          0 0 0 0 0 0
          0 0 0 0 0 0
          0 0 0 0 0 0
          0 0 0 0 0 0
          0 0 0 0 0 0
          0 0 0 0 0 0
          0 0 0 0 0 0
          0 0 0 0 0 0
          0 0 0 0 0 0
          0 0 0 0 0 0
          0 0 0 0 0 0
          0 0 0 0 0 0
          0 0 0 0 0 0
          0 0 0 0 0 0
          0 0 0 0 0 0
          0 0 0 0 0 0
          0 0 0 0 0 0
          0 0 0 0 0 0
          0 0 0 0 0 0
          0 0 0 0 0 0
          0 0 0 0 0 0
          0 0 0 0 0 0
          0 0 0 0 0 0
          0 0 0 0 0 0
          0 0 0 0 0 0
          0 0 0 0 0 0
          0 0 0 0 0 0
          0 0 0 0 0 0
          0 0 0 0 0 0
          0 0 0 0 0 0
          0 0 0 0 0 0
          0 0 0 0 0 0
          0 0 0 0 0 0
          0 0 0 0 0 0
          0 0 0 0 0 0
          0 0 0 0 0 0
          0 0 0 0 0 0
          0 0 0 0 0 0
          0 0 0 0 0 0
          0 0 0 0 0 0
          0 0 0 0 0 0
          0 0 0 0 0 0
          0 0 0 0 0 0
          0 0 0 0 0 0
          0 0 0 0 0 0
          0 0 0 0 0 0
          0 0 0 0 0 0
          0 0 0 0 0 0
          0 0 0 0 0 0
          0 0 0 0 0 0
          0 0 0 0 0 0
          0 0 0 0 0 0
          0 0 0 0 0 0
          <InformationKey name="L2_NORM_RANGE" location="vtkDataArray" length="2">
            <Value index="0">
              0
            </Value>
            <Value index="1">
              0
            </Value>
          </InformationKey>
        </DataArray>
        <DataArray type="Float64" Name="nsi_FIXNO" NumberOfComponents="3" format="ascii" RangeMin="1.7320508075688772" RangeMax="1.7320508075688772">
          -1 -1 -1 -1 -1 -1
          -1 -1 -1 -1 -1 -1
          -1 -1 -1 -1 -1 -1
          -1 -1 -1 -1 -1 -1
          -1 -1 -1 -1 -1 -1
          -1 -1 -1 -1 -1 -1
          -1 -1 -1 -1 -1 -1
          -1 -1 -1 -1 -1 -1
          -1 -1 -1 -1 -1 -1
          -1 -1 -1 -1 -1 -1
          -1 -1 -1 -1 -1 -1
          -1 -1 -1 -1 -1 -1
          -1 -1 -1 -1 -1 -1
          -1 -1 -1 -1 -1 -1
          -1 -1 -1 -1 -1 -1
          -1 -1 -1 -1 -1 -1
          -1 -1 -1 -1 -1 -1
          -1 -1 -1 -1 -1 -1
          -1 -1 -1 -1 -1 -1
          -1 -1 -1 -1 -1 -1
          -1 -1 -1 -1 -1 -1
          -1 -1 -1 -1 -1 -1
          -1 -1 -1 -1 -1 -1
          -1 -1 -1 -1 -1 -1
          -1 -1 -1 -1 -1 -1
          -1 -1 -1 -1 -1 -1
          -1 -1 -1 -1 -1 -1
          -1 -1 -1 -1 -1 -1
          -1 -1 -1 -1 -1 -1
          -1 -1 -1 -1 -1 -1
          -1 -1 -1 -1 -1 -1
          -1 -1 -1 -1 -1 -1
          -1 -1 -1 -1 -1 -1
          -1 -1 -1 -1 -1 -1
          -1 -1 -1 -1 -1 -1
          -1 -1 -1 -1 -1 -1
          -1 -1 -1 -1 -1 -1
          -1 -1 -1 -1 -1 -1
          -1 -1 -1 -1 -1 -1
          -1 -1 -1 -1 -1 -1
          -1 -1 -1 -1 -1 -1
          -1 -1 -1 -1 -1 -1
          -1 -1 -1 -1 -1 -1
          -1 -1 -1 -1 -1 -1
          -1 -1 -1 -1 -1 -1
          -1 -1 -1 -1 -1 -1
          -1 -1 -1 -1 -1 -1
          -1 -1 -1 -1 -1 -1
          -1 -1 -1 -1 -1 -1
          -1 -1 -1 -1 -1 -1
          -1 -1 -1 -1 -1 -1
          -1 -1 -1 -1 -1 -1
          -1 -1 -1 -1 -1 -1
          -1 -1 -1 -1 -1 -1
          -1 -1 -1 -1 -1 -1
          -1 -1 -1 -1 -1 -1
          -1 -1 -1 -1 -1 -1
          -1 -1 -1 -1 -1 -1
          -1 -1 -1 -1 -1 -1
          -1 -1 -1 -1 -1 -1
          -1 -1 -1 -1 -1 -1
          -1 -1 -1 -1 -1 -1
          -1 -1 -1 -1 -1 -1
          -1 -1 -1 -1 -1 -1
          -1 -1 -1 -1 -1 -1
          -1 -1 -1 -1 -1 -1
          -1 -1 -1 -1 -1 -1
          -1 -1 -1 -1 -1 -1
          -1 -1 -1 -1 -1 -1
          -1 -1 -1 -1 -1 -1
          -1 -1 -1 -1 -1 -1
          -1 -1 -1 -1 -1 -1
          -1 -1 -1 -1 -1 -1
          <InformationKey name="L2_NORM_RANGE" location="vtkDataArray" length="2">
            <Value index="0">
              1.7320508076
            </Value>
            <Value index="1">
              1.7320508076
            </Value>
          </InformationKey>
        </DataArray>
      </PointData>
      <CellData>
        <DataArray type="UInt8" Name="vtkGhostType" format="ascii" RangeMin="0" RangeMax="1">
          1 1 1 1 1 1
          0 1 1 1 1 1
          1 1 1 1 1 1
          1 1 1 1 1 0
          0 0 0 0 0 0
          0 0 0 0 0 0
          0 0 0 0 1 1
          0 0 1 0 1 1
          1 1 1 0 1 1
          1 1 1 1 1 1
          0 0 0 0 0 1
          0 1 1 1 1 0
          1 0 0 0 0 0
          0 0 0 0 0 0
          0 0 0 0 0 0
          0 0 0 0 0 0
          0 0 0 0 0 0
          1 1 1 1 1 1
          1 1 1 1 1 1
          1 1 0 1 1 1
          1 1 1 1 1 0
          0 0 0 0 1 0
          1 1 1 1 0 1
          0 0 0 0 0 0
          0 0 0 0 0 0
          0 0 0 0 0 0
          0 0 0 0 0 0
          0 0 0 0 0 0
          0 0 0 0 0 0
          0 0 0 0 0 0
          0 0 0 0 0 1
          1 0 1 1 1 1
          1 0 0 0 0 0
          0 0 0 0 0 0
          0 0 0 0 0 0
          0 0 0 0 0 0
          0 0 0 0 0 0
          0 0 0 0 0 0
          0 0 0 0 0 0
          0 0 0 0 0 0
          0 0 0 0 0 0
          0 0 0 0 0 0
          0 0 0 0 0 0
          0 0 0 0 0 0
          0 0 0 0 0 0
          0 0 1 1 1 1
          1 1 1 1 1 1
          1 1 1 1 1 1
          1 1 1 1 1 1
          1 1 1 1 1 1
          1 1 1 1 1 1
          1 1 1 1 1 1
          1 1 1 1 1 1
          1 1 1 1 1 1
          1 1 1 1 1 1
          1 1 1 1 1 1
          1 1 1 1 1 1
          1 1 1
        </DataArray>
      </CellData>
      <Points>
        <DataArray type="Float32" Name="Points" NumberOfComponents="3" format="ascii" RangeMin="0" RangeMax="1.7320508075688772">
          0.8333333134651184 1 0.5 1 0.8333333134651184 0.5
          0.8333333134651184 0.8333333134651184 0.5 0.6666666865348816 0.8333333134651184 0.5
          0.8333333134651184 0.6666666865348816 0.5 1 1 0.3333333134651184
          1 0.5 0.5 0.8333333134651184 0.8333333134651184 0.3333333134651184
          0.8333333134651184 0.5 0.5 0.6666666865348816 1 0.3333333134651184
          1 0.6666666865348816 0.3333333134651184 0.6666666865348816 0.5 0.5
          0.6666666865348816 0.6666666865348816 0.3333333134651184 0.8333333134651184 1 0.16666670143604279
          0.8333333134651184 0.3333333134651184 0.5 1 0.8333333134651184 0.16666670143604279
          0.8333333134651184 0.5 0.3333333134651184 0.5 0.8333333134651184 0.3333333134651184
          0.8333333134651184 0.8333333134651184 0.16666670143604279 0.6666666865348816 0.8333333134651184 0.16666670143604279
          0.8333333134651184 0.16666670143604279 0.6666666865348816 0.8333333134651184 0.6666666865348816 0.16666670143604279
          1 0.3333333134651184 0.3333333134651184 1 0.5 0.16666670143604279
          0.5 0.5 0.3333333134651184 0.5 1 0.16666670143604279
          1 0.16666670143604279 0.5 0.8333333134651184 0.5 0.16666670143604279
          0.8333333134651184 0.16666670143604279 0.5 0.5 0.8333333134651184 0.16666670143604279
          1 1 0 0.6666666865348816 0.3333333134651184 0.3333333134651184
          0.8333333134651184 0.8333333134651184 0 0.6666666865348816 0.5 0.16666670143604279
          0.6666666865348816 0.16666670143604279 0.5 0.5 0.6666666865348816 0.16666670143604279
          1 0.6666666865348816 0 0.6666666865348816 1 0
          1 0 0.6666666865348816 0.8333333134651184 0.3333333134651184 0.16666670143604279
          0.8333333134651184 0.16666670143604279 0.3333333134651184 0.5 0.5 0.16666670143604279
          0.6666666865348816 0.6666666865348816 0 0.6666666865348816 0 0.6666666865348816
          0.8333333134651184 0.5 0 0.5 0.8333333134651184 0
          0.8333333134651184 0 0.5 0.5 0.16666670143604279 0.3333333134651184
          0.5 0.3333333134651184 0.16666670143604279 1 0.16666670143604279 0.16666670143604279
          0.8333333134651184 0.16666670143604279 0.16666670143604279 1 0.3333333134651184 0
          1 0 0.3333333134651184 0.5 0.5 0
          0.6666666865348816 0.16666670143604279 0.16666670143604279 0.6666666865348816 0.3333333134651184 0
          0.6666666865348816 0 0.3333333134651184 0.5 0.16666670143604279 0.16666670143604279
          0.8333333134651184 0.16666670143604279 0 0.8333333134651184 0 0.16666670143604279
          0.5 0.16666670143604279 0 0.5 0 0.16666670143604279
          1 0 0 0.6666666865348816 0 0
          0.6666666865348816 0.3333333134651184 0.6666666865348816 0.5 0.3333333134651184 0.5
          0.5 0.16666670143604279 0.5 0.5 0.16666670143604279 0.6666666865348816
          1 0.3333333134651184 0.6666666865348816 0.5 0.16666670143604279 0.8333333134651184
          0.6666666865348816 0.16666670143604279 0.8333333134651184 0.8333333134651184 0.16666670143604279 0.8333333134651184
          1 0.16666670143604279 0.8333333134651184 1 0 1
          0.3333333134651184 0.6666666865348816 0.3333333134651184 0.5 0.6666666865348816 0.5
          0.5 0.5 0.5 0.6666666865348816 0.6666666865348816 0.6666666865348816
          1 0.6666666865348816 0.6666666865348816 0.8333333134651184 0.5 0.6666666865348816
          0.3333333134651184 1 0.3333333134651184 0.5 1 0.5
          0.5 0.8333333134651184 0.5 0.6666666865348816 1 0.6666666865348816
          1 1 0.6666666865348816 0.8333333134651184 0.8333333134651184 0.6666666865348816
          0.3333333134651184 0.3333333134651184 0.3333333134651184 0.3333333134651184 0.3333333134651184 0
          0.3333333134651184 0 0.3333333134651184 0.3333333134651184 0.16666670143604279 0.16666670143604279
          0.3333333134651184 0 0.6666666865348816 0.5 0 0.5
          0.6666666865348816 0 1 0.5 0 0.8333333134651184
          0.8333333134651184 0 0.8333333134651184 0.3333333134651184 0.6666666865348816 0
          0.3333333134651184 0.5 0.16666670143604279 0.3333333134651184 1 0
          0.3333333134651184 0.8333333134651184 0.16666670143604279 0.3333333134651184 0 0
          0 0.8333333134651184 0.5 0 0.6666666865348816 0.6666666865348816
          0 0 0.3333333134651184 0 0.5 0.5
          0 0.6666666865348816 0.3333333134651184 0 0.8333333134651184 0.16666670143604279
          0 0.3333333134651184 0.3333333134651184 0 0.5 0.16666670143604279
          0 0.16666670143604279 0.5 0 0 0
          0 0.6666666865348816 0 0 0 0.6666666865348816
          0 0.16666670143604279 0.16666670143604279 0 0.3333333134651184 0
          0 0.3333333134651184 0.6666666865348816 0 0.16666670143604279 0.8333333134651184
          1 1 1 0.6666666865348816 1 1
          0.8333333134651184 1 0.8333333134651184 0.8333333134651184 0.8333333134651184 0.8333333134651184
          0.8333333134651184 0.8333333134651184 1 1 0.6666666865348816 1
          0.6666666865348816 0.6666666865348816 1 0.3333333134651184 1 1
          0.5 1 0.8333333134651184 0.5 0.8333333134651184 0.8333333134651184
          0.5 0.8333333134651184 1 0.6666666865348816 0.8333333134651184 0.8333333134651184
          0.3333333134651184 1 0.6666666865348816 0.5 0.8333333134651184 0.6666666865348816
          0.3333333134651184 0.6666666865348816 1 0.5 0.6666666865348816 0.8333333134651184
          0.5 0.5 0.8333333134651184 0.5 0.5 1
          0.6666666865348816 0.3333333134651184 1 0.6666666865348816 0.5 0.8333333134651184
          0.8333333134651184 0.6666666865348816 0.8333333134651184 0.8333333134651184 0.5 0.8333333134651184
          0.8333333134651184 0.5 1 1 0.3333333134651184 1
          0.3333333134651184 0.3333333134651184 1 0.5 0.3333333134651184 0.8333333134651184
          0.5 0.16666670143604279 1 0.8333333134651184 0.3333333134651184 0.8333333134651184
          0.8333333134651184 0.16666670143604279 1 0.3333333134651184 0 1
          <InformationKey name="L2_NORM_RANGE" location="vtkDataArray" length="2">
            <Value index="0">
              0
            </Value>
            <Value index="1">
              1.7320508076
            </Value>
          </InformationKey>
        </DataArray>
      </Points>
      <Cells>
        <DataArray type="Int64" Name="connectivity" format="ascii" RangeMin="0" RangeMax="145">
          31 64 65 66 64 43
          67 66 64 31 34 66
          43 64 34 66 68 64
          14 28 64 31 14 28
          31 22 14 28 22 68
          14 28 64 68 20 28
          68 38 20 28 43 64
          20 28 31 64 34 28
          64 43 34 28 68 22
          26 28 38 68 26 28
          43 64 67 69 64 43
          70 69 43 64 70 71
          64 43 20 71 38 68
          20 71 68 64 20 71
          68 38 72 71 38 73
          72 71 12 74 35 41
          42 12 35 41 74 12
          24 41 12 31 24 41
          12 42 33 41 31 12
          33 41 10 12 21 27
          12 42 21 27 36 10
          21 27 12 10 16 27
          10 22 16 27 22 31
          16 27 31 12 16 27
          42 12 33 27 12 31
          33 27 10 36 23 27
          22 10 23 27 74 12
          75 76 12 77 75 76
          31 12 24 76 12 74
          24 76 77 12 11 76
          12 31 11 76 31 64
          11 76 64 77 11 76
          64 31 65 76 78 77
          4 8 77 12 4 8
          12 10 4 8 10 78
          4 8 77 78 79 8
          78 68 79 8 68 64
          79 8 64 77 79 8
          12 77 11 8 77 64
          11 8 64 31 11 8
          31 12 11 8 12 31
          16 8 31 22 16 8
          22 10 16 8 10 12
          16 8 78 10 6 8
          10 22 6 8 22 68
          6 8 68 78 6 8
          64 68 14 8 68 22
          14 8 22 31 14 8
          31 64 14 8 9 80
          25 29 37 9 25 29
          80 9 17 29 9 12
          17 29 12 74 17 29
          74 80 17 29 9 37
          19 29 42 12 19 29
          12 9 19 29 74 12
          35 29 12 42 35 29
          5 9 13 18 9 37
          13 18 37 30 13 18
          30 5 13 18 9 5
          7 18 5 10 7 18
          10 12 7 18 12 9
          7 18 37 9 19 18
          9 12 19 18 12 42
          19 18 5 30 15 18
          30 36 15 18 36 10
          15 18 10 5 15 18
          12 10 21 18 10 36
          21 18 42 12 21 18
          80 9 81 82 9 83
          81 82 80 74 17 82
          74 12 17 82 12 9
          17 82 9 80 17 82
          83 9 3 82 9 12
          3 82 12 77 3 82
          77 83 3 82 77 12
          75 82 12 74 75 82
          84 83 0 2 83 9
          0 2 9 5 0 2
          5 84 0 2 83 84
          85 2 84 78 85 2
          78 77 85 2 77 83
          85 2 9 83 3 2
          83 77 3 2 77 12
          3 2 12 9 3 2
          9 12 7 2 12 10
          7 2 10 5 7 2
          5 9 7 2 84 5
          1 2 5 10 1 2
          10 78 1 2 78 84
          1 2 77 78 4 2
          78 10 4 2 10 12
          4 2 12 77 4 2
          31 86 48 57 86 87
          48 57 55 31 48 57
          86 31 47 57 31 56
          47 57 88 86 47 57
          87 86 89 57 86 88
          89 57 31 55 54 57
          56 31 54 57 22 31
          39 50 31 55 39 50
          55 51 39 50 51 22
          39 50 31 22 40 50
          22 52 40 50 52 56
          40 50 56 31 40 50
          55 31 54 50 31 56
          54 50 22 51 49 50
          52 22 49 50 86 31
          65 66 43 90 67 66
          86 88 47 66 88 56
          47 66 56 31 47 66
          31 86 47 66 31 56
          34 66 56 43 34 66
          90 43 91 66 43 56
          91 66 56 88 91 66
          38 43 20 28 43 56
          34 28 56 31 34 28
          31 56 40 28 56 52
          40 28 52 22 40 28
          22 31 40 28 22 52
          26 28 52 38 26 28
          43 38 46 28 38 52
          46 28 52 56 46 28
          56 43 46 28 90 43
          67 69 43 92 70 69
          92 43 93 69 43 90
          93 69 92 43 70 71
          43 38 20 71 73 38
          94 71 38 43 94 71
          43 92 94 71 74 95
          35 41 95 42 35 41
          31 86 24 41 86 74
          24 41 95 74 96 41
          74 86 96 41 86 87
          96 41 87 95 96 41
          95 87 53 41 87 55
          53 41 55 42 53 41
          42 95 53 41 42 55
          33 41 55 31 33 41
          86 31 48 41 31 55
          48 41 55 87 48 41
          87 86 48 41 42 36
          21 27 31 55 33 27
          55 42 33 27 42 55
          44 27 55 51 44 27
          51 36 44 27 36 42
          44 27 36 51 23 27
          51 22 23 27 31 22
          39 27 22 51 39 27
          51 55 39 27 55 31
          39 27 74 86 24 76
          86 31 24 76 31 86
          65 76 80 97 25 29
          97 37 25 29 97 80
          98 29 80 74 98 29
          74 95 98 29 95 97
          98 29 97 95 45 29
          95 42 45 29 42 37
          45 29 37 97 45 29
          37 42 19 29 42 95
          35 29 95 74 35 29
          42 37 19 18 37 42
          32 18 42 36 32 18
          36 30 32 18 30 37
          32 18 36 42 21 18
          87 55 48 57 56 88
          47 57 88 99 89 57
          99 87 89 57 87 99
          60 57 99 63 60 57
          63 55 60 57 55 87
          60 57 55 63 54 57
          63 56 54 57 88 56
          61 57 56 63 61 57
          63 99 61 57 99 88
          61 57 56 63 54 50
          63 55 54 50 55 63
          58 50 63 62 58 50
          62 51 58 50 51 55
          58 50 51 62 49 50
          62 52 49 50 56 52
          59 50 52 62 59 50
          62 63 59 50 63 56
          59 50 116 117 118 119
          117 83 118 119 83 84
          118 119 117 116 120 119
          116 121 120 119 121 122
          120 119 122 117 120 119
          117 123 124 125 83 117
          124 125 123 117 126 125
          117 122 126 125 117 83
          127 125 122 117 127 125
          83 117 127 119 117 122
          127 119 83 128 81 82
          128 83 129 82 83 77
          129 82 128 83 124 125
          77 83 129 125 83 128
          129 125 83 77 127 125
          77 83 127 119 83 77
          85 119 84 83 85 119
          122 130 131 132 77 122
          131 132 130 122 133 132
          122 134 133 132 122 77
          135 132 134 122 135 132
          121 122 136 137 122 77
          136 137 122 121 138 137
          134 122 138 137 77 122
          135 137 122 134 135 137
          122 130 126 125 77 122
          127 125 130 122 131 125
          122 77 131 125 122 77
          127 119 122 121 136 119
          77 122 136 119 121 139
          138 137 139 134 138 137
          130 123 126 125 134 140
          133 132 140 130 133 132
          134 140 141 69 64 134
          141 69 140 134 142 69
          134 92 142 69 134 64
          70 69 92 134 70 69
          139 134 143 71 134 64
          143 71 134 139 144 71
          92 134 144 71 64 134
          70 71 134 92 70 71
          64 134 135 132 140 134
          141 132 134 64 141 132
          134 64 135 137 134 139
          143 137 64 134 143 137
          139 73 144 71 73 92
          144 71 92 145 142 69
          145 92 93 69 92 73
          94 71 145 140 142 69
        </DataArray>
        <DataArray type="Int64" Name="offsets" format="ascii" RangeMin="4" RangeMax="1380">
          4 8 12 16 20 24
          28 32 36 40 44 48
          52 56 60 64 68 72
          76 80 84 88 92 96
          100 104 108 112 116 120
          124 128 132 136 140 144
          148 152 156 160 164 168
          172 176 180 184 188 192
          196 200 204 208 212 216
          220 224 228 232 236 240
          244 248 252 256 260 264
          268 272 276 280 284 288
          292 296 300 304 308 312
          316 320 324 328 332 336
          340 344 348 352 356 360
          364 368 372 376 380 384
          388 392 396 400 404 408
          412 416 420 424 428 432
          436 440 444 448 452 456
          460 464 468 472 476 480
          484 488 492 496 500 504
          508 512 516 520 524 528
          532 536 540 544 548 552
          556 560 564 568 572 576
          580 584 588 592 596 600
          604 608 612 616 620 624
          628 632 636 640 644 648
          652 656 660 664 668 672
          676 680 684 688 692 696
          700 704 708 712 716 720
          724 728 732 736 740 744
          748 752 756 760 764 768
          772 776 780 784 788 792
          796 800 804 808 812 816
          820 824 828 832 836 840
          844 848 852 856 860 864
          868 872 876 880 884 888
          892 896 900 904 908 912
          916 920 924 928 932 936
          940 944 948 952 956 960
          964 968 972 976 980 984
          988 992 996 1000 1004 1008
          1012 1016 1020 1024 1028 1032
          1036 1040 1044 1048 1052 1056
          1060 1064 1068 1072 1076 1080
          1084 1088 1092 1096 1100 1104
          1108 1112 1116 1120 1124 1128
          1132 1136 1140 1144 1148 1152
          1156 1160 1164 1168 1172 1176
          1180 1184 1188 1192 1196 1200
          1204 1208 1212 1216 1220 1224
          1228 1232 1236 1240 1244 1248
          1252 1256 1260 1264 1268 1272
          1276 1280 1284 1288 1292 1296
          1300 1304 1308 1312 1316 1320
          1324 1328 1332 1336 1340 1344
          1348 1352 1356 1360 1364 1368
          1372 1376 1380
        </DataArray>
        <DataArray type="UInt8" Name="types" format="ascii" RangeMin="10" RangeMax="10">
          10 10 10 10 10 10
          10 10 10 10 10 10
          10 10 10 10 10 10
          10 10 10 10 10 10
          10 10 10 10 10 10
          10 10 10 10 10 10
          10 10 10 10 10 10
          10 10 10 10 10 10
          10 10 10 10 10 10
          10 10 10 10 10 10
          10 10 10 10 10 10
          10 10 10 10 10 10
          10 10 10 10 10 10
          10 10 10 10 10 10
          10 10 10 10 10 10
          10 10 10 10 10 10
          10 10 10 10 10 10
          10 10 10 10 10 10
          10 10 10 10 10 10
          10 10 10 10 10 10
          10 10 10 10 10 10
          10 10 10 10 10 10
          10 10 10 10 10 10
          10 10 10 10 10 10
          10 10 10 10 10 10
          10 10 10 10 10 10
          10 10 10 10 10 10
          10 10 10 10 10 10
          10 10 10 10 10 10
          10 10 10 10 10 10
          10 10 10 10 10 10
          10 10 10 10 10 10
          10 10 10 10 10 10
          10 10 10 10 10 10
          10 10 10 10 10 10
          10 10 10 10 10 10
          10 10 10 10 10 10
          10 10 10 10 10 10
          10 10 10 10 10 10
          10 10 10 10 10 10
          10 10 10 10 10 10
          10 10 10 10 10 10
          10 10 10 10 10 10
          10 10 10 10 10 10
          10 10 10 10 10 10
          10 10 10 10 10 10
          10 10 10 10 10 10
          10 10 10 10 10 10
          10 10 10 10 10 10
          10 10 10 10 10 10
          10 10 10 10 10 10
          10 10 10 10 10 10
          10 10 10 10 10 10
          10 10 10 10 10 10
          10 10 10 10 10 10
          10 10 10 10 10 10
          10 10 10 10 10 10
          10 10 10
        </DataArray>
      </Cells>
    </Piece>
  </UnstructuredGrid>
</VTKFile>
