<?xml version="1.0"?>
<VTKFile type="UnstructuredGrid" version="0.1" byte_order="LittleEndian" header_type="UInt32" compressor="vtkZLibDataCompressor">
  <UnstructuredGrid>
    <Piece NumberOfPoints="193" NumberOfCells="511">
      <PointData>
        <DataArray type="Float64" Name="nsi_BC" NumberOfComponents="3" format="ascii" RangeMin="0" RangeMax="0">
          0 0 0 0 0 0
          0 0 0 0 0 0
          0 0 0 0 0 0
          0 0 0 0 0 0
          0 0 0 0 0 0
          0 0 0 0 0 0
          0 0 0 0 0 0
          0 0 0 0 0 0
          0 0 0 0 0 0
          0 0 0 0 0 0
          0 0 0 0 0 0
          0 0 0 0 0 0
          0 0 0 0 0 0
          0 0 0 0 0 0
          0 0 0 0 0 0
          0 0 0 0 0 0
          0 0 0 0 0 0
          0 0 0 0 0 0
          0 0 0 0 0 0
          0 0 0 0 0 0
          0 0 0 0 0 0
          0 0 0 0 0 0
          0 0 0 0 0 0
          0 0 0 0 0 0
          0 0 0 0 0 0
          0 0 0 0 0 0
          0 0 0 0 0 0
          0 0 0 0 0 0
          0 0 0 0 0 0
          0 0 0 0 0 0
          0 0 0 0 0 0
          0 0 0 0 0 0
          0 0 0 0 0 0
          0 0 0 0 0 0
          0 0 0 0 0 0
          0 0 0 0 0 0
          0 0 0 0 0 0
          0 0 0 0 0 0
          0 0 0 0 0 0
          0 0 0 0 0 0
          0 0 0 0 0 0
          0 0 0 0 0 0
          0 0 0 0 0 0
          0 0 0 0 0 0
          0 0 0 0 0 0
          0 0 0 0 0 0
          0 0 0 0 0 0
          0 0 0 0 0 0
          0 0 0 0 0 0
          0 0 0 0 0 0
          0 0 0 0 0 0
          0 0 0 0 0 0
          0 0 0 0 0 0
          0 0 0 0 0 0
          0 0 0 0 0 0
          0 0 0 0 0 0
          0 0 0 0 0 0
          0 0 0 0 0 0
          0 0 0 0 0 0
          0 0 0 0 0 0
          0 0 0 0 0 0
          0 0 0 0 0 0
          0 0 0 0 0 0
          0 0 0 0 0 0
          0 0 0 0 0 0
          0 0 0 0 0 0
          0 0 0 0 0 0
          0 0 0 0 0 0
          0 0 0 0 0 0
          0 0 0 0 0 0
          0 0 0 0 0 0
          0 0 0 0 0 0
          0 0 0 0 0 0
          0 0 0 0 0 0
          0 0 0 0 0 0
          0 0 0 0 0 0
          0 0 0 0 0 0
          0 0 0 0 0 0
          0 0 0 0 0 0
          0 0 0 0 0 0
          0 0 0 0 0 0
          0 0 0 0 0 0
          0 0 0 0 0 0
          0 0 0 0 0 0
          0 0 0 0 0 0
          0 0 0 0 0 0
          0 0 0 0 0 0
          0 0 0 0 0 0
          0 0 0 0 0 0
          0 0 0 0 0 0
          0 0 0 0 0 0
          0 0 0 0 0 0
          0 0 0 0 0 0
          0 0 0 0 0 0
          0 0 0 0 0 0
          0 0 0 0 0 0
          0 0 0
          <InformationKey name="L2_NORM_RANGE" location="vtkDataArray" length="2">
            <Value index="0">
              0
            </Value>
            <Value index="1">
              0
            </Value>
          </InformationKey>
        </DataArray>
        <DataArray type="Float64" Name="nsi_FIXNO" NumberOfComponents="3" format="ascii" RangeMin="1.7320508075688772" RangeMax="1.7320508075688772">
          -1 -1 -1 -1 -1 -1
          -1 -1 -1 -1 -1 -1
          -1 -1 -1 -1 -1 -1
          -1 -1 -1 -1 -1 -1
          -1 -1 -1 -1 -1 -1
          -1 -1 -1 -1 -1 -1
          -1 -1 -1 -1 -1 -1
          -1 -1 -1 -1 -1 -1
          -1 -1 -1 -1 -1 -1
          -1 -1 -1 -1 -1 -1
          -1 -1 -1 -1 -1 -1
          -1 -1 -1 -1 -1 -1
          -1 -1 -1 -1 -1 -1
          -1 -1 -1 -1 -1 -1
          -1 -1 -1 -1 -1 -1
          -1 -1 -1 -1 -1 -1
          -1 -1 -1 -1 -1 -1
          -1 -1 -1 -1 -1 -1
          -1 -1 -1 -1 -1 -1
          -1 -1 -1 -1 -1 -1
          -1 -1 -1 -1 -1 -1
          -1 -1 -1 -1 -1 -1
          -1 -1 -1 -1 -1 -1
          -1 -1 -1 -1 -1 -1
          -1 -1 -1 -1 -1 -1
          -1 -1 -1 -1 -1 -1
          -1 -1 -1 -1 -1 -1
          -1 -1 -1 -1 -1 -1
          -1 -1 -1 -1 -1 -1
          -1 -1 -1 -1 -1 -1
          -1 -1 -1 -1 -1 -1
          -1 -1 -1 -1 -1 -1
          -1 -1 -1 -1 -1 -1
          -1 -1 -1 -1 -1 -1
          -1 -1 -1 -1 -1 -1
          -1 -1 -1 -1 -1 -1
          -1 -1 -1 -1 -1 -1
          -1 -1 -1 -1 -1 -1
          -1 -1 -1 -1 -1 -1
          -1 -1 -1 -1 -1 -1
          -1 -1 -1 -1 -1 -1
          -1 -1 -1 -1 -1 -1
          -1 -1 -1 -1 -1 -1
          -1 -1 -1 -1 -1 -1
          -1 -1 -1 -1 -1 -1
          -1 -1 -1 -1 -1 -1
          -1 -1 -1 -1 -1 -1
          -1 -1 -1 -1 -1 -1
          -1 -1 -1 -1 -1 -1
          -1 -1 -1 -1 -1 -1
          -1 -1 -1 -1 -1 -1
          -1 -1 -1 -1 -1 -1
          -1 -1 -1 -1 -1 -1
          -1 -1 -1 -1 -1 -1
          -1 -1 -1 -1 -1 -1
          -1 -1 -1 -1 -1 -1
          -1 -1 -1 -1 -1 -1
          -1 -1 -1 -1 -1 -1
          -1 -1 -1 -1 -1 -1
          -1 -1 -1 -1 -1 -1
          -1 -1 -1 -1 -1 -1
          -1 -1 -1 -1 -1 -1
          -1 -1 -1 -1 -1 -1
          -1 -1 -1 -1 -1 -1
          -1 -1 -1 -1 -1 -1
          -1 -1 -1 -1 -1 -1
          -1 -1 -1 -1 -1 -1
          -1 -1 -1 -1 -1 -1
          -1 -1 -1 -1 -1 -1
          -1 -1 -1 -1 -1 -1
          -1 -1 -1 -1 -1 -1
          -1 -1 -1 -1 -1 -1
          -1 -1 -1 -1 -1 -1
          -1 -1 -1 -1 -1 -1
          -1 -1 -1 -1 -1 -1
          -1 -1 -1 -1 -1 -1
          -1 -1 -1 -1 -1 -1
          -1 -1 -1 -1 -1 -1
          -1 -1 -1 -1 -1 -1
          -1 -1 -1 -1 -1 -1
          -1 -1 -1 -1 -1 -1
          -1 -1 -1 -1 -1 -1
          -1 -1 -1 -1 -1 -1
          -1 -1 -1 -1 -1 -1
          -1 -1 -1 -1 -1 -1
          -1 -1 -1 -1 -1 -1
          -1 -1 -1 -1 -1 -1
          -1 -1 -1 -1 -1 -1
          -1 -1 -1 -1 -1 -1
          -1 -1 -1 -1 -1 -1
          -1 -1 -1 -1 -1 -1
          -1 -1 -1 -1 -1 -1
          -1 -1 -1 -1 -1 -1
          -1 -1 -1 -1 -1 -1
          -1 -1 -1 -1 -1 -1
          -1 -1 -1 -1 -1 -1
          -1 -1 -1
          <InformationKey name="L2_NORM_RANGE" location="vtkDataArray" length="2">
            <Value index="0">
              1.7320508076
            </Value>
            <Value index="1">
              1.7320508076
            </Value>
          </InformationKey>
        </DataArray>
        <DataArray type="Float64" Name="Velocity" NumberOfComponents="3" format="ascii" RangeMin="0.19741916413108973" RangeMax="0.20674794686516546">
          0.2001301929793653 -5.834814876381145e-10 4.868355391589251e-10 0.19795829761923484 -6.96396936595153e-10 4.4959681006144446e-10
          0.197958297570055 -5.480893643189294e-10 2.8511641160643586e-10 0.19989719505763578 -5.525465634642281e-10 4.489471152914329e-10
          0.20024329747547404 -5.598781746379292e-10 4.770506947133909e-10 0.20024329727818907 -5.792751959130751e-10 4.81159659480262e-10
          0.20013019324331707 -5.49529357876714e-10 4.634510196431133e-10 0.197958298060323 -6.831717960145897e-10 5.841561047900058e-10
          0.1979582980579922 -4.049996133516347e-10 3.0325170439214323e-10 0.19800394210620673 -8.389503338342959e-11 4.8590999803507e-10
          0.20024329730176138 -5.6058711128534e-10 4.692751181660892e-10 0.19989719406002524 -4.6267010978663423e-10 3.5489022079599223e-10
          0.19800394227407989 -1.079682431184662e-9 2.9705625128529236e-10 0.19989719406747047 -6.443237468012e-10 5.458506487641965e-10
          0.19800394226848306 -7.100085680894563e-10 -3.116614788864249e-11 0.19741916414879868 -5.507974352098275e-10 4.571164733203891e-10
          0.20013019308559865 -5.500846364329708e-10 4.5379341504214687e-10 0.20024329741369387 -5.562378921084443e-10 4.986283854018357e-10
          0.1979582980822172 -6.829694028115116e-10 2.9457317362591075e-10 0.19800394228220008 -4.0730837877767767e-10 4.410692966534234e-10
          0.19800394225730633 -5.886834629711388e-10 6.067804405856338e-10 0.19989719454230348 -4.709960634910649e-10 4.5825322054913917e-10
          0.1980039421176222 -1.065440163628794e-9 4.727290640103002e-10 0.1998971946330787 -5.628861133163507e-10 5.437730744052214e-10
          0.19800394211807323 -5.496968649513673e-10 -4.16607885720947e-11 0.19741916419214584 -7.055876141539403e-10 5.572535940899116e-10
          0.1974191641916929 -4.417024931875917e-10 3.241379907077908e-10 0.1979582971125218 -5.365025969517271e-10 4.480482652383047e-10
          0.20674794603605093 -5.581450012520545e-10 4.690275922820209e-10 0.1979582971125218 -5.365025969517271e-10 4.480482652383047e-10
          0.20674794598311125 -5.775889183190278e-10 4.763290644903086e-10 0.19800394223282355 -4.153238841877319e-10 9.577021363395367e-10
          0.20024329729007623 -5.722291355934456e-10 4.869101696763218e-10 0.2053082458677046 -5.565827828815152e-10 4.822489560969411e-10
          0.19800394226646373 -6.894485668161256e-11 6.16137251466714e-10 0.19795829759132874 -3.9653497330275867e-10 4.631607489098369e-10
          0.20674794511200192 -5.689375932825856e-10 4.676272635330094e-10 0.19795829754145228 -5.431327070069412e-10 5.907125217035266e-10
          0.2067479451086033 -5.255265557704584e-10 4.764144758787876e-10 0.1974191641634054 -7.028294468423186e-10 4.581097996392528e-10
          0.1974191642160602 -5.429177247166263e-10 3.2447435032150174e-10 0.2053082479659875 -5.94065568448495e-10 4.639360777444554e-10
          0.19800394225631177 -7.131706989267994e-10 4.4929082972691623e-10 0.20530824796057545 -5.427597026122551e-10 4.620625809611709e-10
          0.19800394222753523 -6.082824534561365e-10 2.9226771551958587e-10 0.19800394227149978 -4.153226236782253e-10 -4.537201885117833e-11
          0.1980039422987467 -1.056977413552732e-9 6.128523930053528e-10 0.19989719411221174 -4.603169835132596e-10 5.422491091190934e-10
          0.19795829761923484 -6.96396936595153e-10 4.4959681006144446e-10 0.2067479451589613 -5.494390782923887e-10 4.906955231557825e-10
          0.197958297570055 -5.480893643189294e-10 2.8511641160643586e-10 0.20530824692321342 -5.956749753393519e-10 4.840899461164399e-10
          0.19800394210981645 -5.596181603714175e-10 4.662131042222978e-10 0.19800394208148012 -5.997344706038376e-10 4.6180907594856776e-10
          0.20530824700098438 -5.510143542396078e-10 4.754218156050529e-10 0.20674794686516546 -5.570084819585053e-10 4.4625158623259544e-10
          0.20674794686516546 -5.570084819585053e-10 4.4625158623259544e-10 0.19741916423048744 -6.874292208468893e-10 3.202411319416815e-10
          0.20674794598234456 -5.349225321062585e-10 4.5498299085609765e-10 0.20674794594600332 -5.850391933501493e-10 4.6137286662515836e-10
          0.19800394228220008 -4.0730837877767767e-10 4.410692966534234e-10 0.20530824803486106 -5.754231206503812e-10 4.689781870402815e-10
          0.19800394225730633 -5.886834629711388e-10 6.067804405856338e-10 0.1979582971125218 -5.365025969517271e-10 4.480482652383047e-10
          0.20674794603605093 -5.581450012520545e-10 4.690275922820209e-10 0.20674794598311125 -5.775889183190278e-10 4.763290644903086e-10
          0.20674794686516546 -5.570084819585053e-10 4.4625158623259544e-10 0.19800593498930122 -4.4922824038781466e-10 3.674108139700832e-10
          0.19800593503655592 -4.193486088797885e-10 6.410198325568594e-10 0.1980059344505861 -5.488034520348773e-10 3.3790604317366677e-10
          0.19994815803975688 -6.631568442449956e-10 5.113916438297978e-10 0.1980059345827259 -4.369181427751848e-10 5.258568287558233e-10
          0.20024329738682442 -5.83040832710855e-10 5.048209101367747e-10 0.1980059340645589 -5.273365342794746e-10 5.194917526662813e-10
          0.1999481575722326 -6.609076249459153e-10 6.052906926595103e-10 0.19800593496562088 -6.915434849931969e-10 6.792832193154366e-10
          0.2002432973707959 -5.954127347837715e-10 5.196225682793894e-10 0.20013019317856193 -5.850516794544304e-10 5.293576711562452e-10
          0.2002432972968447 -5.752852393925989e-10 5.36834624036698e-10 0.19795829802259785 -4.218740284904561e-10 6.455885705457347e-10
          0.20674794505068406 -5.665089044080146e-10 4.797194964961294e-10 0.1980039420858195 -5.622711881867828e-10 9.813708265567925e-10
          0.1980059349110914 -7.236116331109542e-10 4.1220676389825356e-10 0.20024329719178274 -5.850653770438672e-10 5.295597183262898e-10
          0.20024329720929093 -6.033007629474174e-10 5.471474273774169e-10 0.1999481585051959 -5.935156412882955e-10 5.547877042233238e-10
          0.19795829759132874 -3.9653497330275867e-10 4.631607489098369e-10 0.19800394210981645 -5.596181603714175e-10 4.662131042222978e-10
          0.19741916416090333 -5.74155700830649e-10 5.955595339681545e-10 0.19989719457451302 -5.830916114696809e-10 4.0310591686272706e-10
          0.20024329741533867 -5.921494928637742e-10 5.503663955889441e-10 0.20013019310934488 -5.894108010142094e-10 5.418219642432226e-10
          0.19800593450376955 -5.710658535572103e-10 6.279664393972508e-10 0.2002432974570718 -5.780014290364931e-10 4.774720886937645e-10
          0.20013019324261005 -5.698585584501646e-10 5.111983337045865e-10 0.20024329731970425 -5.726363984393876e-10 5.184586224688434e-10
          0.19795829754145228 -5.431327070069412e-10 5.907125217035266e-10 0.19800394208148012 -5.997344706038376e-10 4.6180907594856776e-10
          0.19741916413108973 -4.669130513165616e-10 4.953637003467363e-10 0.1998971944744729 -6.770524965941588e-10 4.996846792023609e-10
          0.20024329729007623 -5.722291355934456e-10 4.869101696763218e-10 0.20013019303798363 -5.775039852644422e-10 5.264260743261869e-10
          0.20024329740824984 -5.792772347231142e-10 5.039652660065071e-10 0.20013019327970555 -5.583924255978777e-10 4.829831903041173e-10
          0.20024329737536306 -5.522750806854819e-10 4.680846103854754e-10 0.19800593450376955 -5.710658535572103e-10 6.279664393972508e-10
          0.19800593451159082 -6.958120690517632e-10 5.621193527307741e-10 0.20024329741533867 -5.921494928637742e-10 5.503663955889441e-10
          0.1980059345827259 -4.369181427751848e-10 5.258568287558233e-10 0.20674794598234456 -5.349225321062585e-10 4.5498299085609765e-10
          0.2053082469043494 -5.978427805028209e-10 5.059557286953902e-10 0.1980059340645589 -5.273365342794746e-10 5.194917526662813e-10
          0.2002432974765903 -5.715765279522603e-10 5.223898986911425e-10 0.20674794594600332 -5.850391933501493e-10 4.6137286662515836e-10
          0.20530824685572446 -5.826433340243716e-10 5.187058832133296e-10 0.20024329747547404 -5.598781746379292e-10 4.770506947133909e-10
          0.1980059340645589 -5.273365342794746e-10 5.194917526662813e-10 0.2002432974570718 -5.780014290364931e-10 4.774720886937645e-10
          0.20674794686516546 -5.570084819585053e-10 4.4625158623259544e-10 0.1980059340645589 -5.273365342794746e-10 5.194917526662813e-10
          0.19819882621878934 -6.099612860278543e-10 6.657796135857182e-10 0.19819882621878934 -6.099612860278543e-10 6.657796135857182e-10
          0.19767636606657685 -7.133935037209318e-10 4.013980254410663e-10 0.1980059344505861 -5.488034520348773e-10 3.3790604317366677e-10
          0.20674794594600332 -5.850391933501493e-10 4.6137286662515836e-10 0.20530824787080681 -6.016547749825838e-10 4.984093983858975e-10
          0.20530824787080681 -6.016547749825838e-10 4.984093983858975e-10 0.20674794505068406 -5.665089044080146e-10 4.797194964961294e-10
          0.20674794598234456 -5.349225321062585e-10 4.5498299085609765e-10 0.2067479451086033 -5.255265557704584e-10 4.764144758787876e-10
          0.19819882599820288 -1.0825426217889348e-9 5.435233008462132e-10 0.19767636607208564 -5.595458620915126e-10 5.294847497014128e-10
          0.20674794511200192 -5.689375932825856e-10 4.676272635330094e-10 0.19819882600936514 -5.760465774100663e-10 6.396706336318452e-11
          0.2053082458677046 -5.565827828815152e-10 4.822489560969411e-10 0.19819882618550402 -1.0977095611990662e-9 6.685217321356536e-10
          0.19767636611104533 -5.922088401223348e-10 4.206022957082009e-10 0.2053082469043494 -5.978427805028209e-10 5.059557286953902e-10
          0.19819882613367992 -4.3138054024827716e-10 5.851183648366989e-11 0.19767636603867955 -7.04566182613117e-10 5.241024948901556e-10
          0.20530824685572446 -5.826433340243716e-10 5.187058832133296e-10 0.20674794603605093 -5.581450012520545e-10 4.690275922820209e-10
          0.20674794598311125 -5.775889183190278e-10 4.763290644903086e-10 0.19819882623329893 -4.2164070686468305e-10 5.389549083795339e-10
          0.19819882623329893 -4.2164070686468305e-10 5.389549083795339e-10 0.19800593451159082 -6.958120690517632e-10 5.621193527307741e-10
          0.1979582971125218 -5.365025969517271e-10 4.480482652383047e-10 0.20024329741369387 -5.562378921084443e-10 4.986283854018357e-10
          0.20013019322702844 -5.574322739880826e-10 5.190044834372736e-10 0.2002432974765903 -5.715765279522603e-10 5.223898986911425e-10
          0.200243297262387 -5.601946908325737e-10 5.346692073207028e-10 0.19819882603378133 -5.993213549324904e-10 4.971021021420706e-10
          0.19819882603378133 -5.993213549324904e-10 4.971021021420706e-10 0.2002432973145353 -5.702300955980793e-10 5.468161473869586e-10
          0.19819882611482745 -5.899751861167783e-10 5.570141109486785e-10 0.19819882611482745 -5.899751861167783e-10 5.570141109486785e-10
          0.19819882625992294 -1.184269748412448e-10 6.638545609048012e-10 0.19767636616967244 -4.869980254362993e-10 3.9819823304876797e-10
          0.19819882633234123 -7.514821984138888e-10 5.393304865856183e-10 0.19819882633234123 -7.514821984138888e-10 5.393304865856183e-10
          0.20674794686516546 -5.570084819585053e-10 4.4625158623259544e-10 0.20674794686516546 -5.570084819585053e-10 4.4625158623259544e-10
          0.19800394222753523 -6.082824534561365e-10 2.9226771551958587e-10 0.19741916415254035 -4.752027694177488e-10 5.806956998683856e-10
          0.19800394225631177 -7.131706989267994e-10 4.4929082972691623e-10 0.19989719401097833 -6.606190831657405e-10 3.87523661856766e-10
          0.2053082479659875 -5.94065568448495e-10 4.639360777444554e-10 0.19800394225293227 -9.877779840390073e-11 3.260834674114181e-10
          0.19819882607176953 -7.85537042259088e-11 5.129454549275869e-10 0.19767636611510914 -4.5975942065814297e-10 5.007238653635629e-10
          0.2067479451589613 -5.494390782923887e-10 4.906955231557825e-10 0.19819882623088336 -7.599259486198455e-10 2.5208251248980063e-11
          0.20674794594600332 -5.850391933501493e-10 4.6137286662515836e-10 0.20530824692321342 -5.956749753393519e-10 4.840899461164399e-10
          0.1980039422221196 -7.387988008932801e-10 9.722193364740317e-10 0.1981988262870995 -5.849080723332506e-10 3.6033288856619463e-10
          0.1981988262870995 -5.849080723332506e-10 3.6033288856619463e-10 0.19767636614419865 -6.855202031909784e-10 6.474733483875061e-10
          0.1981988262113262 -4.1516582592727933e-10 1.0266599481177512e-9 0.20674794686516546 -5.570084819585053e-10 4.4625158623259544e-10
          0.20530824796057545 -5.427597026122551e-10 4.620625809611709e-10 0.19819882625533303 -1.0666933249132474e-9 3.7712203860162825e-10
          0.19767636620009052 -5.636125740429659e-10 6.584497634368322e-10 0.20674794598234456 -5.349225321062585e-10 4.5498299085609765e-10
          0.19819882610300243 -5.6097835027893e-10 1.034871965547398e-9 0.20530824700098438 -5.510143542396078e-10 4.754218156050529e-10
          0.19819882632616986 -8.11637702610078e-11 3.7070609406682114e-10 0.1976763662422456 -4.578837698845035e-10 6.453125734651069e-10
          0.20674794603605093 -5.581450012520545e-10 4.690275922820209e-10 0.19819882629566085 -7.497389225438677e-10 1.020074367116558e-9
          0.20674794598311125 -5.775889183190278e-10 4.763290644903086e-10 0.20530824803486106 -5.754231206503812e-10 4.689781870402815e-10
          0.20674794686516546 -5.570084819585053e-10 4.4625158623259544e-10
          <InformationKey name="L2_NORM_RANGE" location="vtkDataArray" length="2">
            <Value index="0">
              0.19741916413
            </Value>
            <Value index="1">
              0.20674794687
            </Value>
          </InformationKey>
        </DataArray>
        <DataArray type="Float64" Name="Pressure" format="ascii" RangeMin="-0.023055477990320435" RangeMax="0.024256331519194388">
          0.0007703964176771574 0.020363884746467612 0.020363884729723836 0.018155304232170315 0.0007637625602671586 0.0007637625639310208
          0.0007703963628650917 0.02036388473487464 0.02036388477322293 0.02093643478834178 0.0007637625211337841 0.01815530420490729
          0.020936432517230586 0.018155304239591316 0.020936432519857495 0.024256331519194388 0.0007703963740086189 0.000763762530682804
          0.02036388476375256 0.020936431097798334 0.020936431099438803 0.01815530420726721 0.02093643478890346 0.01815530424705418
          0.020936434805626594 0.024256328496761726 0.02425632852576567 0.020363884719915907 0.00038250885564418164 0.020363884719915907
          0.00038250882856094825 0.02093643248938644 0.0007637625424913358 0.00036544945845496 0.020936432531111198 0.02036388475045083
          0.00038250883589279676 0.020363884695341266 0.0003825088640113958 0.024256329996888523 0.024256330040450927 0.00036544945132712466
          0.020936431091766464 0.00036544948321517653 0.02093643106590584 0.02093643251628141 0.020936432536852487 0.018155304231418076
          0.020363884746467612 0.0003825088718785854 0.020363884729723836 0.0003654494644346308 0.020936433379143884 0.020936433332904934
          0.0003654495032340806 0.0003825088065493649 0.0003825088065493649 0.024256328521353343 0.0003825088357063511 0.00038250877999962727
          0.020936431097798334 0.00036544948637856893 0.020936431099438803 0.020363884719915907 0.00038250885564418164 0.00038250882856094825
          0.0003825088065493649 -0.018885678474411076 -0.018885678418576635 -0.01888567846876002 -0.016706231986459142 -0.018885678389683504
          0.0007637625496282567 -0.01888567837529623 -0.01670623199607124 -0.018885678416585384 0.0007637625880752576 0.0007703964325618284
          0.0007637625975436776 0.02036388473691338 0.0003825088179355416 0.02093643478321504 -0.018885678485841766 0.0007637625710324806
          0.0007637625491408303 -0.01670623196038969 0.02036388475045083 0.020936433379143884 0.024256330025078682 0.018155304227793177
          0.0007637625819541217 0.0007703963885768673 -0.01888567840220165 0.0007637625782693347 0.0007703964206654139 0.000763762580078769
          0.020363884695341266 0.020936433332904934 0.024256329996786934 0.018155304214182 0.0007637625424913358 0.0007703963866388367
          0.00076376258915031 0.0007703964089521452 0.0007637625653257324 -0.01888567840220165 -0.01888567840458153 0.0007637625819541217
          -0.018885678389683504 0.0003825088357063511 0.0003654494663991851 -0.01888567837529623 0.000763762565877224 0.00038250877999962727
          0.00036544944991918427 0.0007637625602671586 -0.01888567837529623 0.0007637625782693347 0.0003825088065493649 -0.01888567837529623
          -0.019752023187060038 -0.019752023187060038 -0.023055475075901347 -0.01888567846876002 0.00038250877999962727 0.00036544943167989854
          0.00036544943167989854 0.0003825088179355416 0.0003825088357063511 0.0003825088640113958 -0.019752026809071874 -0.023055477990320435
          0.00038250883589279676 -0.0197520268275799 0.00036544945845496 -0.01975202459195098 -0.023055476526330915 0.0003654494663991851
          -0.019752024612250726 -0.02305547652849798 0.00036544944991918427 0.00038250885564418164 0.00038250882856094825 -0.019752023150933225
          -0.019752023150933225 -0.01888567840458153 0.020363884719915907 0.000763762530682804 0.0007703963631464358 0.000763762565877224
          0.0007637625242545006 -0.019752025410012922 -0.019752025410012922 0.0007637625444497641 -0.019752025368475198 -0.019752025368475198
          -0.01975202456351003 -0.023055475044668993 -0.01975202312643826 -0.01975202312643826 0.0003825088065493649 0.0003825088065493649
          0.02093643106590584 0.024256328489589047 0.020936431091766464 0.01815530420288214 0.00036544945132712466 0.020936432508572588
          -0.019752026798677012 -0.023055476519807445 0.0003825088718785854 -0.019752024590520858 0.00038250877999962727 0.0003654494644346308
          0.02093643248227215 -0.019752023119495442 -0.019752023119495442 -0.023055474990743677 -0.019752024536865444 0.0003825088065493649
          0.00036544948321517653 -0.019752024529548766 -0.023055476466403168 0.0003825088357063511 -0.0197520267743067 0.0003654495032340806
          -0.019752024514933318 -0.023055474986543187 0.00038250885564418164 -0.019752024538836375 0.00038250882856094825 0.00036544948637856893
          0.0003825088065493649
        </DataArray>
      </PointData>
      <CellData>
        <DataArray type="UInt8" Name="vtkGhostType" format="ascii" RangeMin="0" RangeMax="1">
          1 1 1 1 1 1
          1 1 1 1 1 1
          1 1 1 1 1 1
          1 1 1 1 1 1
          1 1 1 1 1 1
          1 1 1 1 1 1
          1 1 1 1 1 1
          1 1 1 1 1 1
          1 1 1 1 1 1
          1 1 1 1 1 1
          1 1 1 1 1 1
          1 1 1 1 1 1
          1 1 1 1 1 1
          1 0 0 0 0 0
          0 1 1 1 1 1
          1 0 0 0 0 0
          0 0 0 0 0 0
          1 1 0 0 0 0
          0 1 1 1 1 1
          1 1 1 1 0 0
          0 0 0 0 0 0
          0 0 0 0 0 1
          0 0 0 0 0 0
          1 1 1 1 1 0
          0 0 0 0 0 0
          0 0 0 0 1 1
          1 1 1 1 1 1
          1 1 1 1 1 1
          1 0 1 1 1 1
          0 0 0 0 0 0
          0 0 0 0 0 0
          0 0 1 1 1 0
          1 1 1 1 1 1
          1 1 1 1 1 0
          0 0 0 0 0 0
          0 0 0 0 0 1
          1 1 1 1 1 1
          1 1 1 1 1 1
          1 1 1 1 1 1
          1 1 1 0 0 0
          0 0 0 0 0 0
          0 0 0 0 0 0
          0 0 0 1 1 1
          1 1 1 1 1 1
          1 0 0 0 0 0
          0 0 0 0 0 0
          0 0 0 0 0 0
          0 0 0 0 0 0
          0 0 0 0 0 0
          0 0 0 0 0 0
          0 0 0 0 0 0
          0 0 0 0 0 0
          0 0 0 0 0 1
          1 1 1 1 1 1
          1 1 1 1 1 1
          1 1 1 1 1 1
          1 1 1 1 1 1
          1 1 1 1 1 1
          1 1 1 1 1 1
          1 1 1 1 1 1
          1 1 1 1 1 1
          1 1 1 1 1 1
          1 1 1 1 1 1
          1 1 1 1 1 1
          1 1 1 1 1 1
          1 1 1 1 1 1
          1 1 1 1 1 1
          1 1 1 1 1 1
          1 1 1 1 1 1
          1 1 1 1 1 1
          1 1 1 1 1 1
          1 1 1 1 1 1
          1 1 1 1 1 1
          1 1 1 1 1 1
          1 1 1 1 1 1
          1 1 1 1 1 1
          1 1 1 1 1 1
          1 1 1 1 1 1
          1 1 1 1 1 1
          1 1 1 1 1 1
          1 1 1 1 1 1
          1 1 1 1 1 1
          1 1 1 1 1 1
          1 1 1 1 1 1
          1 1 1 1 1 1
          1
        </DataArray>
      </CellData>
      <Points>
        <DataArray type="Float32" Name="Points" NumberOfComponents="3" format="ascii" RangeMin="0" RangeMax="1.7320508075688772">
          0.5 0.5 0.5 0.3333333134651184 0.3333333134651184 1
          0.3333333134651184 1 0.3333333134651184 0.3333333134651184 0.5 0.5
          0.5 0.16666670143604279 1 0.5 0.3333333134651184 0.5
          0.5 0.16666670143604279 0.8333333134651184 0.3333333134651184 0.3333333134651184 0.6666666865348816
          0.3333333134651184 0.6666666865348816 0.3333333134651184 0.16666670143604279 0.6666666865348816 0.5
          0.5 0.16666670143604279 0.6666666865348816 0.3333333134651184 0.16666670143604279 0.8333333134651184
          0.16666670143604279 0.3333333134651184 0.8333333134651184 0.3333333134651184 0.8333333134651184 0.16666670143604279
          0.16666670143604279 0.8333333134651184 0.3333333134651184 0.16666670143604279 0.5 0.5
          0.5 0.16666670143604279 0.5 0.5 0 0.8333333134651184
          0.3333333134651184 0.3333333134651184 0.3333333134651184 0.16666670143604279 0.16666670143604279 1
          0.16666670143604279 1 0.16666670143604279 0.3333333134651184 0.16666670143604279 0.5
          0.16666670143604279 0.3333333134651184 0.5 0.3333333134651184 0.5 0.16666670143604279
          0.16666670143604279 0.5 0.3333333134651184 0.16666670143604279 0.16666670143604279 0.8333333134651184
          0.16666670143604279 0.8333333134651184 0.16666670143604279 0.3333333134651184 1 0
          0 0.3333333134651184 1 0.3333333134651184 0 1
          0 1 0.3333333134651184 0.16666670143604279 0.16666670143604279 0.6666666865348816
          0.5 0 0.5 0 0.5 0.5
          0.16666670143604279 0.6666666865348816 0.16666670143604279 0.3333333134651184 0.6666666865348816 0
          0 0.3333333134651184 0.6666666865348816 0.3333333134651184 0 0.6666666865348816
          0 0.6666666865348816 0.3333333134651184 0.16666670143604279 0.16666670143604279 0.5
          0.16666670143604279 0.5 0.16666670143604279 0 0.16666670143604279 0.8333333134651184
          0.16666670143604279 0.8333333134651184 0 0 0.8333333134651184 0.16666670143604279
          0.16666670143604279 0 0.8333333134651184 0.16666670143604279 0.16666670143604279 0.3333333134651184
          0.16666670143604279 0.3333333134651184 0.16666670143604279 0.3333333134651184 0.16666670143604279 0.16666670143604279
          0.3333333134651184 0.3333333134651184 0 0 0.3333333134651184 0.3333333134651184
          0.3333333134651184 0 0.3333333134651184 0 0.16666670143604279 0.5
          0.16666670143604279 0.5 0 0.16666670143604279 0 0.5
          0 0.5 0.16666670143604279 0 1 0
          0 0 1 0.16666670143604279 0.16666670143604279 0.16666670143604279
          0 0.6666666865348816 0 0 0 0.6666666865348816
          0.16666670143604279 0.16666670143604279 0 0 0.16666670143604279 0.16666670143604279
          0.16666670143604279 0 0.16666670143604279 0.3333333134651184 0 0
          0 0.3333333134651184 0 0 0 0.3333333134651184
          0 0 0 0.6666666865348816 0.3333333134651184 0.6666666865348816
          0.6666666865348816 0.3333333134651184 0.3333333134651184 0.6666666865348816 0 0.6666666865348816
          0.6666666865348816 0.16666670143604279 0.5 0.6666666865348816 0.3333333134651184 1
          0.5 0.3333333134651184 0.8333333134651184 0.6666666865348816 0 1
          0.6666666865348816 0.16666670143604279 0.8333333134651184 0.6666666865348816 0.6666666865348816 0.3333333134651184