<?xml version="1.0"?>
<VTKFile type="UnstructuredGrid" version="0.1" byte_order="LittleEndian" header_type="UInt32" compressor="vtkZLibDataCompressor">
  <UnstructuredGrid>
    <Piece NumberOfPoints="146" NumberOfCells="345">
      <PointData>
        <DataArray type="Float64" Name="nsi_BC" NumberOfComponents="3" format="ascii" RangeMin="0" RangeMax="0">
          0 0 0 0 0 0
          0 0 0 0 0 0
          0 0 0 0 0 0
          0 0 0 0 0 0
          0 0 0 0 0 0
          0 0 0 0 0 0
          0 0 0 0 0 0
          0 0 0 0 0 0
          0 0 0 0 0 0
          0 0 0 0 0 0
          0 0 0 0 0 0
          0 0 0 0 0 0
          0 0 0 0 0 0
          0 0 0 0 0 0
          0 0 0 0 0 0
          0 0 0 0 0 0
          0 0 0 0 0 0
          0 0 0 0 0 0
          0 0 0 0 0 0
          0 0 0 0 0 0
          0 0 0 0 0 0
          0 0 0 0 0 0
          0 0 0 0 0 0
          0 0 0 0 0 0
          0 0 0 0 0 0
          0 0 0 0 0 0
          0 0 0 0 0 0
          0 0 0 0 0 0
          0 0 0 0 0 0
          0 0 0 0 0 0
          0 0 0 0 0 0
          0 0 0 0 0 0
          0 0 0 0 0 0
          0 0 0 0 0 0
          0 0 0 0 0 0
          0 0 0 0 0 0
          0 0 0 0 0 0
          0 0 0 0 0 0
          0 0 0 0 0 0
          0 0 0 0 0 0
          0 0 0 0 0 0
          0 0 0 0 0 0
          0 0 0 0 0 0
          0 0 0 0 0 0
          0 0 0 0 0 0
          0 0 0 0 0 0
          0 0 0 0 0 0
          0 0 0 0 0 0
          0 0 0 0 0 0
          0 0 0 0 0 0
          0 0 0 0 0 0
          0 0 0 0 0 0
          0 0 0 0 0 0
          0 0 0 0 0 0
          0 0 0 0 0 0
          0 0 0 0 0 0
          0 0 0 0 0 0
          0 0 0 0 0 0
          0 0 0 0 0 0
          0 0 0 0 0 0
          0 0 0 0 0 0
          0 0 0 0 0 0
          0 0 0 0 0 0
          0 0 0 0 0 0
          0 0 0 0 0 0
          0 0 0 0 0 0
          0 0 0 0 0 0
          0 0 0 0 0 0
          0 0 0 0 0 0
          0 0 0 0 0 0
          0 0 0 0 0 0
          0 0 0 0 0 0
          0 0 0 0 0 0
          <InformationKey name="L2_NORM_RANGE" location="vtkDataArray" length="2">
            <Value index="0">
              0
            </Value>
            <Value index="1">
              0
            </Value>
          </InformationKey>
        </DataArray>
        <DataArray type="Float64" Name="nsi_FIXNO" NumberOfComponents="3" format="ascii" RangeMin="1.7320508075688772" RangeMax="1.7320508075688772">
          -1 -1 -1 -1 -1 -1
          -1 -1 -1 -1 -1 -1
          -1 -1 -1 -1 -1 -1
          -1 -1 -1 -1 -1 -1
          -1 -1 -1 -1 -1 -1
          -1 -1 -1 -1 -1 -1
          -1 -1 -1 -1 -1 -1
          -1 -1 -1 -1 -1 -1
          -1 -1 -1 -1 -1 -1
          -1 -1 -1 -1 -1 -1
          -1 -1 -1 -1 -1 -1
          -1 -1 -1 -1 -1 -1
          -1 -1 -1 -1 -1 -1
          -1 -1 -1 -1 -1 -1
          -1 -1 -1 -1 -1 -1
          -1 -1 -1 -1 -1 -1
          -1 -1 -1 -1 -1 -1
          -1 -1 -1 -1 -1 -1
          -1 -1 -1 -1 -1 -1
          -1 -1 -1 -1 -1 -1
          -1 -1 -1 -1 -1 -1
          -1 -1 -1 -1 -1 -1
          -1 -1 -1 -1 -1 -1
          -1 -1 -1 -1 -1 -1
          -1 -1 -1 -1 -1 -1
          -1 -1 -1 -1 -1 -1
          -1 -1 -1 -1 -1 -1
          -1 -1 -1 -1 -1 -1
          -1 -1 -1 -1 -1 -1
          -1 -1 -1 -1 -1 -1
          -1 -1 -1 -1 -1 -1
          -1 -1 -1 -1 -1 -1
          -1 -1 -1 -1 -1 -1
          -1 -1 -1 -1 -1 -1
          -1 -1 -1 -1 -1 -1
          -1 -1 -1 -1 -1 -1
          -1 -1 -1 -1 -1 -1
          -1 -1 -1 -1 -1 -1
          -1 -1 -1 -1 -1 -1
          -1 -1 -1 -1 -1 -1
          -1 -1 -1 -1 -1 -1
          -1 -1 -1 -1 -1 -1
          -1 -1 -1 -1 -1 -1
          -1 -1 -1 -1 -1 -1
          -1 -1 -1 -1 -1 -1
          -1 -1 -1 -1 -1 -1
          -1 -1 -1 -1 -1 -1
          -1 -1 -1 -1 -1 -1
          -1 -1 -1 -1 -1 -1
          -1 -1 -1 -1 -1 -1
          -1 -1 -1 -1 -1 -1
          -1 -1 -1 -1 -1 -1
          -1 -1 -1 -1 -1 -1
          -1 -1 -1 -1 -1 -1
          -1 -1 -1 -1 -1 -1
          -1 -1 -1 -1 -1 -1
          -1 -1 -1 -1 -1 -1
          -1 -1 -1 -1 -1 -1
          -1 -1 -1 -1 -1 -1
          -1 -1 -1 -1 -1 -1
          -1 -1 -1 -1 -1 -1
          -1 -1 -1 -1 -1 -1
          -1 -1 -1 -1 -1 -1
          -1 -1 -1 -1 -1 -1
          -1 -1 -1 -1 -1 -1
          -1 -1 -1 -1 -1 -1
          -1 -1 -1 -1 -1 -1
          -1 -1 -1 -1 -1 -1
          -1 -1 -1 -1 -1 -1
          -1 -1 -1 -1 -1 -1
          -1 -1 -1 -1 -1 -1
          -1 -1 -1 -1 -1 -1
          -1 -1 -1 -1 -1 -1
          <InformationKey name="L2_NORM_RANGE" location="vtkDataArray" length="2">
            <Value index="0">
              1.7320508076
            </Value>
            <Value index="1">
              1.7320508076
            </Value>
          </InformationKey>
        </DataArray>
        <DataArray type="Float64" Name="Velocity" NumberOfComponents="3" format="ascii" RangeMin="0.19767636603867955" RangeMax="0.20674794686516546">
          0.19819882603378133 -5.993213549324904e-10 4.971021021420706e-10 0.20530824685572446 -5.826433340243716e-10 5.187058832133296e-10
          0.19767636603867955 -7.04566182613117e-10 5.241024948901556e-10 0.19994815791468684 -5.034012615406983e-10 5.492460442293462e-10
          0.19819882599820288 -1.0825426217889348e-9 5.435233008462132e-10 0.20674794598311125 -5.775889183190278e-10 4.763290644903086e-10
          0.2053082458677046 -5.565827828815152e-10 4.822489560969411e-10 0.1981988262113262 -4.1516582592727933e-10 1.0266599481177512e-9
          0.19767636607208564 -5.595458620915126e-10 5.294847497014128e-10 0.19800593450376955 -5.710658535572103e-10 6.279664393972508e-10
          0.2067479451086033 -5.255265557704584e-10 4.764144758787876e-10 0.1999481585051959 -5.935156412882955e-10 5.547877042233238e-10
          0.19800593496562088 -6.915434849931969e-10 6.792832193154366e-10 0.1981988262870995 -5.849080723332506e-10 3.6033288856619463e-10
          0.19819882607176953 -7.85537042259088e-11 5.129454549275869e-10 0.20530824796057545 -5.427597026122551e-10 4.620625809611709e-10
          0.19819882610300243 -5.6097835027893e-10 1.034871965547398e-9 0.20024329731970425 -5.726363984393876e-10 5.184586224688434e-10
          0.19767636614419865 -6.855202031909784e-10 6.474733483875061e-10 0.19994815756330267 -4.871618045357573e-10 4.4543460933217045e-10
          0.19819882623088336 -7.599259486198455e-10 2.5208251248980063e-11 0.19819882625533303 -1.0666933249132474e-9 3.7712203860162825e-10
          0.2067479451589613 -5.494390782923887e-10 4.906955231557825e-10 0.20530824700098438 -5.510143542396078e-10 4.754218156050529e-10
          0.2002432972968447 -5.752852393925989e-10 5.36834624036698e-10 0.2002432974570718 -5.780014290364931e-10 4.774720886937645e-10
          0.20530824692321342 -5.956749753393519e-10 4.840899461164399e-10 0.19767636620009052 -5.636125740429659e-10 6.584497634368322e-10
          0.19767636611510914 -4.5975942065814297e-10 5.007238653635629e-10 0.20013019324261005 -5.698585584501646e-10 5.111983337045865e-10
          0.20674794686516546 -5.570084819585053e-10 4.4625158623259544e-10 0.19800593503655592 -4.193486088797885e-10 6.410198325568594e-10
          0.19819882623329893 -4.2164070686468305e-10 5.389549083795339e-10 0.19994815814198938 -5.888435980879362e-10 4.580506226274005e-10
          0.19994815803975688 -6.631568442449956e-10 5.113916438297978e-10 0.2002432973707959 -5.954127347837715e-10 5.196225682793894e-10
          0.20674794598234456 -5.349225321062585e-10 4.5498299085609765e-10 0.1980059340645589 -5.273365342794746e-10 5.194917526662813e-10
          0.20674794594600332 -5.850391933501493e-10 4.6137286662515836e-10 0.19819882632616986 -8.11637702610078e-11 3.7070609406682114e-10
          0.19819882629566085 -7.497389225438677e-10 1.020074367116558e-9 0.20013019317856193 -5.850516794544304e-10 5.293576711562452e-10
          0.19800593451159082 -6.958120690517632e-10 5.621193527307741e-10 0.1980059344505861 -5.488034520348773e-10 3.3790604317366677e-10
          0.19819882611482745 -5.899751861167783e-10 5.570141109486785e-10 0.2002432974765903 -5.715765279522603e-10 5.223898986911425e-10
          0.19819882603378133 -5.993213549324904e-10 4.971021021420706e-10 0.20024329737536306 -5.522750806854819e-10 4.680846103854754e-10
          0.20024329740824984 -5.792772347231142e-10 5.039652660065071e-10 0.20530824803486106 -5.754231206503812e-10 4.689781870402815e-10
          0.1976763662422456 -4.578837698845035e-10 6.453125734651069e-10 0.20674794603605093 -5.581450012520545e-10 4.690275922820209e-10
          0.20674794598311125 -5.775889183190278e-10 4.763290644903086e-10 0.20024329741533867 -5.921494928637742e-10 5.503663955889441e-10
          0.19994815764422397 -6.552368930020522e-10 4.301740325439e-10 0.1980059345827259 -4.369181427751848e-10 5.258568287558233e-10
          0.19800593450376955 -5.710658535572103e-10 6.279664393972508e-10 0.20013019327970555 -5.583924255978777e-10 4.829831903041173e-10
          0.19819882633234123 -7.514821984138888e-10 5.393304865856183e-10 0.1981988262870995 -5.849080723332506e-10 3.6033288856619463e-10
          0.20024329747547404 -5.598781746379292e-10 4.770506947133909e-10 0.2002432974570718 -5.780014290364931e-10 4.774720886937645e-10
          0.20674794686516546 -5.570084819585053e-10 4.4625158623259544e-10 0.1980059340645589 -5.273365342794746e-10 5.194917526662813e-10
          0.19800593498930122 -4.4922824038781466e-10 3.674108139700832e-10 0.20024329727818907 -5.792751959130751e-10 4.81159659480262e-10
          0.20013019308559865 -5.500846364329708e-10 4.5379341504214687e-10 0.20024329730176138 -5.6058711128534e-10 4.692751181660892e-10
          0.20674794511200192 -5.689375932825856e-10 4.676272635330094e-10 0.20013019324331707 -5.49529357876714e-10 4.634510196431133e-10
          0.1999481575722326 -6.609076249459153e-10 6.052906926595103e-10 0.19767636616967244 -4.869980254362993e-10 3.9819823304876797e-10
          0.2053082479659875 -5.94065568448495e-10 4.639360777444554e-10 0.20674794686516546 -5.570084819585053e-10 4.4625158623259544e-10
          0.1979582980579922 -4.049996133516347e-10 3.0325170439214323e-10 0.20024329719178274 -5.850653770438672e-10 5.295597183262898e-10
          0.2001301929793653 -5.834814876381145e-10 4.868355391589251e-10 0.1980059349110914 -7.236116331109542e-10 4.1220676389825356e-10
          0.20674794505068406 -5.665089044080146e-10 4.797194964961294e-10 0.19819882600936514 -5.760465774100663e-10 6.396706336318452e-11
          0.197958297570055 -5.480893643189294e-10 2.8511641160643586e-10 0.20024329729007623 -5.722291355934456e-10 4.869101696763218e-10
          0.20013019303798363 -5.775039852644422e-10 5.264260743261869e-10 0.1980059344505861 -5.488034520348773e-10 3.3790604317366677e-10
          0.20674794594600332 -5.850391933501493e-10 4.6137286662515836e-10 0.19819882613367992 -4.3138054024827716e-10 5.851183648366989e-11
          0.1979582980822172 -6.829694028115116e-10 2.9457317362591075e-10 0.19795829761923484 -6.96396936595153e-10 4.4959681006144446e-10
          0.197958297570055 -5.480893643189294e-10 2.8511641160643586e-10 0.19989719411221174 -4.603169835132596e-10 5.422491091190934e-10
          0.19795829754145228 -5.431327070069412e-10 5.907125217035266e-10 0.20024329729007623 -5.722291355934456e-10 4.869101696763218e-10
          0.1980059340645589 -5.273365342794746e-10 5.194917526662813e-10 0.20024329741369387 -5.562378921084443e-10 4.986283854018357e-10
          0.19819882621878934 -6.099612860278543e-10 6.657796135857182e-10 0.19795829759132874 -3.9653497330275867e-10 4.631607489098369e-10
          0.1998971946330787 -5.628861133163507e-10 5.437730744052214e-10 0.1979582971125218 -5.365025969517271e-10 4.480482652383047e-10
          0.19989719406747047 -6.443237468012e-10 5.458506487641965e-10 0.1979582971125218 -5.365025969517271e-10 4.480482652383047e-10
          0.20530824685572446 -5.826433340243716e-10 5.187058832133296e-10 0.20674794505068406 -5.665089044080146e-10 4.797194964961294e-10
          0.20674794598311125 -5.775889183190278e-10 4.763290644903086e-10 0.2053082458677046 -5.565827828815152e-10 4.822489560969411e-10
          0.2067479451086033 -5.255265557704584e-10 4.764144758787876e-10 0.20530824796057545 -5.427597026122551e-10 4.620625809611709e-10
          0.2067479451589613 -5.494390782923887e-10 4.906955231557825e-10 0.20530824700098438 -5.510143542396078e-10 4.754218156050529e-10
          0.20530824692321342 -5.956749753393519e-10 4.840899461164399e-10 0.20674794686516546 -5.570084819585053e-10 4.4625158623259544e-10
          0.20674794598234456 -5.349225321062585e-10 4.5498299085609765e-10 0.20674794594600332 -5.850391933501493e-10 4.6137286662515836e-10
          0.20530824803486106 -5.754231206503812e-10 4.689781870402815e-10 0.20674794603605093 -5.581450012520545e-10 4.690275922820209e-10
          0.20674794511200192 -5.689375932825856e-10 4.676272635330094e-10 0.2053082479659875 -5.94065568448495e-10 4.639360777444554e-10
          0.20674794686516546 -5.570084819585053e-10 4.4625158623259544e-10 0.1980059340645589 -5.273365342794746e-10 5.194917526662813e-10
          0.19819882621878934 -6.099612860278543e-10 6.657796135857182e-10 0.19767636606657685 -7.133935037209318e-10 4.013980254410663e-10
          0.19819882623329893 -4.2164070686468305e-10 5.389549083795339e-10 0.20674794598234456 -5.349225321062585e-10 4.5498299085609765e-10
          0.19800593451159082 -6.958120690517632e-10 5.621193527307741e-10 0.1979582971125218 -5.365025969517271e-10 4.480482652383047e-10
          0.20024329741369387 -5.562378921084443e-10 4.986283854018357e-10 0.20013019322702844 -5.574322739880826e-10 5.190044834372736e-10
          0.2002432974765903 -5.715765279522603e-10 5.223898986911425e-10 0.19994815747617542 -4.905517465648522e-10 6.221233113542183e-10
          0.19795829754145228 -5.431327070069412e-10 5.907125217035266e-10 0.200243297262387 -5.601946908325737e-10 5.346692073207028e-10
          0.19795829759132874 -3.9653497330275867e-10 4.631607489098369e-10 0.2002432973145353 -5.702300955980793e-10 5.468161473869586e-10
          0.20013019310934488 -5.894108010142094e-10 5.418219642432226e-10 0.20024329741533867 -5.921494928637742e-10 5.503663955889441e-10
          0.1980059345827259 -4.369181427751848e-10 5.258568287558233e-10 0.19994815802059318 -5.992323312627103e-10 6.358422376622336e-10
          0.19819882618550402 -1.0977095611990662e-9 6.685217321356536e-10 0.19767636611104533 -5.922088401223348e-10 4.206022957082009e-10
          0.19819882611482745 -5.899751861167783e-10 5.570141109486785e-10 0.20674794603605093 -5.581450012520545e-10 4.690275922820209e-10
          0.19795829761923484 -6.96396936595153e-10 4.4959681006144446e-10 0.20024329738682442 -5.83040832710855e-10 5.048209101367747e-10
          0.20024329747547404 -5.598781746379292e-10 4.770506947133909e-10 0.19819882625992294 -1.184269748412448e-10 6.638545609048012e-10
          0.19819882633234123 -7.514821984138888e-10 5.393304865856183e-10 0.1979582971125218 -5.365025969517271e-10 4.480482652383047e-10
          <InformationKey name="L2_NORM_RANGE" location="vtkDataArray" length="2">
            <Value index="0">
              0.19767636604
            </Value>
            <Value index="1">
              0.20674794687
            </Value>
          </InformationKey>
        </DataArray>
        <DataArray type="Float64" Name="Pressure" format="ascii" RangeMin="-0.023055477990320435" RangeMax="0.02036388477322293">
          -0.019752025410012922 0.00036544944991918427 -0.02305547652849798 -0.01670623197972769 -0.019752026809071874 0.00038250882856094825
          0.00036544945845496 -0.019752024536865444 -0.023055477990320435 -0.01888567840220165 0.0003825088640113958 -0.01670623196038969
          -0.018885678416585384 -0.019752023119495442 -0.019752026798677012 0.00036544948321517653 -0.0197520267743067 0.000763762580078769
          -0.023055474990743677 -0.016706231938425745 -0.019752024590520858 -0.019752024529548766 0.0003825088718785854 0.0003654495032340806
          0.0007637625975436776 0.0007637625782693347 0.0003654494644346308 -0.023055476466403168 -0.023055476519807445 0.0007703964206654139
          0.0003825088065493649 -0.018885678418576635 -0.019752023150933225 -0.01670623193485053 -0.016706231986459142 0.0007637625880752576
          0.0003825088357063511 -0.01888567837529623 0.00038250877999962727 -0.019752024514933318 -0.019752024538836375 0.0007703964325618284
          -0.01888567840458153 -0.01888567846876002 -0.019752025368475198 0.000763762565877224 -0.019752025410012922 0.0007637625653257324
          0.00076376258915031 0.00036544948637856893 -0.023055474986543187 0.00038250885564418164 0.00038250882856094825 0.0007637625819541217
          -0.01670623194265899 -0.018885678389683504 -0.01888567840220165 0.0007703964089521452 -0.01975202312643826 -0.019752023119495442
          0.0007637625602671586 0.0007637625782693347 0.0003825088065493649 -0.01888567837529623 -0.018885678474411076 0.0007637625639310208
          0.0007703963740086189 0.0007637625211337841 0.00038250883589279676 0.0007703963628650917 -0.01670623199607124 -0.023055475044668993
          0.00036544945132712466 0.0003825088065493649 0.02036388477322293 0.0007637625710324806 0.0007703964176771574 -0.018885678485841766
          0.0003825088179355416 -0.0197520268275799 0.020363884729723836 0.0007637625424913358 0.0007703963866388367 -0.01888567846876002
          0.00038250877999962727 -0.019752024612250726 0.02036388476375256 0.020363884746467612 0.020363884729723836 0.018155304231418076
          0.020363884695341266 0.0007637625424913358 -0.01888567837529623 0.000763762530682804 -0.019752023187060038 0.02036388475045083
          0.01815530424705418 0.020363884719915907 0.018155304239591316 0.020363884719915907 0.00036544944991918427 0.0003825088179355416
          0.00038250882856094825 0.00036544945845496 0.0003825088640113958 0.00036544948321517653 0.0003825088718785854 0.0003654495032340806
          0.0003654494644346308 0.0003825088065493649 0.0003825088357063511 0.00038250877999962727 0.00036544948637856893 0.00038250885564418164
          0.00038250883589279676 0.00036544945132712466 0.0003825088065493649 -0.01888567837529623 -0.019752023187060038 -0.023055475075901347
          -0.019752023150933225 0.0003825088357063511 -0.01888567840458153 0.020363884719915907 0.000763762530682804 0.0007703963631464358
          0.000763762565877224 -0.01670623201170918 0.020363884695341266 0.0007637625242545006 0.02036388475045083 0.0007637625444497641
          0.0007703963885768673 0.0007637625819541217 -0.018885678389683504 -0.016706231985205836 -0.01975202459195098 -0.023055476526330915
          -0.019752025368475198 0.00038250885564418164 0.020363884746467612 0.0007637625496282567 0.0007637625602671586 -0.01975202456351003
          -0.01975202312643826 0.020363884719915907
        </DataArray>
      </PointData>
      <CellData>
        <DataArray type="UInt8" Name="vtkGhostType" format="ascii" RangeMin="0" RangeMax="1">
          1 1 1 1 1 1
          0 1 1 1 1 1
          1 1 1 1 1 1
          1 1 1 1 1 0
          0 0 0 0 0 0
          0 0 0 0 0 0
          0 0 0 0 1 1
          0 0 1 0 1 1
          1 1 1 0 1 1
          1 1 1 1 1 1
          0 0 0 0 0 1
          0 1 1 1 1 0
          1 0 0 0 0 0
          0 0 0 0 0 0
          0 0 0 0 0 0
          0 0 0 0 0 0
          0 0 0 0 0 0
          1 1 1 1 1 1
          1 1 1 1 1 1
          1 1 0 1 1 1
          1 1 1 1 1 0
          0 0 0 0 1 0
          1 1 1 1 0 1
          0 0 0 0 0 0
          0 0 0 0 0 0
          0 0 0 0 0 0
          0 0 0 0 0 0
          0 0 0 0 0 0
          0 0 0 0 0 0
          0 0 0 0 0 0
          0 0 0 0 0 1
          1 0 1 1 1 1
          1 0 0 0 0 0
          0 0 0 0 0 0
          0 0 0 0 0 0
          0 0 0 0 0 0
          0 0 0 0 0 0
          0 0 0 0 0 0
          0 0 0 0 0 0
          0 0 0 0 0 0
          0 0 0 0 0 0
          0 0 0 0 0 0
          0 0 0 0 0 0
          0 0 0 0 0 0
          0 0 0 0 0 0
          0 0 1 1 1 1
          1 1 1 1 1 1
          1 1 1 1 1 1
          1 1 1 1 1 1
          1 1 1 1 1 1
          1 1 1 1 1 1
          1 1 1 1 1 1
          1 1 1 1 1 1
          1 1 1 1 1 1
          1 1 1 1 1 1
          1 1 1 1 1 1
          1 1 1 1 1 1
          1 1 1
        </DataArray>
      </CellData>
      <Points>
        <DataArray type="Float32" Name="Points" NumberOfComponents="3" format="ascii" RangeMin="0" RangeMax="1.7320508075688772">
          0.8333333134651184 1 0.5 1 0.8333333134651184 0.5
          0.8333333134651184 0.8333333134651184 0.5 0.6666666865348816 0.8333333134651184 0.5
          0.8333333134651184 0.6666666865348816 0.5 1 1 0.3333333134651184
          1 0.5 0.5 0.8333333134651184 0.8333333134651184 0.3333333134651184
          0.8333333134651184 0.5 0.5 0.6666666865348816 1 0.3333333134651184
          1 0.6666666865348816 0.3333333134651184 0.6666666865348816 0.5 0.5
          0.6666666865348816 0.6666666865348816 0.3333333134651184 0.8333333134651184 1 0.16666670143604279
          0.8333333134651184 0.3333333134651184 0.5 1 0.8333333134651184 0.16666670143604279
          0.8333333134651184 0.5 0.3333333134651184 0.5 0.8333333134651184 0.3333333134651184
          0.8333333134651184 0.8333333134651184 0.16666670143604279 0.6666666865348816 0.8333333134651184 0.16666670143604279
          0.8333333134651184 0.16666670143604279 0.6666666865348816 0.8333333134651184 0.6666666865348816 0.16666670143604279
          1 0.3333333134651184 0.3333333134651184 1 0.5 0.16666670143604279
          0.5 0.5 0.3333333134651184 0.5 1 0.16666670143604279
          1 0.16666670143604279 0.5 0.8333333134651184 0.5 0.16666670143604279
          0.8333333134651184 0.16666670143604279 0.5 0.5 0.8333333134651184 0.16666670143604279
          1 1 0 0.6666666865348816 0.3333333134651184 0.3333333134651184
          0.8333333134651184 0.8333333134651184 0 0.6666666865348816 0.5 0.16666670143604279
          0.6666666865348816 0.16666670143604279 0.5 0.5 0.6666666865348816 0.16666670143604279
          1 0.6666666865348816 0 0.6666666865348816 1 0
          1 0 0.6666666865348816 0.8333333134651184 0.3333333134651184 0.16666670143604279
          0.8333333134651184 0.16666670143604279 0.3333333134651184 0.5 0.5 0.16666670143604279
          0.6666666865348816 0.6666666865348816 0 0.6666666865348816 0 0.6666666865348816
          0.8333333134651184 0.5 0 0.5 0.8333333134651184 0
          0.8333333134651184 0 0.5 0.5 0.16666670143604279 0.3333333134651184
          0.5 0.3333333134651184 0.16666670143604279 1 0.16666670143604279 0.16666670143604279
          0.8333333134651184 0.16666670143604279 0.16666670143604279 1 0.3333333134651184 0
          1 0 0.3333333134651184 0.5 0.5 0
          0.6666666865348816 0.16666670143604279 0.16666670143604279 0.6666666865348816 0.3333333134651184 0
          0.6666666865348816 0 0.3333333134651184 0.5 0.16666670143604279 0.16666670143604279
          0.8333333134651184 0.16666670143604279 0 0.8333333134651184 0 0.16666670143604279
          0.5 0.16666670143604279 0 0.5 0 0.16666670143604279
          1 0 0 0.6666666865348816 0 0
          0.6666666865348816 0.3333333134651184 0.6666666865348816 0.5 0.3333333134651184 0.5
          0.5 0.16666670143604279 0.5 0.5 0.16666670143604279 0.6666666865348816
          1 0.3333333134651184 0.6666666865348816 0.5 0.16666670143604279 0.8333333134651184
          0.6666666865348816 0.16666670143604279 0.8333333134651184 0.8333333134651184 0.16666670143604279 0.8333333134651184
          1 0.16666670143604279 0.8333333134651184 1 0 1
          0.3333333134651184 0.6666666865348816 0.3333333134651184 0.5 0.6666666865348816 0.5
          0.5 0.5 0.5 0.6666666865348816 0.6666666865348816 0.6666666865348816
          1 0.6666666865348816 0.6666666865348816 0.8333333134651184 0.5 0.6666666865348816
          0.3333333134651184 1 0.3333333134651184 0.5 1 0.5
          0.5 0.8333333134651184 0.5 0.6666666865348816 1 0.6666666865348816
          1 1 0.6666666865348816 0.8333333134651184 0.8333333134651184 0.6666666865348816
          0.3333333134651184 0.3333333134651184 0.3333333134651184 0.3333333134651184 0.3333333134651184 0
          0.3333333134651184 0 0.3333333134651184 0.3333333134651184 0.16666670143604279 0.16666670143604279
          0.3333333134651184 0 0.6666666865348816 0.5 0 0.5
          0.6666666865348816 0 1 0.5 0 0.8333333134651184
          0.8333333134651184 0 0.8333333134651184 0.3333333134651184 0.6666666865348816 0
          0.3333333134651184 0.5 0.16666670143604279 0.3333333134651184 1 0
          0.3333333134651184 0.8333333134651184 0.16666670143604279 0.3333333134651184 0 0
          0 0.8333333134651184 0.5 0 0.6666666865348816 0.6666666865348816
          0 0 0.3333333134651184 0 0.5 0.5
          0 0.6666666865348816 0.3333333134651184 0 0.8333333134651184 0.16666670143604279
          0 0.3333333134651184 0.3333333134651184 0 0.5 0.16666670143604279
          0 0.16666670143604279 0.5 0 0 0
          0 0.6666666865348816 0 0 0 0.6666666865348816
          0 0.16666670143604279 0.16666670143604279 0 0.3333333134651184 0
          0 0.3333333134651184 0.6666666865348816 0 0.16666670143604279 0.8333333134651184
          1 1 1 0.6666666865348816 1 1
          0.8333333134651184 1 0.8333333134651184 0.8333333134651184 0.8333333134651184 0.8333333134651184
          0.8333333134651184 0.8333333134651184 1 1 0.6666666865348816 1
          0.6666666865348816 0.6666666865348816 1 0.3333333134651184 1 1
          0.5 1 0.8333333134651184 0.5 0.8333333134651184 0.8333333134651184
          0.5 0.8333333134651184 1 0.6666666865348816 0.8333333134651184 0.8333333134651184
          0.3333333134651184 1 0.6666666865348816 0.5 0.8333333134651184 0.6666666865348816
          0.3333333134651184 0.6666666865348816 1 0.5 0.6666666865348816 0.8333333134651184
          0.5 0.5 0.8333333134651184 0.5 0.5 1
          0.6666666865348816 0.3333333134651184 1 0.6666666865348816 0.5 0.8333333134651184
          0.8333333134651184 0.6666666865348816 0.8333333134651184 0.8333333134651184 0.5 0.8333333134651184
          0.8333333134651184 0.5 1 1 0.3333333134651184 1
          0.3333333134651184 0.3333333134651184 1 0.5 0.3333333134651184 0.8333333134651184
          0.5 0.16666670143604279 1 0.8333333134651184 0.3333333134651184 0.8333333134651184
          0.8333333134651184 0.16666670143604279 1 0.3333333134651184 0 1
          <InformationKey name="L2_NORM_RANGE" location="vtkDataArray" length="2">
            <Value index="0">
              0
            </Value>
            <Value index="1">
              1.7320508076
            </Value>
          </InformationKey>
        </DataArray>
      </Points>
      <Cells>
        <DataArray type="Int64" Name="connectivity" format="ascii" RangeMin="0" RangeMax="145">
          31 64 65 66 64 43
          67 66 64 31 34 66
          43 64 34 66 68 64
          14 28 64 31 14 28
          31 22 14 28 22 68
          14 28 64 68 20 28
          68 38 20 28 43 64
          20 28 31 64 34 28
          64 43 34 28 68 22
          26 28 38 68 26 28
          43 64 67 69 64 43
          70 69 43 64 70 71
          64 43 20 71 38 68
          20 71 68 64 20 71
          68 38 72 71 38 73
          72 71 12 74 35 41
          42 12 35 41 74 12
          24 41 12 31 24 41
          12 42 33 41 31 12
          33 41 10 12 21 27
          12 42 21 27 36 10
          21 27 12 10 16 27
          10 22 16 27 22 31
          16 27 31 12 16 27
          42 12 33 27 12 31
          33 27 10 36 23 27
          22 10 23 27 74 12
          75 76 12 77 75 76
          31 12 24 76 12 74
          24 76 77 12 11 76
          12 31 11 76 31 64
          11 76 64 77 11 76
          64 31 65 76 78 77
          4 8 77 12 4 8
          12 10 4 8 10 78
          4 8 77 78 79 8
          78 68 79 8 68 64
          79 8 64 77 79 8
          12 77 11 8 77 64
          11 8 64 31 11 8
          31 12 11 8 12 31
          16 8 31 22 16 8
          22 10 16 8 10 12
          16 8 78 10 6 8
          10 22 6 8 22 68
          6 8 68 78 6 8
          64 68 14 8 68 22
          14 8 22 31 14 8
          31 64 14 8 9 80
          25 29 37 9 25 29
          80 9 17 29 9 12
          17 29 12 74 17 29
          74 80 17 29 9 37
          19 29 42 12 19 29
          12 9 19 29 74 12
          35 29 12 42 35 29
          5 9 13 18 9 37
          13 18 37 30 13 18
          30 5 13 18 9 5
          7 18 5 10 7 18
          10 12 7 18 12 9
          7 18 37 9 19 18
          9 12 19 18 12 42
          19 18 5 30 15 18
          30 36 15 18 36 10
          15 18 10 5 15 18
          12 10 21 18 10 36
          21 18 42 12 21 18
          80 9 81 82 9 83
          81 82 80 74 17 82
          74 12 17 82 12 9
          17 82 9 80 17 82
          83 9 3 82 9 12
          3 82 12 77 3 82
          77 83 3 82 77 12
          75 82 12 74 75 82
          84 83 0 2 83 9
          0 2 9 5 0 2
          5 84 0 2 83 84
          85 2 84 78 85 2
          78 77 85 2 77 83
          85 2 9 83 3 2
          83 77 3 2 77 12
          3 2 12 9 3 2
          9 12 7 2 12 10
          7 2 10 5 7 2
          5 9 7 2 84 5
          1 2 5 10 1 2
          10 78 1 2 78 84
          1 2 77 78 4 2
          78 10 4 2 10 12
          4 2 12 77 4 2
          31 86 48 57 86 87
          48 57 55 31 48 57
          86 31 47 57 31 56
          47 57 88 86 47 57
          87 86 89 57 86 88
          89 57 31 55 54 57
          56 31 54 57 22 31
          39 50 31 55 39 50
          55 51 39 50 51 22
          39 50 31 22 40 50
          22 52 40 50 52 56
          40 50 56 31 40 50
          55 31 54 50 31 56
          54 50 22 51 49 50
          52 22 49 50 86 31
          65 66 43 90 67 66
          86 88 47 66 88 56
          47 66 56 31 47 66
          31 86 47 66 31 56
          34 66 56 43 34 66
          90 43 91 66 43 56
          91 66 56 88 91 66
          38 43 20 28 43 56