<?xml version="1.0"?>
<VTKFile type="UnstructuredGrid" version="0.1" byte_order="LittleEndian" header_type="UInt32" compressor="vtkZLibDataCompressor">
  <UnstructuredGrid>
    <Piece NumberOfPoints="193" NumberOfCells="511">
      <PointData>
        <DataArray type="Float64" Name="nsi_BC" NumberOfComponents="3" format="ascii" RangeMin="0" RangeMax="0">
          0 0 0 0 0 0
          0 0 0 0 0 0
          0 0 0 0 0 0
          0 0 0 0 0 0
          0 0 0 0 0 0
          0 0 0 0 0 0
          0 0 0 0 0 0
          0 0 0 0 0 0
          0 0 0 0 0 0
          0 0 0 0 0 0
          0 0 0 0 0 0
          0 0 0 0 0 0
          0 0 0 0 0 0
          0 0 0 0 0 0
          0 0 0 0 0 0
          0 0 0 0 0 0
          0 0 0 0 0 0
          0 0 0 0 0 0
          0 0 0 0 0 0
          0 0 0 0 0 0
          0 0 0 0 0 0
          0 0 0 0 0 0
          0 0 0 0 0 0
          0 0 0 0 0 0
          0 0 0 0 0 0
          0 0 0 0 0 0
          0 0 0 0 0 0
          0 0 0 0 0 0
          0 0 0 0 0 0
          0 0 0 0 0 0
          0 0 0 0 0 0
          0 0 0 0 0 0
          0 0 0 0 0 0
          0 0 0 0 0 0
          0 0 0 0 0 0
          0 0 0 0 0 0
          0 0 0 0 0 0
          0 0 0 0 0 0
          0 0 0 0 0 0
          0 0 0 0 0 0
          0 0 0 0 0 0
          0 0 0 0 0 0
          0 0 0 0 0 0
          0 0 0 0 0 0
          0 0 0 0 0 0
          0 0 0 0 0 0
          0 0 0 0 0 0
          0 0 0 0 0 0
          0 0 0 0 0 0
          0 0 0 0 0 0
          0 0 0 0 0 0
          0 0 0 0 0 0
          0 0 0 0 0 0
          0 0 0 0 0 0
          0 0 0 0 0 0
          0 0 0 0 0 0
          0 0 0 0 0 0
          0 0 0 0 0 0
          0 0 0 0 0 0
          0 0 0 0 0 0
          0 0 0 0 0 0
          0 0 0 0 0 0
          0 0 0 0 0 0
          0 0 0 0 0 0
          0 0 0 0 0 0
          0 0 0 0 0 0
          0 0 0 0 0 0
          0 0 0 0 0 0
          0 0 0 0 0 0
          0 0 0 0 0 0
          0 0 0 0 0 0
          0 0 0 0 0 0
          0 0 0 0 0 0
          0 0 0 0 0 0
          0 0 0 0 0 0
          0 0 0 0 0 0
          0 0 0 0 0 0
          0 0 0 0 0 0
          0 0 0 0 0 0
          0 0 0 0 0 0
          0 0 0 0 0 0
          0 0 0 0 0 0
          0 0 0 0 0 0
          0 0 0 0 0 0
          0 0 0 0 0 0
          0 0 0 0 0 0
          0 0 0 0 0 0
          0 0 0 0 0 0
          0 0 0 0 0 0
          0 0 0 0 0 0
          0 0 0 0 0 0
          0 0 0 0 0 0
          0 0 0 0 0 0
          0 0 0 0 0 0
          0 0 0 0 0 0
          0 0 0 0 0 0
          0 0 0
          <InformationKey name="L2_NORM_RANGE" location="vtkDataArray" length="2">
            <Value index="0">
              0
            </Value>
            <Value index="1">
              0
            </Value>
          </InformationKey>
        </DataArray>
        <DataArray type="Float64" Name="nsi_FIXNO" NumberOfComponents="3" format="ascii" RangeMin="1.7320508075688772" RangeMax="1.7320508075688772">
          -1 -1 -1 -1 -1 -1
          -1 -1 -1 -1 -1 -1
          -1 -1 -1 -1 -1 -1
          -1 -1 -1 -1 -1 -1
          -1 -1 -1 -1 -1 -1
          -1 -1 -1 -1 -1 -1
          -1 -1 -1 -1 -1 -1
          -1 -1 -1 -1 -1 -1
          -1 -1 -1 -1 -1 -1
          -1 -1 -1 -1 -1 -1
          -1 -1 -1 -1 -1 -1
          -1 -1 -1 -1 -1 -1
          -1 -1 -1 -1 -1 -1
          -1 -1 -1 -1 -1 -1
          -1 -1 -1 -1 -1 -1
          -1 -1 -1 -1 -1 -1
          -1 -1 -1 -1 -1 -1
          -1 -1 -1 -1 -1 -1
          -1 -1 -1 -1 -1 -1
          -1 -1 -1 -1 -1 -1
          -1 -1 -1 -1 -1 -1
          -1 -1 -1 -1 -1 -1
          -1 -1 -1 -1 -1 -1
          -1 -1 -1 -1 -1 -1
          -1 -1 -1 -1 -1 -1
          -1 -1 -1 -1 -1 -1
          -1 -1 -1 -1 -1 -1
          -1 -1 -1 -1 -1 -1
          -1 -1 -1 -1 -1 -1
          -1 -1 -1 -1 -1 -1
          -1 -1 -1 -1 -1 -1
          -1 -1 -1 -1 -1 -1
          -1 -1 -1 -1 -1 -1
          -1 -1 -1 -1 -1 -1
          -1 -1 -1 -1 -1 -1
          -1 -1 -1 -1 -1 -1
          -1 -1 -1 -1 -1 -1
          -1 -1 -1 -1 -1 -1
          -1 -1 -1 -1 -1 -1
          -1 -1 -1 -1 -1 -1
          -1 -1 -1 -1 -1 -1
          -1 -1 -1 -1 -1 -1
          -1 -1 -1 -1 -1 -1
          -1 -1 -1 -1 -1 -1
          -1 -1 -1 -1 -1 -1
          -1 -1 -1 -1 -1 -1
          -1 -1 -1 -1 -1 -1
          -1 -1 -1 -1 -1 -1
          -1 -1 -1 -1 -1 -1
          -1 -1 -1 -1 -1 -1
          -1 -1 -1 -1 -1 -1
          -1 -1 -1 -1 -1 -1
          -1 -1 -1 -1 -1 -1
          -1 -1 -1 -1 -1 -1
          -1 -1 -1 -1 -1 -1
          -1 -1 -1 -1 -1 -1
          -1 -1 -1 -1 -1 -1
          -1 -1 -1 -1 -1 -1
          -1 -1 -1 -1 -1 -1
          -1 -1 -1 -1 -1 -1
          -1 -1 -1 -1 -1 -1
          -1 -1 -1 -1 -1 -1
          -1 -1 -1 -1 -1 -1
          -1 -1 -1 -1 -1 -1
          -1 -1 -1 -1 -1 -1
          -1 -1 -1 -1 -1 -1
          -1 -1 -1 -1 -1 -1
          -1 -1 -1 -1 -1 -1
          -1 -1 -1 -1 -1 -1
          -1 -1 -1 -1 -1 -1
          -1 -1 -1 -1 -1 -1
          -1 -1 -1 -1 -1 -1
          -1 -1 -1 -1 -1 -1
          -1 -1 -1 -1 -1 -1
          -1 -1 -1 -1 -1 -1
          -1 -1 -1 -1 -1 -1
          -1 -1 -1 -1 -1 -1
          -1 -1 -1 -1 -1 -1
          -1 -1 -1 -1 -1 -1
          -1 -1 -1 -1 -1 -1
          -1 -1 -1 -1 -1 -1
          -1 -1 -1 -1 -1 -1
          -1 -1 -1 -1 -1 -1
          -1 -1 -1 -1 -1 -1
          -1 -1 -1 -1 -1 -1
          -1 -1 -1 -1 -1 -1
          -1 -1 -1 -1 -1 -1
          -1 -1 -1 -1 -1 -1
          -1 -1 -1 -1 -1 -1
          -1 -1 -1 -1 -1 -1
          -1 -1 -1 -1 -1 -1
          -1 -1 -1 -1 -1 -1
          -1 -1 -1 -1 -1 -1
          -1 -1 -1 -1 -1 -1
          -1 -1 -1 -1 -1 -1
          -1 -1 -1 -1 -1 -1
          -1 -1 -1
          <InformationKey name="L2_NORM_RANGE" location="vtkDataArray" length="2">
            <Value index="0">
              1.7320508076
            </Value>
            <Value index="1">
              1.7320508076
            </Value>
          </InformationKey>
        </DataArray>
      </PointData>
      <CellData>
        <DataArray type="UInt8" Name="vtkGhostType" format="ascii" RangeMin="0" RangeMax="1">
          1 1 1 1 1 1
          1 1 1 1 1 1
          1 1 1 1 1 1
          1 1 1 1 1 1
          1 1 1 1 1 1
          1 1 1 1 1 1
          1 1 1 1 1 1
          1 1 1 1 1 1
          1 1 1 1 1 1
          1 1 1 1 1 1
          1 1 1 1 1 1
          1 1 1 1 1 1
          1 1 1 1 1 1
          1 0 0 0 0 0
          0 1 1 1 1 1
          1 0 0 0 0 0
          0 0 0 0 0 0
          1 1 0 0 0 0
          0 1 1 1 1 1
          1 1 1 1 0 0
          0 0 0 0 0 0
          0 0 0 0 0 1
          0 0 0 0 0 0
          1 1 1 1 1 0
          0 0 0 0 0 0
          0 0 0 0 1 1
          1 1 1 1 1 1
          1 1 1 1 1 1
          1 0 1 1 1 1
          0 0 0 0 0 0
          0 0 0 0 0 0
          0 0 1 1 1 0
          1 1 1 1 1 1
          1 1 1 1 1 0
          0 0 0 0 0 0
          0 0 0 0 0 1
          1 1 1 1 1 1
          1 1 1 1 1 1
          1 1 1 1 1 1
          1 1 1 0 0 0
          0 0 0 0 0 0
          0 0 0 0 0 0
          0 0 0 1 1 1
          1 1 1 1 1 1
          1 0 0 0 0 0
          0 0 0 0 0 0
          0 0 0 0 0 0
          0 0 0 0 0 0
          0 0 0 0 0 0
          0 0 0 0 0 0
          0 0 0 0 0 0
          0 0 0 0 0 0
          0 0 0 0 0 1
          1 1 1 1 1 1
          1 1 1 1 1 1
          1 1 1 1 1 1
          1 1 1 1 1 1
          1 1 1 1 1 1
          1 1 1 1 1 1
          1 1 1 1 1 1
          1 1 1 1 1 1
          1 1 1 1 1 1
          1 1 1 1 1 1
          1 1 1 1 1 1
          1 1 1 1 1 1
          1 1 1 1 1 1
          1 1 1 1 1 1
          1 1 1 1 1 1
          1 1 1 1 1 1
          1 1 1 1 1 1
          1 1 1 1 1 1
          1 1 1 1 1 1
          1 1 1 1 1 1
          1 1 1 1 1 1
          1 1 1 1 1 1
          1 1 1 1 1 1
          1 1 1 1 1 1
          1 1 1 1 1 1
          1 1 1 1 1 1
          1 1 1 1 1 1
          1 1 1 1 1 1
          1 1 1 1 1 1
          1 1 1 1 1 1
          1 1 1 1 1 1
          1 1 1 1 1 1
          1
        </DataArray>
      </CellData>
      <Points>
        <DataArray type="Float32" Name="Points" NumberOfComponents="3" format="ascii" RangeMin="0" RangeMax="1.7320508075688772">
          0.5 0.5 0.5 0.3333333134651184 0.3333333134651184 1
          0.3333333134651184 1 0.3333333134651184 0.3333333134651184 0.5 0.5
          0.5 0.16666670143604279 1 0.5 0.3333333134651184 0.5
          0.5 0.16666670143604279 0.8333333134651184 0.3333333134651184 0.3333333134651184 0.6666666865348816
          0.3333333134651184 0.6666666865348816 0.3333333134651184 0.16666670143604279 0.6666666865348816 0.5
          0.5 0.16666670143604279 0.6666666865348816 0.3333333134651184 0.16666670143604279 0.8333333134651184
          0.16666670143604279 0.3333333134651184 0.8333333134651184 0.3333333134651184 0.8333333134651184 0.16666670143604279
          0.16666670143604279 0.8333333134651184 0.3333333134651184 0.16666670143604279 0.5 0.5
          0.5 0.16666670143604279 0.5 0.5 0 0.8333333134651184
          0.3333333134651184 0.3333333134651184 0.3333333134651184 0.16666670143604279 0.16666670143604279 1
          0.16666670143604279 1 0.16666670143604279 0.3333333134651184 0.16666670143604279 0.5
          0.16666670143604279 0.3333333134651184 0.5 0.3333333134651184 0.5 0.16666670143604279
          0.16666670143604279 0.5 0.3333333134651184 0.16666670143604279 0.16666670143604279 0.8333333134651184
          0.16666670143604279 0.8333333134651184 0.16666670143604279 0.3333333134651184 1 0
          0 0.3333333134651184 1 0.3333333134651184 0 1
          0 1 0.3333333134651184 0.16666670143604279 0.16666670143604279 0.6666666865348816
          0.5 0 0.5 0 0.5 0.5
          0.16666670143604279 0.6666666865348816 0.16666670143604279 0.3333333134651184 0.6666666865348816 0
          0 0.3333333134651184 0.6666666865348816 0.3333333134651184 0 0.6666666865348816
          0 0.6666666865348816 0.3333333134651184 0.16666670143604279 0.16666670143604279 0.5
          0.16666670143604279 0.5 0.16666670143604279 0 0.16666670143604279 0.8333333134651184
          0.16666670143604279 0.8333333134651184 0 0 0.8333333134651184 0.16666670143604279
          0.16666670143604279 0 0.8333333134651184 0.16666670143604279 0.16666670143604279 0.3333333134651184
          0.16666670143604279 0.3333333134651184 0.16666670143604279 0.3333333134651184 0.16666670143604279 0.16666670143604279
          0.3333333134651184 0.3333333134651184 0 0 0.3333333134651184 0.3333333134651184
          0.3333333134651184 0 0.3333333134651184 0 0.16666670143604279 0.5
          0.16666670143604279 0.5 0 0.16666670143604279 0 0.5
          0 0.5 0.16666670143604279 0 1 0
          0 0 1 0.16666670143604279 0.16666670143604279 0.16666670143604279
          0 0.6666666865348816 0 0 0 0.6666666865348816
          0.16666670143604279 0.16666670143604279 0 0 0.16666670143604279 0.16666670143604279
          0.16666670143604279 0 0.16666670143604279 0.3333333134651184 0 0
          0 0.3333333134651184 0 0 0 0.3333333134651184
          0 0 0 0.6666666865348816 0.3333333134651184 0.6666666865348816
          0.6666666865348816 0.3333333134651184 0.3333333134651184 0.6666666865348816 0 0.6666666865348816
          0.6666666865348816 0.16666670143604279 0.5 0.6666666865348816 0.3333333134651184 1
          0.5 0.3333333134651184 0.8333333134651184 0.6666666865348816 0 1
          0.6666666865348816 0.16666670143604279 0.8333333134651184 0.6666666865348816 0.6666666865348816 0.3333333134651184
          0.5 0.6666666865348816 0.16666670143604279 0.5 0.5 0.16666670143604279
          0.5 0.5 0.3333333134651184 0.3333333134651184 0.6666666865348816 0.6666666865348816
          0 0.6666666865348816 0.6666666865348816 0.16666670143604279 0.5 0.6666666865348816
          0.6666666865348816 0.6666666865348816 0.6666666865348816 0.5 0.6666666865348816 0.5
          0.5 0.5 0.6666666865348816 0.6666666865348816 0.5 0.5
          0.3333333134651184 0.6666666865348816 1 0.16666670143604279 0.5 1
          0.16666670143604279 0.5 0.8333333134651184 0.3333333134651184 0.5 0.8333333134651184
          0.5 0.5 1 0.5 0.5 0.8333333134651184
          0.6666666865348816 1 0.3333333134651184 0.5 1 0.16666670143604279
          0.5 0.8333333134651184 0.16666670143604279 0.5 0.8333333134651184 0.3333333134651184
          0.3333333134651184 1 0.6666666865348816 0.16666670143604279 1 0.5
          0.16666670143604279 0.8333333134651184 0.5 0.3333333134651184 0.8333333134651184 0.5
          0.5 1 0.5 0.5 0.8333333134651184 0.5
          0.5 0.3333333134651184 0.16666670143604279 0.5 0.16666670143604279 0.16666670143604279
          0.5 0.16666670143604279 0.3333333134651184 0.6666666865348816 0 0.3333333134651184
          0.6666666865348816 0.6666666865348816 0 0.5 0.5 0
          0.6666666865348816 0.3333333134651184 0 0 0.6666666865348816 1
          0 0.5 0.8333333134651184 0.6666666865348816 1 0
          0.5 0.8333333134651184 0 0 1 0.6666666865348816
          0 0.8333333134651184 0.5 0.5 0.16666670143604279 0
          0.6666666865348816 0 0 0.5 0 0.16666670143604279
          1 1 1 0.6666666865348816 1 1
          0.8333333134651184 1 0.8333333134651184 0.8333333134651184 0 0.8333333134651184
          0.8333333134651184 0.8333333134651184 0.8333333134651184 0.6666666865348816 1 0.6666666865348816
          1 1 0.6666666865348816 1 0.8333333134651184 0.8333333134651184
          0 0.8333333134651184 0.8333333134651184 1 0.6666666865348816 0.6666666865348816
          1 0.6666666865348816 1 1 0.6666666865348816 0.3333333134651184
          0.8333333134651184 0.6666666865348816 0.5 0.8333333134651184 0.5 0.5
          1 0.3333333134651184 0.6666666865348816 0.8333333134651184 0.5 0.6666666865348816
          1 0.5 0.5 0.8333333134651184 0.6666666865348816 0.8333333134651184
          0.8333333134651184 0.5 0.8333333134651184 1 0.5 0.8333333134651184
          0.8333333134651184 0.8333333134651184 0.6666666865348816 0.8333333134651184 0.8333333134651184 0.5
          1 0.8333333134651184 0.5 1 0.3333333134651184 1
          1 1 0.3333333134651184 0.8333333134651184 0.8333333134651184 1
          0.8333333134651184 0.8333333134651184 0 0.6666666865348816 0.6666666865348816 1
          0.3333333134651184 1 1 0.5 1 0.8333333134651184
          0.5 0.8333333134651184 0.8333333134651184 0.5 0.8333333134651184 1
          0.5 0.8333333134651184 0.6666666865348816 0.8333333134651184 1 0.5
          0.8333333134651184 0 0.5 0.5 0.6666666865348816 0.8333333134651184
          0.8333333134651184 0.5 1 0.8333333134651184 0.5 0
          0.8333333134651184 0.3333333134651184 0.8333333134651184 0.8333333134651184 0.16666670143604279 0.8333333134651184
          0.8333333134651184 0.16666670143604279 1 0.8333333134651184 0.16666670143604279 0
          1 0 1 0 1 1
          0.16666670143604279 1 0.8333333134651184 0.16666670143604279 0.8333333134651184 0.8333333134651184
          0.16666670143604279 0.8333333134651184 1 0.3333333134651184 0.8333333134651184 0.8333333134651184
          1 0.16666670143604279 0.8333333134651184 0.16666670143604279 0.6666666865348816 0.8333333134651184
          0.8333333134651184 0.3333333134651184 0.5 0.8333333134651184 0.16666670143604279 0.5
          1 0.3333333134651184 0.3333333134651184 0.8333333134651184 0.16666670143604279 0.6666666865348816
          1 0 0.6666666865348816 1 0.16666670143604279 0.5
          0.16666670143604279 0.8333333134651184 0.6666666865348816 0.8333333134651184 1 0.16666670143604279
          0.8333333134651184 0 0.16666670143604279 0.8333333134651184 0.8333333134651184 0.16666670143604279
          0.8333333134651184 0.8333333134651184 0.3333333134651184 1 1 0
          1 0.8333333134651184 0.16666670143604279 0.8333333134651184 0.6666666865348816 0.16666670143604279
          0.8333333134651184 0.5 0.16666670143604279 1 0.6666666865348816 0
          0.8333333134651184 0.5 0.3333333134651184 1 0.5 0.16666670143604279
          0.8333333134651184 0.3333333134651184 0.16666670143604279 0.8333333134651184 0.16666670143604279 0.16666670143604279
          1 0.3333333134651184 0 0.8333333134651184 0.16666670143604279 0.3333333134651184
          1 0 0.3333333134651184 1 0.16666670143604279 0.16666670143604279
          1 0 0
          <InformationKey name="L2_NORM_RANGE" location="vtkDataArray" length="2">
            <Value index="0">
              0
            </Value>
            <Value index="1">
              1.7320508076
            </Value>
          </InformationKey>
        </DataArray>
      </Points>
      <Cells>
        <DataArray type="Int64" Name="connectivity" format="ascii" RangeMin="0" RangeMax="192">
          67 7 5 16 68 67
          5 16 7 67 10 16
          67 69 10 16 67 68
          70 16 69 67 70 16
          71 1 72 6 1 7
          72 6 7 67 72 6
          67 71 72 6 1 71
          4 6 71 73 4 6
          69 67 10 6 67 7
          10 6 71 67 74 6
          67 69 74 6 73 71
          74 6 75 8 76 77
          8 75 78 77 79 80
          9 15 8 79 9 15
          80 79 81 15 79 7
          81 15 79 8 3 15
          7 79 3 15 82 79
          83 0 79 8 83 0
          8 75 83 0 75 82
          83 0 79 82 84 0
          82 67 84 0 67 7
          84 0 7 79 84 0
          8 79 3 0 79 7
          3 0 68 75 78 0
          75 8 78 0 82 75
          85 0 75 68 85 0
          68 67 85 0 67 82
          85 0 7 67 5 0
          67 68 5 0 86 1
          87 88 7 79 81 88
          79 7 89 88 7 1
          89 88 1 86 89 88
          71 1 90 91 1 86
          90 91 86 1 89 91
          1 7 89 91 7 79
          89 91 79 7 84 91
          7 67 84 91 1 71
          72 91 67 7 72 91
          7 1 72 91 92 2
          93 94 2 92 95 94
          75 8 95 94 8 2
          95 94 8 75 76 94
          2 96 97 98 96 2
          99 98 2 8 99 98
          8 79 99 98 80 79
          9 98 79 8 9 98
          96 2 100 101 2 92
          100 101 2 96 99 101
          79 8 99 101 8 2
          99 101 2 8 95 101
          8 75 95 101 92 2
          95 101 75 8 83 101
          8 79 83 101 18 49
          46 57 48 18 46 57
          49 18 45 57 18 50
          45 57 18 48 47 57
          50 18 47 57 68 18
          102 103 18 48 102 103
          18 68 104 103 50 18
          104 103 48 18 47 103
          18 50 47 103 7 36
          22 39 49 18 22 39
          18 7 22 39 36 7
          31 39 7 37 31 39
          50 18 45 39 18 49
          45 39 7 18 21 39
          18 50 21 39 37 7
          21 39 7 18 5 16
          18 68 5 16 69 37
          10 16 37 7 10 16
          18 7 21 16 7 37
          21 16 37 50 21 16
          50 18 21 16 18 50
          104 16 50 105 104 16
          105 68 104 16 68 18
          104 16 68 105 70 16
          105 69 70 16 37 69
          32 16 69 105 32 16
          105 50 32 16 50 37
          32 16 1 28 12 25
          28 36 12 25 36 7
          12 25 7 1 12 25
          28 1 19 25 1 29
          19 25 37 7 31 25
          7 36 31 25 1 7
          11 25 7 37 11 25
          37 29 11 25 29 1
          11 25 73 29 4 6
          29 1 4 6 7 1
          11 6 1 29 11 6
          29 37 11 6 37 7
          11 6 7 37 10 6
          37 69 10 6 69 73
          74 6 29 73 17 6
          73 69 17 6 69 37
          17 6 37 29 17 6
          8 38 34 40 35 8
          34 40 38 8 24 40
          8 18 24 40 18 49
          24 40 8 35 23 40
          48 18 23 40 18 8
          23 40 49 18 46 40
          18 48 46 40 8 35
          76 77 35 106 76 77
          68 18 78 77 18 8
          78 77 35 8 23 77
          8 18 23 77 18 48
          23 77 48 35 23 77
          35 48 107 77 48 108
          107 77 106 35 107 77
          18 68 102 77 108 48
          102 77 48 18 102 77
          80 38 9 15 38 8
          9 15 7 36 81 15
          36 80 81 15 38 80
          33 15 80 36 33 15
          36 49 33 15 49 38
          33 15 38 49 24 15
          49 18 24 15 18 8
          24 15 8 38 24 15
          8 18 3 15 18 7
          3 15 36 7 22 15
          7 18 22 15 18 49
          22 15 49 36 22 15
          7 18 3 0 18 8
          3 0 8 18 78 0
          18 68 78 0 68 18
          5 0 18 7 5 0
          1 28 87 88 28 109
          87 88 109 28 110 88
          28 36 110 88 36 80
          110 88 80 36 81 88
          36 7 81 88 28 1
          12 88 1 7 12 88
          7 36 12 88 36 28
          12 88 2 30 20 26
          27 2 20 26 30 2
          14 26 2 8 14 26
          8 38 14 26 38 30
          14 26 2 27 13 26
          27 35 13 26 35 8
          13 26 8 2 13 26
          38 8 34 26 8 35
          34 26 2 27 93 94
          27 111 93 94 27 2
          13 94 2 8 13 94
          8 35 13 94 35 27
          13 94 27 35 112 94
          35 106 112 94 111 27
          112 94 106 35 76 94
          35 8 76 94 113 30
          97 98 30 2 97 98
          30 113 114 98 80 38
          114 98 38 30 114 98
          30 38 14 98 38 8
          14 98 8 2 14 98
          2 30 14 98 8 38
          9 98 38 80 9 98
          49 64 46 57 64 48
          46 57 50 65 45 57
          65 49 45 57 64 49
          61 57 49 65 61 57
          65 66 61 57 66 64
          61 57 64 66 60 57
          66 63 60 57 63 48
          60 57 48 64 60 57
          48 63 47 57 63 50
          47 57 65 50 62 57
          50 63 62 57 63 66
          62 57 66 65 62 57
          48 108 102 103 105 50
          104 103 50 63 47 103
          63 48 47 103 48 63
          115 103 63 116 115 103
          108 48 115 103 50 105
          117 103 116 63 117 103
          63 50 117 103 36 49
          22 39 37 59 31 39
          59 36 31 39 49 36
          51 39 36 59 51 39
          59 65 51 39 65 49
          51 39 49 65 45 39
          65 50 45 39 50 37
          21 39 59 37 53 39
          37 50 53 39 50 65
          53 39 65 59 53 39
          29 56 19 25 56 28
          19 25 36 28 41 25
          28 56 41 25 56 59
          41 25 59 36 41 25
          36 59 31 25 59 37
          31 25 56 29 44 25
          29 37 44 25 37 59
          44 25 59 56 44 25
          38 58 34 40 58 35
          34 40 49 38 24 40
          58 38 54 40 38 49
          54 40 49 64 54 40
          64 58 54 40 58 64
          52 40 64 48 52 40
          48 35 52 40 35 58
          52 40 35 48 23 40
          48 64 46 40 64 49
          46 40 30 55 20 26
          55 27 20 26 55 30
          43 26 30 38 43 26
          38 58 43 26 58 55
          43 26 55 58 42 26
          58 35 42 26 35 27
          42 26 27 55 42 26
          35 58 34 26 58 38
          34 26 118 119 120 122
          123 124 120 122 124 118
          120 122 118 124 125 122
          124 127 125 122 127 128
          125 122 128 118 125 122
          129 127 130 131 127 132
          133 131 127 129 134 131
          132 127 134 131 127 128
          135 136 132 127 133 136
          128 127 137 136 127 132
          137 136 124 127 138 139
          129 127 140 139 127 124
          140 139 127 129 130 139
          127 124 138 122 128 127
          135 122 132 141 137 136
          141 128 137 136 124 142
          140 139 119 118 143 122
          118 128 143 122 128 145
          143 122 119 146 147 148
          123 119 147 148 146 119
          149 148 123 96 100 101
          92 123 100 101 96 123
          150 101 124 123 151 139
          123 124 138 139 96 123
          147 148 123 96 150 148
          124 123 138 122 145 86
          153 91 86 145 90 91
          128 145 135 136 145 128
          154 136 145 86 149 148
          86 145 153 148 145 128
          135 122 128 141 154 136
          141 71 154 136 86 146
          149 148 141 71 156 157
          71 141 158 157 71 141
          156 136 141 160 158 157
          160 73 158 157 73 160
          121 157 142 124 151 139
          146 96 147 148 146 161
          162 163 96 146 162 163
          161 146 164 163 146 86
          164 163 146 96 165 163
          86 146 165 163 96 146
          165 148 146 86 165 148
          132 141 156 157 141 132
          166 157 160 141 166 157
          141 132 156 136 86 109
          167 88 79 86 167 88
          109 86 87 88 86 79
          89 88 86 79 153 91
          79 86 89 91 86 109
          164 163 79 86 165 163
          109 86 167 163 86 79
          167 163 86 79 165 148
          79 86 153 148 132 67
          168 169 170 132 168 169
          67 132 171 169 132 172
          171 169 132 170 173 169
          172 132 173 169 67 132
          156 157 172 132 171 157
          132 67 171 157 132 172
          166 157 132 67 133 131
          170 132 134 131 67 132
          168 131 132 170 168 131
          67 132 133 136 132 67
          156 136 96 113 97 98
          113 96 174 98 96 79
          174 98 79 96 99 98
          79 96 150 101 96 79
          99 101 113 96 162 163
          79 96 174 163 96 113
          174 163 96 79 165 163
          79 96 165 148 96 79
          150 148 161 113 162 163
          109 161 164 163 172 160
          166 157 160 172 121 157
          113 161 126 163 161 109
          126 163 109 80 126 163
          80 109 167 163 109 80
          167 88 80 109 110 88
          80 113 126 163 113 80
          174 163 80 113 174 98
          113 80 114 98 142 129
          140 139 92 142 151 139
          142 92 175 177 92 142
          178 177 142 92 178 139
          111 179 175 177 179 142
          175 177 179 111 144 177
          142 129 178 177 142 179
          180 177 129 142 180 177
          129 142 178 139 129 170
          134 131 129 75 181 182
          183 129 181 182 75 129
          184 182 129 170 184 182
          129 183 185 182 170 129
          185 182 75 129 130 131
          170 129 184 131 129 75
          184 131 129 75 178 177
          183 129 180 177 75 129
          181 177 129 183 181 177
          75 129 178 139 129 75
          130 139 179 183 180 177
          68 170 168 169 170 68
          184 182 68 170 184 131
          170 68 168 131 170 68
          186 187 188 170 186 187
          68 170 189 187 170 190
          189 187 170 188 191 187
          190 170 191 187 190 170
          189 169 170 68 189 169
          170 190 173 169 188 170
          185 182 68 170 186 182
          170 188 186 182 183 188
          185 182 190 172 173 169
          183 179 144 177 106 183
          181 182 188 183 155 182
          183 106 155 182 106 183
          144 177 183 106 181 177
          172 69 171 169 69 172
          152 169 172 190 152 169
          69 172 171 157 172 69
          121 157 188 192 191 187
          192 190 191 187 108 188
          186 187 108 188 155 182
          188 108 186 182 192 188
          159 187 188 108 159 187
          190 105 189 187 105 190
          189 169 190 105 152 169
          105 190 176 187 190 192
          176 187 116 192 159 187
          192 116 176 187
        </DataArray>
        <DataArray type="Int64" Name="offsets" format="ascii" RangeMin="4" RangeMax="2044">
          4 8 12 16 20 24
          28 32 36 40 44 48
          52 56 60 64 68 72
          76 80 84 88 92 96
          100 104 108 112 116 120
          124 128 132 136 140 144
          148 152 156 160 164 168
          172 176 180 184 188 192
          196 200 204 208 212 216
          220 224 228 232 236 240
          244 248 252 256 260 264
          268 272 276 280 284 288
          292 296 300 304 308 312
          316 320 324 328 332 336
          340 344 348 352 356 360
          364 368 372 376 380 384
          388 392 396 400 404 408
          412 416 420 424 428 432
          436 440 444 448 452 456
          460 464 468 472 476 480
          484 488 492 496 500 504
          508 512 516 520 524 528
          532 536 540 544 548 552
          556 560 564 568 572 576
          580 584 588 592 596 600
          604 608 612 616 620 624
          628 632 636 640 644 648
          652 656 660 664 668 672
          676 680 684 688 692 696
          700 704 708 712 716 720
          724 728 732 736 740 744
          748 752 756 760 764 768
          772 776 780 784 788 792
          796 800 804 808 812 816
          820 824 828 832 836 840
          844 848 852 856 860 864
          868 872 876 880 884 888
          892 896 900 904 908 912
          916 920 924 928 932 936
          940 944 948 952 956 960
          964 968 972 976 980 984
          988 992 996 1000 1004 1008
          1012 1016 1020 1024 1028 1032
          1036 1040 1044 1048 1052 1056
          1060 1064 1068 1072 1076 1080
          1084 1088 1092 1096 1100 1104
          1108 1112 1116 1120 1124 1128
          1132 1136 1140 1144 1148 1152
          1156 1160 1164 1168 1172 1176
          1180 1184 1188 1192 1196 1200
          1204 1208 1212 1216 1220 1224
          1228 1232 1236 1240 1244 1248
          1252 1256 1260 1264 1268 1272
          1276 1280 1284 1288 1292 1296
          1300 1304 1308 1312 1316 1320
          1324 1328 1332 1336 1340 1344
          1348 1352 1356 1360 1364 1368
          1372 1376 1380 1384 1388 1392
          1396 1400 1404 1408 1412 1416
          1420 1424 1428 1432 1436 1440
          1444 1448 1452 1456 1460 1464
          1468 1472 1476 1480 1484 1488
          1492 1496 1500 1504 1508 1512
          1516 1520 1524 1528 1532 1536
          1540 1544 1548 1552 1556 1560
          1564 1568 1572 1576 1580 1584
          1588 1592 1596 1600 1604 1608
          1612 1616 1620 1624 1628 1632
          1636 1640 1644 1648 1652 1656
          1660 1664 1668 1672 1676 1680
          1684 1688 1692 1696 1700 1704
          1708 1712 1716 1720 1724 1728
          1732 1736 1740 1744 1748 1752
          1756 1760 1764 1768 1772 1776
          1780 1784 1788 1792 1796 1800
          1804 1808 1812 1816 1820 1824
          1828 1832 1836 1840 1844 1848
          1852 1856 1860 1864 1868 1872
          1876 1880 1884 1888 1892 1896
          1900 1904 1908 1912 1916 1920
          1924 1928 1932 1936 1940 1944
          1948 1952 1956 1960 1964 1968
          1972 1976 1980 1984 1988 1992
          1996 2000 2004 2008 2012 2016
          2020 2024 2028 2032 2036 2040
          2044
        </DataArray>
        <DataArray type="UInt8" Name="types" format="ascii" RangeMin="10" RangeMax="10">