<?xml version="1.0"?>
<VTKFile type="UnstructuredGrid" version="0.1" byte_order="LittleEndian" header_type="UInt32" compressor="vtkZLibDataCompressor">
  <UnstructuredGrid>
    <Piece NumberOfPoints="146" NumberOfCells="345">
      <PointData>
        <DataArray type="Float64" Name="nsi_BC" NumberOfComponents="3" format="ascii" RangeMin="0" RangeMax="0">
          0 0 0 0 0 0
          0 0 0 0 0 0
          0 0 0 0 0 0
          0 0 0 0 0 0
          0 0 0 0 0 0
          0 0 0 0 0 0
          0 0 0 0 0 0
          0 0 0 0 0 0
          0 0 0 0 0 0
          0 0 0 0 0 0
          0 0 0 0 0 0
          0 0 0 0 0 0
          0 0 0 0 0 0
          0 0 0 0 0 0
          0 0 0 0 0 0
          0 0 0 0 0 0
          0 0 0 0 0 0
          0 0 0 0 0 0
          0 0 0 0 0 0
          0 0 0 0 0 0
          0 0 0 0 0 0
          0 0 0 0 0 0
          0 0 0 0 0 0
          0 0 0 0 0 0
          0 0 0 0 0 0
          0 0 0 0 0 0
          0 0 0 0 0 0
          0 0 0 0 0 0
          0 0 0 0 0 0
          0 0 0 0 0 0
          0 0 0 0 0 0
          0 0 0 0 0 0
          0 0 0 0 0 0
          0 0 0 0 0 0
          0 0 0 0 0 0
          0 0 0 0 0 0
          0 0 0 0 0 0
          0 0 0 0 0 0
          0 0 0 0 0 0
          0 0 0 0 0 0
          0 0 0 0 0 0
          0 0 0 0 0 0
          0 0 0 0 0 0
          0 0 0 0 0 0
          0 0 0 0 0 0
          0 0 0 0 0 0
          0 0 0 0 0 0
          0 0 0 0 0 0
          0 0 0 0 0 0
          0 0 0 0 0 0
          0 0 0 0 0 0
          0 0 0 0 0 0
          0 0 0 0 0 0
          0 0 0 0 0 0
          0 0 0 0 0 0
          0 0 0 0 0 0
          0 0 0 0 0 0
          0 0 0 0 0 0
          0 0 0 0 0 0
          0 0 0 0 0 0
          0 0 0 0 0 0
          0 0 0 0 0 0
          0 0 0 0 0 0
          0 0 0 0 0 0
          0 0 0 0 0 0
          0 0 0 0 0 0
          0 0 0 0 0 0
          0 0 0 0 0 0
          0 0 0 0 0 0
          0 0 0 0 0 0
          0 0 0 0 0 0
          0 0 0 0 0 0
          0 0 0 0 0 0
          <InformationKey name="L2_NORM_RANGE" location="vtkDataArray" length="2">
            <Value index="0">
              0
            </Value>
            <Value index="1">
              0
            </Value>
          </InformationKey>
        </DataArray>
        <DataArray type="Float64" Name="nsi_FIXNO" NumberOfComponents="3" format="ascii" RangeMin="1.7320508075688772" RangeMax="1.7320508075688772">
          -1 -1 -1 -1 -1 -1
          -1 -1 -1 -1 -1 -1
          -1 -1 -1 -1 -1 -1
          -1 -1 -1 -1 -1 -1
          -1 -1 -1 -1 -1 -1
          -1 -1 -1 -1 -1 -1
          -1 -1 -1 -1 -1 -1
          -1 -1 -1 -1 -1 -1
          -1 -1 -1 -1 -1 -1
          -1 -1 -1 -1 -1 -1
          -1 -1 -1 -1 -1 -1
          -1 -1 -1 -1 -1 -1
          -1 -1 -1 -1 -1 -1
          -1 -1 -1 -1 -1 -1
          -1 -1 -1 -1 -1 -1
          -1 -1 -1 -1 -1 -1
          -1 -1 -1 -1 -1 -1
          -1 -1 -1 -1 -1 -1
          -1 -1 -1 -1 -1 -1
          -1 -1 -1 -1 -1 -1
          -1 -1 -1 -1 -1 -1
          -1 -1 -1 -1 -1 -1
          -1 -1 -1 -1 -1 -1
          -1 -1 -1 -1 -1 -1
          -1 -1 -1 -1 -1 -1
          -1 -1 -1 -1 -1 -1
          -1 -1 -1 -1 -1 -1
          -1 -1 -1 -1 -1 -1
          -1 -1 -1 -1 -1 -1
          -1 -1 -1 -1 -1 -1
          -1 -1 -1 -1 -1 -1
          -1 -1 -1 -1 -1 -1
          -1 -1 -1 -1 -1 -1
          -1 -1 -1 -1 -1 -1
          -1 -1 -1 -1 -1 -1
          -1 -1 -1 -1 -1 -1
          -1 -1 -1 -1 -1 -1
          -1 -1 -1 -1 -1 -1
          -1 -1 -1 -1 -1 -1
          -1 -1 -1 -1 -1 -1
          -1 -1 -1 -1 -1 -1
          -1 -1 -1 -1 -1 -1
          -1 -1 -1 -1 -1 -1
          -1 -1 -1 -1 -1 -1
          -1 -1 -1 -1 -1 -1
          -1 -1 -1 -1 -1 -1
          -1 -1 -1 -1 -1 -1
          -1 -1 -1 -1 -1 -1
          -1 -1 -1 -1 -1 -1
          -1 -1 -1 -1 -1 -1
          -1 -1 -1 -1 -1 -1
          -1 -1 -1 -1 -1 -1
          -1 -1 -1 -1 -1 -1
          -1 -1 -1 -1 -1 -1
          -1 -1 -1 -1 -1 -1
          -1 -1 -1 -1 -1 -1
          -1 -1 -1 -1 -1 -1
          -1 -1 -1 -1 -1 -1
          -1 -1 -1 -1 -1 -1
          -1 -1 -1 -1 -1 -1
          -1 -1 -1 -1 -1 -1
          -1 -1 -1 -1 -1 -1
          -1 -1 -1 -1 -1 -1
          -1 -1 -1 -1 -1 -1
          -1 -1 -1 -1 -1 -1
          -1 -1 -1 -1 -1 -1
          -1 -1 -1 -1 -1 -1
          -1 -1 -1 -1 -1 -1
          -1 -1 -1 -1 -1 -1
          -1 -1 -1 -1 -1 -1
          -1 -1 -1 -1 -1 -1
          -1 -1 -1 -1 -1 -1
          -1 -1 -1 -1 -1 -1
          <InformationKey name="L2_NORM_RANGE" location="vtkDataArray" length="2">
            <Value index="0">
              1.7320508076
            </Value>
            <Value index="1">
              1.7320508076
            </Value>
          </InformationKey>
        </DataArray>
        <DataArray type="Float64" Name="Velocity" NumberOfComponents="3" format="ascii" RangeMin="0.09776534029564816" RangeMax="0.1059224704943422">
          0.09814256294312501 -2.738094162126622e-10 2.2692647084847982e-10 0.10521850509221757 -2.813664751753606e-10 2.0882165363474552e-10
          0.09776534034919311 -3.9702626584244926e-10 2.406385043463151e-10 0.10000089383906184 -2.219443593449935e-10 2.41847112587109e-10
          0.09814256298929722 -7.663339659256145e-10 2.456424241921741e-10 0.10592246990447743 -2.3869421947980344e-10 1.7629626074883096e-10
          0.10521850415488426 -2.460181529655948e-10 2.103844369824306e-10 0.09814256310088308 -1.7582963966334667e-10 7.337195577783138e-10
          0.09776534033662175 -2.590375912997576e-10 2.3546852587748665e-10 0.0984076684526848 -2.691743647423214e-10 3.235689052086068e-10
          0.10592246931374623 -2.2610488544537149e-10 1.9618527404498815e-10 0.1000008943045394 -2.707823636556542e-10 2.4371546747139375e-10
          0.09840766879969214 -3.8088603609283006e-10 3.8212508792977703e-10 0.09814256307378072 -2.736214296136737e-10 1.3609861468043907e-10
          0.09814256297854225 2.4525203845989087e-10 2.2371916677289195e-10 0.10521850601389947 -2.4321101129186957e-10 1.8987157998573405e-10
          0.09814256299117836 -2.519412867075786e-10 7.43083785062991e-10 0.10025318799839608 -2.729833494514497e-10 2.2328390111860922e-10
          0.09776534029715776 -3.9651442992672544e-10 3.6678048864863437e-10 0.10000089341548836 -2.139560033692224e-10 1.7651294031776633e-10
          0.09814256309603941 -3.590868091420121e-10 -2.7940179813920085e-10 0.09814256311986626 -7.552934587574246e-10 1.4949605847108325e-10
          0.10592246930940413 -2.273448207685524e-10 2.0024938204096852e-10 0.10521850509024162 -2.538597318033072e-10 2.0496336644404286e-10
          0.10025318790723046 -2.499943801942823e-10 2.3723106638940375e-10 0.1002531882219533 -2.5236097704887834e-10 2.0477837173255998e-10
          0.10521850507858431 -2.628341280179885e-10 1.9466398586716057e-10 0.0977653403474724 -2.53965092614266e-10 3.7670840337985015e-10
          0.09776534032276234 -1.1222813316555531e-10 2.1829262344165587e-10 0.09982027620404622 -2.4962307194651525e-10 2.3072557255492478e-10
          0.1059224704943422 -2.33122779807178e-10 1.9007335253763133e-10 0.0984076687935236 -1.1860734618411034e-10 3.576767336261147e-10
          0.09814256305610047 -1.6222904680330797e-10 2.302453837602491e-10 0.10000089388140282 -2.842809840659291e-10 1.7541000219464305e-10
          0.10000089386581433 -3.1786745411014504e-10 2.099116168359763e-10 0.100253188051253 -2.759623836720516e-10 2.382905822644056e-10
          0.10592246990481889 -2.4177336699830823e-10 2.000783676871265e-10 0.09840766810602158 -2.4358888636214264e-10 2.1633147586206232e-10
          0.10592246991372094 -2.431044061412449e-10 1.9249575009787258e-10 0.09814256311180998 2.395095371181065e-10 1.2496714732825685e-10
          0.09814256310194437 -3.4782234606622195e-10 7.214144998950651e-10 0.099820276022833 -2.568676503188509e-10 2.3488023215362564e-10
          0.09840766844197323 -3.853878592677697e-10 2.50221768517792e-10 0.09840766847465876 -2.813535381435716e-10 4.9257805718581316e-11
          0.09814256295107855 -2.6257513737825885e-10 2.3911707629297697e-10 0.10025318824627279 -2.4257412110562173e-10 2.2189911789787372e-10
          0.09814256294312501 -2.738094162126622e-10 2.2692647084847982e-10 0.1002531880427943 -2.6674229045887484e-10 2.020161835801627e-10
          0.1002531880633174 -2.5068465244255536e-10 2.092183999418783e-10 0.10521850601109473 -2.5093262950210785e-10 1.9751087376532868e-10
          0.09776534030242691 -1.0654946523451797e-10 3.6052193447883883e-10 0.10592246990367887 -2.4964513310734603e-10 2.0241989467824645e-10
          0.10592246990447743 -2.3869421947980344e-10 1.7629626074883096e-10 0.10025318810039098 -2.584354375725912e-10 2.502057398361296e-10
          0.10000089341699965 -2.997668828417074e-10 1.6386555966011794e-10 0.09840766847035401 -1.0991444620328631e-10 2.140065737523825e-10
          0.0984076684526848 -2.691743647423214e-10 3.235689052086068e-10 0.09982027619363097 -2.386079454447969e-10 2.0909394427558634e-10
          0.09814256308783838 -3.304058586015536e-10 2.2881986322285745e-10 0.09814256307378072 -2.736214296136737e-10 1.3609861468043907e-10
          0.1002531882547133 -2.522971542438342e-10 1.9413050326233572e-10 0.1002531882219533 -2.5236097704887834e-10 2.0477837173255998e-10
          0.1059224704943422 -2.33122779807178e-10 1.9007335253763133e-10 0.09840766810602158 -2.4358888636214264e-10 2.1633147586206232e-10
          0.0984076688035818 -1.1517002076044027e-10 6.988325320504182e-11 0.10025318788984618 -2.7114338123342883e-10 2.0733755068618034e-10
          0.09982027599618248 -2.602301742035397e-10 1.9282813270182442e-10 0.10025318804521825 -2.5745786835978773e-10 2.0127585478749494e-10
          0.1059224693290786 -2.5655185441565004e-10 1.992332182630851e-10 0.09982027618324174 -2.633920124925182e-10 1.739890529651647e-10
          0.10000089341452262 -3.285764744464033e-10 2.479092268224621e-10 0.09776534029564816 -1.316836077308665e-10 7.199272204624706e-11
          0.10521850602283789 -2.6147385731987785e-10 2.0229369347892554e-10 0.1059224704943422 -2.33122779807178e-10 1.9007335253763133e-10
          0.09838213413649055 -8.599946147329927e-11 5.5613256013310475e-11 0.10025318787154668 -2.81106260270542e-10 2.47283086814598e-10
          0.09982027580020589 -2.586615356660223e-10 2.0039047975570201e-10 0.0984076688017123 -4.075663299661566e-10 8.444246888672391e-11
          0.10592246933879118 -2.52728870424309e-10 2.0998198601659123e-10 0.09814256298501986 -2.7461373244518597e-10 -2.509759361661103e-10
          0.09838213378149777 -2.2294374848111148e-10 5.006648250595007e-11 0.10025318807209471 -2.741815337540208e-10 2.057699893442454e-10
          0.0998202759910395 -2.778826025551647e-10 2.188122294773057e-10 0.09840766847465876 -2.813535381435716e-10 4.9257805718581316e-11
          0.10592246991372094 -2.431044061412449e-10 1.9249575009787258e-10 0.09814256310352308 -1.9897298603477161e-10 -2.5413711841638676e-10
          0.09838213412320869 -3.6070128426970735e-10 4.289857672106493e-11 0.09838213378721981 -3.943732790300406e-10 1.8749097948044575e-10
          0.09838213378149777 -2.2294374848111148e-10 5.006648250595007e-11 0.09997640909334836 -1.9475713287486345e-10 2.3482366087704093e-10
          0.09838213379040771 -2.3353260314974105e-10 3.2698703888175647e-10 0.10025318807209471 -2.741815337540208e-10 2.057699893442454e-10
          0.09840766810602158 -2.4358888636214264e-10 2.1633147586206232e-10 0.10025318823393642 -2.7578375339697405e-10 1.84484430015674e-10
          0.09814256306754594 -2.859667782636707e-10 2.66658971365577e-10 0.09838213379007602 -9.53988037730936e-11 2.07248358884428e-10
          0.09997640954987438 -2.491840899170449e-10 2.477245756059258e-10 0.09838213344302733 -2.483379388974498e-10 1.8706248309118688e-10
          0.09997640909317285 -2.991115937845228e-10 2.586186495158062e-10 0.09838213344302733 -2.483379388974498e-10 1.8706248309118688e-10
          0.10521850509221757 -2.813664751753606e-10 2.0882165363474552e-10 0.10592246933879118 -2.52728870424309e-10 2.0998198601659123e-10
          0.10592246990447743 -2.3869421947980344e-10 1.7629626074883096e-10 0.10521850415488426 -2.460181529655948e-10 2.103844369824306e-10
          0.10592246931374623 -2.2610488544537149e-10 1.9618527404498815e-10 0.10521850601389947 -2.4321101129186957e-10 1.8987157998573405e-10
          0.10592246930940413 -2.273448207685524e-10 2.0024938204096852e-10 0.10521850509024162 -2.538597318033072e-10 2.0496336644404286e-10
          0.10521850507858431 -2.628341280179885e-10 1.9466398586716057e-10 0.1059224704943422 -2.33122779807178e-10 1.9007335253763133e-10
          0.10592246990481889 -2.4177336699830823e-10 2.000783676871265e-10 0.10592246991372094 -2.431044061412449e-10 1.9249575009787258e-10
          0.10521850601109473 -2.5093262950210785e-10 1.9751087376532868e-10 0.10592246990367887 -2.4964513310734603e-10 2.0241989467824645e-10
          0.1059224693290786 -2.5655185441565004e-10 1.992332182630851e-10 0.10521850602283789 -2.6147385731987785e-10 2.0229369347892554e-10
          0.1059224704943422 -2.33122779807178e-10 1.9007335253763133e-10 0.09840766810602158 -2.4358888636214264e-10 2.1633147586206232e-10
          0.09814256306754594 -2.859667782636707e-10 2.66658971365577e-10 0.0977653403115395 -4.290852066856774e-10 9.617753116801267e-11
          0.09814256305610047 -1.6222904680330797e-10 2.302453837602491e-10 0.10592246990481889 -2.4177336699830823e-10 2.000783676871265e-10
          0.09840766844197323 -3.853878592677697e-10 2.50221768517792e-10 0.09838213344302733 -2.483379388974498e-10 1.8706248309118688e-10
          0.10025318823393642 -2.7578375339697405e-10 1.84484430015674e-10 0.09982027621416757 -2.824515822313554e-10 2.1557321426449505e-10
          0.10025318824627279 -2.4257412110562173e-10 2.2189911789787372e-10 0.100000893398347 -2.391052779163793e-10 2.678398487275966e-10
          0.09838213379040771 -2.3353260314974105e-10 3.2698703888175647e-10 0.10025318802943728 -2.8221982847292507e-10 2.262885786557848e-10
          0.09838213379007602 -9.53988037730936e-11 2.07248358884428e-10 0.10025318802715219 -2.9078940245473235e-10 2.3407521116053026e-10
          0.09982027599055938 -2.686861062448778e-10 2.2528126674481435e-10 0.10025318810039098 -2.584354375725912e-10 2.502057398361296e-10
          0.09840766847035401 -1.0991444620328631e-10 2.140065737523825e-10 0.10000089383527641 -2.7613913897807557e-10 2.840859902751809e-10
          0.0981425630933182 -7.840358124368232e-10 2.971397104123496e-10 0.09776534032753685 -2.743380098909984e-10 1.1508138656464988e-10
          0.09814256295107855 -2.6257513737825885e-10 2.3911707629297697e-10 0.10592246990367887 -2.4964513310734603e-10 2.0241989467824645e-10
          0.09838213378721981 -3.943732790300406e-10 1.8749097948044575e-10 0.10025318808184797 -2.7041982322654387e-10 2.214193398986266e-10
          0.1002531882547133 -2.522971542438342e-10 1.9413050326233572e-10 0.09814256313417309 2.0899471781294677e-10 2.4781666329563773e-10
          0.09814256308783838 -3.304058586015536e-10 2.2881986322285745e-10 0.09838213344302733 -2.483379388974498e-10 1.8706248309118688e-10
          <InformationKey name="L2_NORM_RANGE" location="vtkDataArray" length="2">
            <Value index="0">
              0.097765340296
            </Value>
            <Value index="1">
              0.10592247049
            </Value>
          </InformationKey>
        </DataArray>
        <DataArray type="Float64" Name="Pressure" format="ascii" RangeMin="-0.011229122127799133" RangeMax="0.009926123136936381">
          -0.009610799073305584 0.00021680519672383157 -0.011229121335769712 -0.008185906804845901 -0.009610799806202882 0.0002235454088109035
          0.00021680520127072218 -0.009610798635485767 -0.011229122127799133 -0.009239190809147807 0.0002235454243901002 -0.008185906843515623
          -0.009239190876012134 -0.009610797895580161 -0.009610799800344018 0.00021680521278867344 -0.009610799787690924 0.00035145852106056614
          -0.01122912050871755 -0.008185906733181017 -0.009610798662681757 -0.009610798630973635 0.00022354542759155165 0.0002168052235910571
          0.00035145852754522075 0.0003514585142853094 0.0002168052032330785 -0.011229121306739137 -0.01122912133468405 0.00035350653255894964
          0.0002235453982405602 -0.009239190877834067 -0.009610797912021197 -0.008185906783393817 -0.00818590680992489 0.00035145852189444267
          0.00022354541081501443 -0.00923919074520973 0.00022354538710377199 -0.009610798624616012 -0.00961079863763892 0.00035350653568152904
          -0.00923919081482582 -0.009239190846810661 -0.009610799054072323 0.0003514585070899849 -0.009610799073305584 0.00035145851046367407
          0.00035145851849114105 0.00021680521469980335 -0.011229120508723257 0.00022354542255820386 0.0002235454088109035 0.0003514585126140186
          -0.008185906738321858 -0.009239190808880091 -0.009239190809147807 0.0003535065219642158 -0.009610797902272691 -0.009610797895580161
          0.0003514584986568758 0.0003514585142853094 0.0002235453982405602 -0.00923919074520973 -0.009239190910032358 0.0003514585088466305
          0.0003535065073188831 0.0003514584843268615 0.00022354541157455427 0.0003535064935500864 -0.008185906771224303 -0.011229120541003829
          0.00021680519610596267 0.0002235453982405602 0.009926123136936381 0.000351458515213834 0.00035350653263967327 -0.009239190914645
          0.0002235453986887411 -0.009610799817807858 0.009926123051520356 0.00035145849780133045 0.0003535065164953466 -0.009239190846810661
          0.00022354538710377199 -0.009610798671639763 0.009926123128294868 0.00992612304933321 0.009926123051520356 0.008863084223351097
          0.009926123030270385 0.00035145849780133045 -0.00923919074520973 0.0003514584849620019 -0.009610797931857595 0.009926123055483148
          0.008863084282692408 0.009926122974368979 0.008863084229522861 0.009926122974368979 0.00021680519672383157 0.0002235453986887411
          0.0002235454088109035 0.00021680520127072218 0.0002235454243901002 0.00021680521278867344 0.00022354542759155165 0.0002168052235910571
          0.0002168052032330785 0.0002235453982405602 0.00022354541081501443 0.00022354538710377199 0.00021680521469980335 0.00022354542255820386
          0.00022354541157455427 0.00021680519610596267 0.0002235453982405602 -0.00923919074520973 -0.009610797931857595 -0.011229120556251604
          -0.009610797912021197 0.00022354541081501443 -0.00923919081482582 0.009926122974368979 0.0003514584849620019 0.00035350649903685065
          0.0003514585070899849 -0.008185906775351706 0.009926123030270385 0.00035145848758003784 0.009926123055483148 0.0003514584969456401
          0.00035350651017788584 0.0003514585126140186 -0.009239190808880091 -0.008185906812414597 -0.009610798666342478 -0.011229121341964557
          -0.009610799054072323 0.00022354542255820386 0.00992612304933321 0.0003514584944170969 0.0003514584986568758 -0.009610798651490355
          -0.009610797902272691 0.009926122974368979
        </DataArray>
      </PointData>
      <CellData>
        <DataArray type="UInt8" Name="vtkGhostType" format="ascii" RangeMin="0" RangeMax="1">
          1 1 1 1 1 1
          0 1 1 1 1 1
          1 1 1 1 1 1
          1 1 1 1 1 0
          0 0 0 0 0 0
          0 0 0 0 0 0
          0 0 0 0 1 1
          0 0 1 0 1 1
          1 1 1 0 1 1
          1 1 1 1 1 1
          0 0 0 0 0 1
          0 1 1 1 1 0
          1 0 0 0 0 0
          0 0 0 0 0 0
          0 0 0 0 0 0
          0 0 0 0 0 0
          0 0 0 0 0 0
          1 1 1 1 1 1
          1 1 1 1 1 1
          1 1 0 1 1 1
          1 1 1 1 1 0
          0 0 0 0 1 0
          1 1 1 1 0 1
          0 0 0 0 0 0
          0 0 0 0 0 0
          0 0 0 0 0 0
          0 0 0 0 0 0
          0 0 0 0 0 0
          0 0 0 0 0 0
          0 0 0 0 0 0
          0 0 0 0 0 1
          1 0 1 1 1 1
          1 0 0 0 0 0
          0 0 0 0 0 0
          0 0 0 0 0 0
          0 0 0 0 0 0
          0 0 0 0 0 0
          0 0 0 0 0 0
          0 0 0 0 0 0
          0 0 0 0 0 0
          0 0 0 0 0 0
          0 0 0 0 0 0
          0 0 0 0 0 0
          0 0 0 0 0 0
          0 0 0 0 0 0
          0 0 1 1 1 1
          1 1 1 1 1 1
          1 1 1 1 1 1
          1 1 1 1 1 1
          1 1 1 1 1 1
          1 1 1 1 1 1
          1 1 1 1 1 1
          1 1 1 1 1 1
          1 1 1 1 1 1
          1 1 1 1 1 1
          1 1 1 1 1 1
          1 1 1 1 1 1
          1 1 1
        </DataArray>
      </CellData>
      <Points>
        <DataArray type="Float32" Name="Points" NumberOfComponents="3" format="ascii" RangeMin="0" RangeMax="1.7320508075688772">
          0.8333333134651184 1 0.5 1 0.8333333134651184 0.5
          0.8333333134651184 0.8333333134651184 0.5 0.6666666865348816 0.8333333134651184 0.5
          0.8333333134651184 0.6666666865348816 0.5 1 1 0.3333333134651184
          1 0.5 0.5 0.8333333134651184 0.8333333134651184 0.3333333134651184
          0.8333333134651184 0.5 0.5 0.6666666865348816 1 0.3333333134651184
          1 0.6666666865348816 0.3333333134651184 0.6666666865348816 0.5 0.5
          0.6666666865348816 0.6666666865348816 0.3333333134651184 0.8333333134651184 1 0.16666670143604279
          0.8333333134651184 0.3333333134651184 0.5 1 0.8333333134651184 0.16666670143604279
          0.8333333134651184 0.5 0.3333333134651184 0.5 0.8333333134651184 0.3333333134651184
          0.8333333134651184 0.8333333134651184 0.16666670143604279 0.6666666865348816 0.8333333134651184 0.16666670143604279
          0.8333333134651184 0.16666670143604279 0.6666666865348816 0.8333333134651184 0.6666666865348816 0.16666670143604279
          1 0.3333333134651184 0.3333333134651184 1 0.5 0.16666670143604279
          0.5 0.5 0.3333333134651184 0.5 1 0.16666670143604279
          1 0.16666670143604279 0.5 0.8333333134651184 0.5 0.16666670143604279
          0.8333333134651184 0.16666670143604279 0.5 0.5 0.8333333134651184 0.16666670143604279
          1 1 0 0.6666666865348816 0.3333333134651184 0.3333333134651184
          0.8333333134651184 0.8333333134651184 0 0.6666666865348816 0.5 0.16666670143604279
          0.6666666865348816 0.16666670143604279 0.5 0.5 0.6666666865348816 0.16666670143604279
          1 0.6666666865348816 0 0.6666666865348816 1 0
          1 0 0.6666666865348816 0.8333333134651184 0.3333333134651184 0.16666670143604279
          0.8333333134651184 0.16666670143604279 0.3333333134651184 0.5 0.5 0.16666670143604279
          0.6666666865348816 0.6666666865348816 0 0.6666666865348816 0 0.6666666865348816
          0.8333333134651184 0.5 0 0.5 0.8333333134651184 0
          0.8333333134651184 0 0.5 0.5 0.16666670143604279 0.3333333134651184
          0.5 0.3333333134651184 0.16666670143604279 1 0.16666670143604279 0.16666670143604279
          0.8333333134651184 0.16666670143604279 0.16666670143604279 1 0.3333333134651184 0
          1 0 0.3333333134651184 0.5 0.5 0
          0.6666666865348816 0.16666670143604279 0.16666670143604279 0.6666666865348816 0.3333333134651184 0
          0.6666666865348816 0 0.3333333134651184 0.5 0.16666670143604279 0.16666670143604279
          0.8333333134651184 0.16666670143604279 0 0.8333333134651184 0 0.16666670143604279
          0.5 0.16666670143604279 0 0.5 0 0.16666670143604279
          1 0 0 0.6666666865348816 0 0
          0.6666666865348816 0.3333333134651184 0.6666666865348816 0.5 0.3333333134651184 0.5
          0.5 0.16666670143604279 0.5 0.5 0.16666670143604279 0.6666666865348816
          1 0.3333333134651184 0.6666666865348816 0.5 0.16666670143604279 0.8333333134651184
          0.6666666865348816 0.16666670143604279 0.8333333134651184 0.8333333134651184 0.16666670143604279 0.8333333134651184
          1 0.16666670143604279 0.8333333134651184 1 0 1
          0.3333333134651184 0.6666666865348816 0.3333333134651184 0.5 0.6666666865348816 0.5
          0.5 0.5 0.5 0.6666666865348816 0.6666666865348816 0.6666666865348816
          1 0.6666666865348816 0.6666666865348816 0.8333333134651184 0.5 0.6666666865348816
          0.3333333134651184 1 0.3333333134651184 0.5 1 0.5
          0.5 0.8333333134651184 0.5 0.6666666865348816 1 0.6666666865348816
          1 1 0.6666666865348816 0.8333333134651184 0.8333333134651184 0.6666666865348816
          0.3333333134651184 0.3333333134651184 0.3333333134651184 0.3333333134651184 0.3333333134651184 0
          0.3333333134651184 0 0.3333333134651184 0.3333333134651184 0.16666670143604279 0.16666670143604279
          0.3333333134651184 0 0.6666666865348816 0.5 0 0.5
          0.6666666865348816 0 1 0.5 0 0.8333333134651184
          0.8333333134651184 0 0.8333333134651184 0.3333333134651184 0.6666666865348816 0
          0.3333333134651184 0.5 0.16666670143604279 0.3333333134651184 1 0
          0.3333333134651184 0.8333333134651184 0.16666670143604279 0.3333333134651184 0 0
          0 0.8333333134651184 0.5 0 0.6666666865348816 0.6666666865348816
          0 0 0.3333333134651184 0 0.5 0.5
          0 0.6666666865348816 0.3333333134651184 0 0.8333333134651184 0.16666670143604279
          0 0.3333333134651184 0.3333333134651184 0 0.5 0.16666670143604279
          0 0.16666670143604279 0.5 0 0 0
          0 0.6666666865348816 0 0 0 0.6666666865348816
          0 0.16666670143604279 0.16666670143604279 0 0.3333333134651184 0
          0 0.3333333134651184 0.6666666865348816 0 0.16666670143604279 0.8333333134651184
          1 1 1 0.6666666865348816 1 1
          0.8333333134651184 1 0.8333333134651184 0.8333333134651184 0.8333333134651184 0.8333333134651184
          0.8333333134651184 0.8333333134651184 1 1 0.6666666865348816 1
          0.6666666865348816 0.6666666865348816 1 0.3333333134651184 1 1
          0.5 1 0.8333333134651184 0.5 0.8333333134651184 0.8333333134651184
          0.5 0.8333333134651184 1 0.6666666865348816 0.8333333134651184 0.8333333134651184
          0.3333333134651184 1 0.6666666865348816 0.5 0.8333333134651184 0.6666666865348816
          0.3333333134651184 0.6666666865348816 1 0.5 0.6666666865348816 0.8333333134651184
          0.5 0.5 0.8333333134651184 0.5 0.5 1
          0.6666666865348816 0.3333333134651184 1 0.6666666865348816 0.5 0.8333333134651184
          0.8333333134651184 0.6666666865348816 0.8333333134651184 0.8333333134651184 0.5 0.8333333134651184
          0.8333333134651184 0.5 1 1 0.3333333134651184 1
          0.3333333134651184 0.3333333134651184 1 0.5 0.3333333134651184 0.8333333134651184
          0.5 0.16666670143604279 1 0.8333333134651184 0.3333333134651184 0.8333333134651184
          0.8333333134651184 0.16666670143604279 1 0.3333333134651184 0 1
          <InformationKey name="L2_NORM_RANGE" location="vtkDataArray" length="2">
            <Value index="0">
              0
            </Value>
            <Value index="1">
              1.7320508076
            </Value>
          </InformationKey>
        </DataArray>
      </Points>
      <Cells>
        <DataArray type="Int64" Name="connectivity" format="ascii" RangeMin="0" RangeMax="145">
          31 64 65 66 64 43
          67 66 64 31 34 66
          43 64 34 66 68 64
          14 28 64 31 14 28
          31 22 14 28 22 68
          14 28 64 68 20 28
          68 38 20 28 43 64
          20 28 31 64 34 28
          64 43 34 28 68 22
          26 28 38 68 26 28
          43 64 67 69 64 43
          70 69 43 64 70 71
          64 43 20 71 38 68
          20 71 68 64 20 71
          68 38 72 71 38 73
          72 71 12 74 35 41
          42 12 35 41 74 12
          24 41 12 31 24 41
          12 42 33 41 31 12
          33 41 10 12 21 27
          12 42 21 27 36 10
          21 27 12 10 16 27
          10 22 16 27 22 31
          16 27 31 12 16 27
          42 12 33 27 12 31
          33 27 10 36 23 27
          22 10 23 27 74 12
          75 76 12 77 75 76
          31 12 24 76 12 74
          24 76 77 12 11 76
          12 31 11 76 31 64
          11 76 64 77 11 76
          64 31 65 76 78 77
          4 8 77 12 4 8
          12 10 4 8 10 78
          4 8 77 78 79 8
          78 68 79 8 68 64
          79 8 64 77 79 8
          12 77 11 8 77 64
          11 8 64 31 11 8
          31 12 11 8 12 31
          16 8 31 22 16 8
          22 10 16 8 10 12
          16 8 78 10 6 8
          10 22 6 8 22 68
          6 8 68 78 6 8
          64 68 14 8 68 22
          14 8 22 31 14 8
          31 64 14 8 9 80
          25 29 37 9 25 29
          80 9 17 29 9 12
          17 29 12 74 17 29
          74 80 17 29 9 37
          19 29 42 12 19 29
          12 9 19 29 74 12
          35 29 12 42 35 29
          5 9 13 18 9 37
          13 18 37 30 13 18
          30 5 13 18 9 5
          7 18 5 10 7 18
          10 12 7 18 12 9
          7 18 37 9 19 18
          9 12 19 18 12 42
          19 18 5 30 15 18
          30 36 15 18 36 10
          15 18 10 5 15 18
          12 10 21 18 10 36
          21 18 42 12 21 18
          80 9 81 82 9 83
          81 82 80 74 17 82
          74 12 17 82 12 9
          17 82 9 80 17 82
          83 9 3 82 9 12
          3 82 12 77 3 82
          77 83 3 82 77 12
          75 82 12 74 75 82
          84 83 0 2 83 9
          0 2 9 5 0 2
          5 84 0 2 83 84
          85 2 84 78 85 2
          78 77 85 2 77 83
          85 2 9 83 3 2
          83 77 3 2 77 12
          3 2 12 9 3 2
          9 12 7 2 12 10
          7 2 10 5 7 2
          5 9 7 2 84 5
          1 2 5 10 1 2
          10 78 1 2 78 84
          1 2 77 78 4 2
          78 10 4 2 10 12
          4 2 12 77 4 2
          31 86 48 57 86 87
          48 57 55 31 48 57
          86 31 47 57 31 56
          47 57 88 86 47 57
          87 86 89 57 86 88
          89 57 31 55 54 57
          56 31 54 57 22 31
          39 50 31 55 39 50
          55 51 39 50 51 22
          39 50 31 22 40 50
          22 52 40 50 52 56
          40 50 56 31 40 50
          55 31 54 50 31 56
          54 50 22 51 49 50
          52 22 49 50 86 31
          65 66 43 90 67 66
          86 88 47 66 88 56