<?xml version="1.0"?>
<VTKFile type="UnstructuredGrid" version="0.1" byte_order="LittleEndian" header_type="UInt32" compressor="vtkZLibDataCompressor">
  <UnstructuredGrid>
    <Piece NumberOfPoints="22" NumberOfCells="5">
      <PointData>
        <DataArray type="Float64" Name="Temperature" format="ascii" RangeMin="0" RangeMax="0.49999997211806">
          0.49999997138930063 0.3749999758830571 0 0.49999997211806 0.4999999689566784 0
          0.3749999737421646 0 0.3749999740334601 0.49999996905253 0.4999999696070166 0
          0 0.3749999748453556 0.49999996909910394 0.37499997450724953 0.3749999751905943 0
          0.3749999751205819 0 0.3749999744703894 0
        </DataArray>
      </PointData>
      <CellData>
        <DataArray type="UInt8" Name="vtkGhostType" format="ascii" RangeMin="1" RangeMax="1">
          1 1 1 1 1
        </DataArray>
      </CellData>
      <Points>
        <DataArray type="Float32" Name="Points" NumberOfComponents="3" format="ascii" RangeMin="0.5" RangeMax="1.7320508075688772">
          0.5 1 1 0.5 0.5 1
          1 0 0.5 1 1 1
          0 1 1 0 0 0.5
          0 0.5 1 0 0 1
          1 0.5 0 1 1 0.5
          0.5 1 0.5 0.5 0 0.5
          1 0 1 1 0.5 0.5
          0 1 0.5 0.5 0.5 0.5
          0.5 0.5 0 1 0 0
          1 0.5 1 0.5 0 0
          0 0.5 0.5 0.5 0 1
          <InformationKey name="L2_NORM_RANGE" location="vtkDataArray" length="2">
            <Value index="0">
              0.5
            </Value>
            <Value index="1">
              1.7320508076
            </Value>
          </InformationKey>
        </DataArray>
      </Points>
      <Cells>
        <DataArray type="Int64" Name="connectivity" format="ascii" RangeMin="0" RangeMax="21">
          3 0 10 9 18 1
          15 13 18 1 15 13
          12 21 11 2 13 15
          16 8 2 11 19 17
          0 4 14 10 1 6
          20 15 1 6 20 15
          21 7 5 11
        </DataArray>
        <DataArray type="Int64" Name="offsets" format="ascii" RangeMin="8" RangeMax="40">
          8 16 24 32 40
        </DataArray>
        <DataArray type="UInt8" Name="types" format="ascii" RangeMin="12" RangeMax="12">
          12 12 12 12 12
        </DataArray>
      </Cells>
    </Piece>
  </UnstructuredGrid>
</VTKFile>
