<?xml version="1.0"?>
<VTKFile type="UnstructuredGrid" version="0.1" byte_order="LittleEndian" header_type="UInt32" compressor="vtkZLibDataCompressor">
  <UnstructuredGrid>
    <Piece NumberOfPoints="24" NumberOfCells="6">
      <PointData>
        <DataArray type="Float64" Name="Temperature" format="ascii" RangeMin="0" RangeMax="0.4999999687516817">
          0 0.3749999739589302 0.37499997395868667 0.37499997395916584 0.49999996875091923 0
          0.3749999739579836 0 0.49999996875007996 0 0.374999973959055 0
          0.3749999739594698 0 0.3749999739589154 0 0 0.4999999687516817
          0.4999999687500288 0.4999999687504958 0.4999999687507994 0.37499997395871376 0.4999999687507635 0.49999996875087616
        </DataArray>
      </PointData>
      <CellData>
        <DataArray type="UInt8" Name="vtkGhostType" format="ascii" RangeMin="1" RangeMax="1">
          1 1 1 1 1 1
        </DataArray>
      </CellData>
      <Points>
        <DataArray type="Float32" Name="Points" NumberOfComponents="3" format="ascii" RangeMin="0" RangeMax="1.5">
          0 0 1 0 0.5 0.5
          0.5 0.5 0 1 0.5 0
          0 1 0 0.5 0 1
          0.5 0.5 1 0.5 0 0
          0 1 0.5 1 0 0.5
          0 0.5 1 0 0 0.5
          0 0.5 0 1 0 0
          0.5 0.5 0.5 0.5 0 0.5
          0 0 0 0.5 1 0
          1 1 0 1 1 0.5
          0.5 1 1 1 0.5 0.5
          0.5 1 0.5 0 1 1
          <InformationKey name="L2_NORM_RANGE" location="vtkDataArray" length="2">
            <Value index="0">
              0
            </Value>
            <Value index="1">
              1.5
            </Value>
          </InformationKey>
        </DataArray>
      </Points>
      <Cells>
        <DataArray type="Int64" Name="connectivity" format="ascii" RangeMin="0" RangeMax="23">
          19 22 17 18 21 14
          2 3 21 14 2 3
          9 15 7 13 20 23
          8 22 6 10 1 14
          6 10 1 14 5 0
          11 15 22 8 4 17
          14 1 12 2 14 1
          12 2 15 11 16 7
        </DataArray>
        <DataArray type="Int64" Name="offsets" format="ascii" RangeMin="8" RangeMax="48">
          8 16 24 32 40 48
        </DataArray>
        <DataArray type="UInt8" Name="types" format="ascii" RangeMin="12" RangeMax="12">
          12 12 12 12 12 12
        </DataArray>
      </Cells>
    </Piece>
  </UnstructuredGrid>
</VTKFile>
