<?xml version="1.0"?>
<VTKFile type="UnstructuredGrid" version="0.1" byte_order="LittleEndian" header_type="UInt32" compressor="vtkZLibDataCompressor">
  <UnstructuredGrid>
    <Piece NumberOfPoints="24" NumberOfCells="6">
      <PointData>
        <DataArray type="Float64" Name="Temperature" format="ascii" RangeMin="0" RangeMax="0.5068069627829984">
          0 0 0.37760358428964713 0 0 0
          0 0.37760358429249796 0.5033250592255105 0 0.36850671825675746 0.37694484554881996
          0.5068069626044179 0.3769448455064119 0.36850671805980323 0.5068069627829984 0.5068069626893097 0
          0.5033250590654174 0 0.3776035841439781 0.3769448455107539 0.36850671799017537 0.5033250590358352
        </DataArray>
      </PointData>
      <CellData>
        <DataArray type="UInt8" Name="vtkGhostType" format="ascii" RangeMin="0" RangeMax="1">
          1 0 1 1 0 0
        </DataArray>
      </CellData>
      <Points>
        <DataArray type="Float32" Name="Points" NumberOfComponents="3" format="ascii" RangeMin="0" RangeMax="1.5">
          0.5 0 0 0 0 0.5
          0 0.5 0 1 0 0
          0.5 0 0.5 0 0 0
          0 0 1 0 0.5 0.5
          0 1 0 1 0 1
          1 0.5 1 0.5 0.5 1
          0.5 1 0 0.5 0.5 0
          1 0.5 0 0.5 1 1
          0.5 1 0.5 0.5 0 1
          0 1 0.5 1 0 0.5
          0 0.5 1 0.5 0.5 0.5
          1 0.5 0.5 0 1 1
          <InformationKey name="L2_NORM_RANGE" location="vtkDataArray" length="2">
            <Value index="0">
              0
            </Value>
            <Value index="1">
              1.5
            </Value>
          </InformationKey>
        </DataArray>
      </Points>
      <Cells>
        <DataArray type="Int64" Name="connectivity" format="ascii" RangeMin="0" RangeMax="23">
          10 11 21 22 9 17
          4 19 22 21 13 14
          19 4 0 3 15 23
          18 16 11 20 7 21
          11 20 7 21 17 6
          1 4 16 18 8 12
          21 7 2 13 21 7
          2 13 4 1 5 0
        </DataArray>
        <DataArray type="Int64" Name="offsets" format="ascii" RangeMin="8" RangeMax="48">
          8 16 24 32 40 48
        </DataArray>
        <DataArray type="UInt8" Name="types" format="ascii" RangeMin="12" RangeMax="12">
          12 12 12 12 12 12
        </DataArray>
      </Cells>
    </Piece>
  </UnstructuredGrid>
</VTKFile>
