<?xml version="1.0"?>
<VTKFile type="UnstructuredGrid" version="0.1" byte_order="LittleEndian" header_type="UInt32" compressor="vtkZLibDataCompressor">
  <UnstructuredGrid>
    <Piece NumberOfPoints="27" NumberOfCells="8">
      <PointData>
        <DataArray type="Float64" Name="Temperature" format="ascii" RangeMin="0" RangeMax="0.4999999687516817">
          0.3749999739589154 0 0 0.4999999687516817 0.3749999739580924 0
          0.3749999739579836 0 0.49999996875007996 0 0.374999973959055 0
          0.3749999739594698 0 0.4999999687500288 0.4999999687504958 0.4999999687507994 0.4999999687498547
          0 0.3749999739589302 0.37499997395868667 0.37499997395916584 0.49999996875091923 0
          0.37499997395871376 0.4999999687507635 0.49999996875087616
        </DataArray>
      </PointData>
      <CellData>
        <DataArray type="UInt8" Name="vtkGhostType" format="ascii" RangeMin="0" RangeMax="1">
          1 1 0 1 1 1
          1 1
        </DataArray>
      </CellData>
      <Points>
        <DataArray type="Float32" Name="Points" NumberOfComponents="3" format="ascii" RangeMin="0" RangeMax="1.7320508075688772">
          0.5 0.5 0.5 0.5 0 0.5
          0 0 0 0.5 1 0
          1 0.5 1 0.5 0 1
          0.5 0.5 1 0.5 0 0
          0 1 0.5 1 0 0.5
          0 0.5 1 0 0 0.5
          0 0.5 0 1 0 0
          1 1 0 1 1 0.5
          0.5 1 1 1 1 1
          0 0 1 0 0.5 0.5
          0.5 0.5 0 1 0.5 0
          0 1 0 1 0 1
          1 0.5 0.5 0.5 1 0.5
          0 1 1
          <InformationKey name="L2_NORM_RANGE" location="vtkDataArray" length="2">
            <Value index="0">
              0
            </Value>
            <Value index="1">
              1.7320508076
            </Value>
          </InformationKey>
        </DataArray>
      </Points>
      <Cells>
        <DataArray type="Int64" Name="connectivity" format="ascii" RangeMin="0" RangeMax="26">
          17 16 25 15 4 6
          0 24 4 6 0 24
          23 5 1 9 15 25
          3 14 24 0 20 21
          24 0 20 21 9 1
          7 13 16 26 8 25
          6 10 19 0 6 10
          19 0 5 18 11 1
          25 8 22 3 0 19
          12 20 0 19 12 20
          1 11 2 7
        </DataArray>
        <DataArray type="Int64" Name="offsets" format="ascii" RangeMin="8" RangeMax="64">
          8 16 24 32 40 48
          56 64
        </DataArray>
        <DataArray type="UInt8" Name="types" format="ascii" RangeMin="12" RangeMax="12">
          12 12 12 12 12 12
          12 12
        </DataArray>
      </Cells>
    </Piece>
  </UnstructuredGrid>
</VTKFile>
