<?xml version="1.0"?>
<VTKFile type="UnstructuredGrid" version="0.1" byte_order="LittleEndian" header_type="UInt32" compressor="vtkZLibDataCompressor">
  <UnstructuredGrid>
    <Piece NumberOfPoints="27" NumberOfCells="8">
      <PointData>
        <DataArray type="Float64" Name="Temperature" format="ascii" RangeMin="0" RangeMax="0.4999998017446123">
          0.49999980164667523 0 0 0.37499985908103084 0.3749998591157036 0.4999998017308802
          0.49999980160348473 0 0.3749998589571874 0.374999859129333 0.49999980161452107 0.3749998589967872
          0 0.3749998591035137 0.3749998589954406 0 0.4999998013459637 0.49999980125553195
          0.4999998016613722 0 0 0.4999998017330374 0 0
          0.4999998017446123 0.37499985926975804 0.3749998590668771
        </DataArray>
      </PointData>
      <CellData>
        <DataArray type="UInt8" Name="vtkGhostType" format="ascii" RangeMin="0" RangeMax="0">
          0 0 0 0 0 0
          0 0
        </DataArray>
      </CellData>
      <Points>
        <DataArray type="Float32" Name="Points" NumberOfComponents="3" format="ascii" RangeMin="0" RangeMax="1.7320508075688772">
          0 1 0.5 0 0 0.5
          1 0 0.5 1 0.5 0.5
          0 0.5 0.5 0 1 1
          0 1 0 0 0 1
          0 0.5 1 1 0.5 1
          1 1 1 0 0.5 0
          0.5 0 0 0.5 0.5 0.5
          0.5 0.5 1 1 0 0
          0.5 1 1 0.5 1 0
          1 1 0.5 1 0 1
          0.5 0 1 0.5 1 0.5
          0.5 0 0.5 0 0 0
          1 1 0 1 0.5 0
          0.5 0.5 0
          <InformationKey name="L2_NORM_RANGE" location="vtkDataArray" length="2">
            <Value index="0">
              0
            </Value>
            <Value index="1">
              1.7320508076
            </Value>
          </InformationKey>
        </DataArray>
      </Points>
      <Cells>
        <DataArray type="Int64" Name="connectivity" format="ascii" RangeMin="0" RangeMax="26">
          10 16 21 18 9 14
          13 3 9 14 13 3
          19 20 22 2 18 21
          17 24 3 13 26 25
          3 13 26 25 2 22
          12 15 16 5 0 21
          14 8 4 13 14 8
          4 13 20 7 1 22
          21 0 6 17 13 4
          11 26 13 4 11 26
          22 1 23 12
        </DataArray>
        <DataArray type="Int64" Name="offsets" format="ascii" RangeMin="8" RangeMax="64">
          8 16 24 32 40 48
          56 64
        </DataArray>
        <DataArray type="UInt8" Name="types" format="ascii" RangeMin="12" RangeMax="12">
          12 12 12 12 12 12
          12 12
        </DataArray>
      </Cells>
    </Piece>
  </UnstructuredGrid>
</VTKFile>
