<?xml version="1.0"?>
<VTKFile type="UnstructuredGrid" version="0.1" byte_order="LittleEndian" header_type="UInt32" compressor="vtkZLibDataCompressor">
  <UnstructuredGrid>
    <Piece NumberOfPoints="41" NumberOfCells="12">
      <PointData>
        <DataArray type="Float64" Name="Temperature" format="ascii" RangeMin="0" RangeMax="0.506806963103734">
          0.36850671836333915 0.4927852419888251 0.4624118173770753 0.368506718404249 0.37272578204662604 0.4418759043925729
          0.462453642114499 0.4624536421212133 0.3727257820797336 0.37694484575521825 0 0
          0 0.37694484572991294 0 0 0.3776035844065109 0.44187590444212876
          0.3727257821128412 0.4927852420923832 0.46245364221235197 0.4624118174841031 0.49007186662342533 0.37694484578052356
          0.5068069630552329 0.4900718666107276 0.5068069630794834 0.490071866585861 0.46245364221379415 0.4418759044173508
          0.49007186656072727 0.5033250594620072 0.503325059454873 0.3776035844486515 0.49278524199595286 0.46241181746188365
          0.4927852419663146 0.462411817400504 0.506806963103734 0.3685067184451588 0
        </DataArray>
      </PointData>
      <CellData>
        <DataArray type="UInt8" Name="vtkGhostType" format="ascii" RangeMin="0" RangeMax="1">
          1 1 1 0 0 0
          0 0 0 0 0 1
        </DataArray>
      </CellData>
      <Points>
        <DataArray type="Float32" Name="Points" NumberOfComponents="3" format="ascii" RangeMin="0" RangeMax="1.6007810593582121">
          1 0.5 0 1 1 0.5
          1 0.75 0 1 0.5 0.25
          0.75 0.5 0 0.5 0.75 0
          0.75 0.75 0.25 0.75 0.75 0
          0.75 0.5 0.25 0.5 0.5 0.25
          0 0 0.5 0 0 0
          0.5 0 0.5 0.5 0.5 0
          1 0 0 1 0 0.5
          0 0.5 0.5 0.5 0.75 0.5
          0.75 0.5 0.5 1 1 0.75
          0.75 0.75 0.75 1 0.75 0.75
          0.75 1 0.75 0.5 0.5 0.5
          0.5 1 0 0.75 1 0.5
          0.5 1 0.25 0.75 1 0
          0.75 0.75 0.5 0.5 0.75 0.25
          0.75 1 0.25 0 1 0.5
          0 1 0 0 0.5 0
          1 1 0 1 0.75 0.5
          1 1 0.25 1 0.75 0.25
          0.5 1 0.5 1 0.5 0.5
          0.5 0 0
          <InformationKey name="L2_NORM_RANGE" location="vtkDataArray" length="2">
            <Value index="0">
              0
            </Value>
            <Value index="1">
              1.6007810594
            </Value>
          </InformationKey>
        </DataArray>
      </Points>
      <Cells>
        <DataArray type="Int64" Name="connectivity" format="ascii" RangeMin="0" RangeMax="40">
          23 16 33 13 12 10
          11 40 39 23 13 0
          15 12 40 14 38 31
          32 24 23 16 33 13
          19 22 25 1 21 20
          28 35 1 25 30 36
          35 28 6 37 35 28
          6 37 39 18 8 3
          36 30 27 34 37 6
          7 2 37 6 7 2
          3 8 4 0 25 38
          26 30 28 17 29 6
          28 17 29 6 18 23
          9 8 30 26 24 27
          6 29 5 7 6 29
          5 7 8 9 13 4
        </DataArray>
        <DataArray type="Int64" Name="offsets" format="ascii" RangeMin="8" RangeMax="96">
          8 16 24 32 40 48
          56 64 72 80 88 96
        </DataArray>
        <DataArray type="UInt8" Name="types" format="ascii" RangeMin="12" RangeMax="12">
          12 12 12 12 12 12
          12 12 12 12 12 12
        </DataArray>
      </Cells>
    </Piece>
  </UnstructuredGrid>
</VTKFile>
