<?xml version="1.0"?>
<VTKFile type="UnstructuredGrid" version="0.1" byte_order="LittleEndian" header_type="UInt32" compressor="vtkZLibDataCompressor">
  <UnstructuredGrid>
    <Piece NumberOfPoints="63" NumberOfCells="26">
      <PointData>
        <DataArray type="Float64" Name="Temperature" format="ascii" RangeMin="0" RangeMax="0.468749992492594">
          0 0.37499999408063445 0.21874999638466316 0 0 0.3749999941044431
          0.37499999408450635 0.2187499964003057 0.37499999411145546 0.2187499963972283 0.21874999638207407 0
          0.21874999640606183 0.21874999640340448 0.3749999940890547 0.21874999638822498 0.21874999640433887 0
          0 0 0 0.3749999940929444 0.468749992492594 0.21874999641428372
          0.3749999941252597 0 0.3749999941445961 0 0.2187499964195715 0.3749999941338475
          0.3749999941328725 0.21874999641747375 0 0.21874999639598205 0.2187499964098352 0.3749999941001178
          0 0 0.3749999940931287 0.21874999638585632 0 0
          0.37499999409352824 0.46874999243757515 0.2187499963889869 0.4687499924423907 0.37499999409168205 0.21874999638911083
          0 0.4687499924518355 0.46874999247743204 0.46874999244451987 0.46874999243814935 0.468749992470166
          0.468749992465549 0.4687499924393784 0.37499999410991935 0.46874999247070587 0.37499999410732315 0.46874999247245636
          0.4687499924461936 0.4687499924854975 0.46874999248013705
        </DataArray>
      </PointData>
      <CellData>
        <DataArray type="UInt8" Name="vtkGhostType" format="ascii" RangeMin="0" RangeMax="0">
          0 0 0 0 0 0
          0 0 0 0 0 0
          0 0 0 0 0 0
          0 0 0 0 0 0
          0 0
        </DataArray>
      </CellData>
      <Points>
        <DataArray type="Float32" Name="Points" NumberOfComponents="3" format="ascii" RangeMin="0.3535533905932738" RangeMax="1.6007810593582121">
          1 0 0.5 1 0.5 0.5
          1 0.25 0.5 1 0 0.75
          0.75 0 0.5 1 0.5 0.75
          0.75 0.5 0.5 0.75 0.25 0.75
          0.75 0.5 0.75 1 0.25 0.75
          0.75 0.25 0.5 0.75 0 0.75
          1 0.25 1 0.75 0.25 1
          0.5 0.5 0.5 0.5 0.25 0.5
          0.5 0.25 0.75 1 0 1
          0.5 0 1 0.75 0 1
          0.5 0 0.75 0.25 0.5 0.5
          0.25 0.75 0.75 0.25 0.25 0.75
          0.25 0.5 0.75 0.25 0 0.75
          0.25 0.5 1 0.25 0 1
          0.25 0.25 1 0.5 0.5 1
          0.5 0.5 0.75 0.5 0.25 1
          0.25 0 0.5 0.25 0.25 0.25
          0.25 0.25 0.5 0.25 0.5 0.25
          0.25 0 0.25 0.5 0 0.25
          0.5 0.5 0.25 0.5 0.25 0.25
          0.5 0 0.5 1 0 0.25
          1 0.5 0.25 0.75 0.75 0.25
          0.75 0.25 0.25 1 0.75 0.25
          0.75 0.5 0.25 1 0.25 0.25
          0.75 0 0.25 0.25 0.75 0.25
          0.25 0.75 0.5 0.5 0.75 0.25
          1 0.75 0.5 0.75 0.75 0.75
          1 0.75 0.75 0.75 0.75 0.5
          1 0.5 1 1 0.75 1
          0.75 0.5 1 0.75 0.75 1
          0.5 0.75 0.5 0.5 0.75 1
          0.5 0.75 0.75
          <InformationKey name="L2_NORM_RANGE" location="vtkDataArray" length="2">
            <Value index="0">
              0.35355339059
            </Value>
            <Value index="1">
              1.6007810594
            </Value>
          </InformationKey>
        </DataArray>
      </Points>
      <Cells>
        <DataArray type="Int64" Name="connectivity" format="ascii" RangeMin="0" RangeMax="62">
          57 59 53 54 56 58
          8 5 54 53 55 52
          5 8 6 1 59 61
          62 53 58 29 30 8
          53 62 60 55 8 30
          14 6 56 58 8 5
          12 13 7 9 12 13
          7 9 17 19 11 3
          5 8 6 1 9 7
          10 2 9 7 10 2
          3 11 4 0 58 29
          30 8 13 31 16 7
          13 31 16 7 19 18
          20 11 8 30 14 6
          7 16 15 10 7 16
          15 10 11 20 40 4
          52 55 43 45 1 6
          46 42 55 60 51 43
          6 14 38 46 1 6
          46 42 2 10 44 47
          2 10 44 47 0 4
          48 41 6 14 38 46
          10 15 39 44 10 15
          39 44 4 40 37 48
          62 22 50 60 30 24
          21 14 29 26 24 30
          31 28 23 16 31 28
          23 16 18 27 25 20
          30 24 21 14 16 23
          34 15 16 23 34 15
          20 25 32 40 60 50
          49 51 14 21 35 38
          14 21 35 38 15 34
          33 39 15 34 33 39
          40 32 36 37
        </DataArray>
        <DataArray type="Int64" Name="offsets" format="ascii" RangeMin="8" RangeMax="208">
          8 16 24 32 40 48
          56 64 72 80 88 96
          104 112 120 128 136 144
          152 160 168 176 184 192
          200 208
        </DataArray>
        <DataArray type="UInt8" Name="types" format="ascii" RangeMin="12" RangeMax="12">
          12 12 12 12 12 12
          12 12 12 12 12 12
          12 12 12 12 12 12
          12 12 12 12 12 12
          12 12
        </DataArray>
      </Cells>
    </Piece>
  </UnstructuredGrid>
</VTKFile>
