<?xml version="1.0"?>
<VTKFile type="UnstructuredGrid" version="0.1" byte_order="LittleEndian" header_type="UInt32" compressor="vtkZLibDataCompressor">
  <UnstructuredGrid>
    <Piece NumberOfPoints="16" NumberOfCells="3">
      <PointData>
        <DataArray type="Float64" Name="Temperature" format="ascii" RangeMin="0.3749999739579836" RangeMax="0.4999999687516817">
          0.4999999687500288 0.4999999687504958 0.4999999687507994 0.4999999687498547 0.3749999739580924 0.3749999739579836
          0.49999996875007996 0.374999973959055 0.3749999739589154 0.4999999687516817 0.3749999739589302 0.37499997395868667
          0.37499997395916584 0.37499997395871376 0.4999999687507635 0.49999996875087616
        </DataArray>
      </PointData>
      <CellData>
        <DataArray type="UInt8" Name="vtkGhostType" format="ascii" RangeMin="1" RangeMax="1">
          1 1 1
        </DataArray>
      </CellData>
      <Points>
        <DataArray type="Float32" Name="Points" NumberOfComponents="3" format="ascii" RangeMin="0.7071067811865476" RangeMax="1.7320508075688772">
          1 1 0 1 1 0.5
          0.5 1 1 1 1 1
          1 0.5 1 0.5 0.5 1
          0 1 0.5 0 0.5 1
          0.5 0.5 0.5 0.5 1 0
          0 0.5 0.5 0.5 0.5 0
          1 0.5 0 1 0.5 0.5
          0.5 1 0.5 0 1 1
          <InformationKey name="L2_NORM_RANGE" location="vtkDataArray" length="2">
            <Value index="0">
              0.70710678119
            </Value>
            <Value index="1">
              1.7320508076
            </Value>
          </InformationKey>
        </DataArray>
      </Points>
      <Cells>
        <DataArray type="Int64" Name="connectivity" format="ascii" RangeMin="0" RangeMax="15">
          3 2 14 1 4 5
          8 13 1 14 9 0
          13 8 11 12 2 15
          6 14 5 7 10 8
        </DataArray>
        <DataArray type="Int64" Name="offsets" format="ascii" RangeMin="8" RangeMax="24">
          8 16 24
        </DataArray>
        <DataArray type="UInt8" Name="types" format="ascii" RangeMin="12" RangeMax="12">
          12 12 12
        </DataArray>
      </Cells>
    </Piece>
  </UnstructuredGrid>
</VTKFile>
