<?xml version="1.0"?>
<VTKFile type="UnstructuredGrid" version="0.1" byte_order="LittleEndian" header_type="UInt32" compressor="vtkZLibDataCompressor">
  <UnstructuredGrid>
    <Piece NumberOfPoints="65" NumberOfCells="25">
      <PointData>
        <DataArray type="Float64" Name="Temperature" format="ascii" RangeMin="0" RangeMax="0.4999999922085888">
          0.37499999408665713 0 0.37499999412354756 0.3749999940929444 0.468749992492594 0.21874999641428372
          0.46874999249239274 0.3749999941252597 0.2187499964140038 0 0 0.374999994147727
          0.46874999250889643 0.3749999941445961 0.21874999643304066 0 0.4687499925017199 0.2187499964195715
          0.3749999941338475 0.3749999941328725 0.21874999641747375 0.37499999408450635 0.2187499964003057 0.37499999411145546
          0.21874999638207407 0 0.21874999640340448 0.3749999940890547 0.21874999638822498 0.21874999640433887
          0 0 0 0 0.218749996419462 0
          0.37499999410432716 0.21874999639598205 0.2187499964098352 0.3749999941001178 0.21874999638914872 0.3749999940931287
          0.21874999638585632 0 0.49999999216758956 0.49999999219184305 0.49999999216662194 0.46874999248641624
          0.4687499924518355 0.46874999247743204 0.4999999921781806 0.4687499924508523 0.4999999922085888 0.46874999244451987
          0.4999999921400036 0.468749992470166 0.4687499924393784 0.37499999410732315 0.4999999921827013 0.46874999247245636
          0.4687499924461936 0.4687499924854975 0.46874999248013705 0.49999999216906976 0.499999992154722
        </DataArray>
      </PointData>
      <CellData>
        <DataArray type="UInt8" Name="vtkGhostType" format="ascii" RangeMin="0" RangeMax="1">
          1 1 1 1 1 0
          0 0 1 0 0 0
          0 1 1 1 1 0
          0 0 0 1 0 1
          0
        </DataArray>
      </CellData>
      <Points>
        <DataArray type="Float32" Name="Points" NumberOfComponents="3" format="ascii" RangeMin="0.3535533905932738" RangeMax="1.5">
          0 0.5 0.5 0 0 0.75
          0 0.5 0.75 0.25 0.5 0.5
          0.25 0.75 0.75 0.25 0.25 0.75
          0 0.75 0.75 0.25 0.5 0.75
          0 0.25 0.75 0.25 0 0.75
          0 0 1 0 0.5 1
          0 0.75 1 0.25 0.5 1
          0 0.25 1 0.25 0 1
          0.25 0.75 1 0.25 0.25 1
          0.5 0.5 1 0.5 0.5 0.75
          0.5 0.25 1 0.75 0.5 0.5
          0.75 0.25 0.75 0.75 0.5 0.75
          0.75 0.25 0.5 0.75 0 0.75
          0.75 0.25 1 0.5 0.5 0.5
          0.5 0.25 0.5 0.5 0.25 0.75
          0.5 0 1 0.75 0 1
          0.5 0 0.75 0 0 0.5
          0 0.25 0.5 0.25 0 0.5
          0 0.5 0.25 0.25 0.25 0.25
          0.25 0.25 0.5 0.25 0.5 0.25
          0 0.25 0.25 0.5 0.5 0.25
          0.5 0.25 0.25 0.5 0 0.5
          0 1 0.5 0 1 0.75
          0.25 1 0.5 0 0.75 0.5
          0.25 0.75 0.25 0.25 0.75 0.5
          0.25 1 0.75 0 0.75 0.25
          0 1 1 0.5 0.75 0.25
          0.5 1 0.5 0.75 0.75 0.75
          0.75 0.75 0.5 0.75 0.5 1
          0.25 1 1 0.75 0.75 1
          0.5 0.75 0.5 0.5 0.75 1
          0.5 0.75 0.75 0.5 1 1
          0.5 1 0.75
          <InformationKey name="L2_NORM_RANGE" location="vtkDataArray" length="2">
            <Value index="0">
              0.35355339059
            </Value>
            <Value index="1">
              1.5
            </Value>
          </InformationKey>
        </DataArray>
      </Points>
      <Cells>
        <DataArray type="Int64" Name="connectivity" format="ascii" RangeMin="0" RangeMax="64">
          59 61 62 55 57 18
          19 23 55 62 60 56
          23 19 27 21 57 18
          19 23 26 20 29 22
          26 20 29 22 31 30
          32 25 23 19 27 21
          22 29 28 24 63 58
          50 64 61 16 4 62
          61 16 4 62 18 13
          7 19 64 50 46 54
          62 4 49 60 62 4
          49 60 19 7 3 27
          58 52 45 50 16 12
          6 4 16 12 6 4
          13 11 2 7 50 45
          44 46 4 6 47 49
          4 6 47 49 7 2
          0 3 18 13 7 19
          20 17 5 29 20 17
          5 29 30 15 9 32
          19 7 3 27 29 5
          38 28 29 5 38 28
          32 9 35 43 13 11
          2 7 17 14 8 5
          17 14 8 5 15 10
          1 9 7 2 0 3
          5 8 34 38 5 8
          34 38 9 1 33 35
          60 49 48 53 27 3
          39 41 49 47 51 48
          3 0 36 39 27 3
          39 41 28 38 37 42
          3 0 36 39 38 34
          40 37
        </DataArray>
        <DataArray type="Int64" Name="offsets" format="ascii" RangeMin="8" RangeMax="200">
          8 16 24 32 40 48
          56 64 72 80 88 96
          104 112 120 128 136 144
          152 160 168 176 184 192
          200
        </DataArray>
        <DataArray type="UInt8" Name="types" format="ascii" RangeMin="12" RangeMax="12">
          12 12 12 12 12 12
          12 12 12 12 12 12
          12 12 12 12 12 12
          12 12 12 12 12 12
          12
        </DataArray>
      </Cells>
    </Piece>
  </UnstructuredGrid>
</VTKFile>
