<?xml version="1.0"?>
<VTKFile type="UnstructuredGrid" version="0.1" byte_order="LittleEndian" header_type="UInt32" compressor="vtkZLibDataCompressor">
  <UnstructuredGrid>
    <Piece NumberOfPoints="58" NumberOfCells="20">
      <PointData>
        <DataArray type="Float64" Name="Temperature" format="ascii" RangeMin="0" RangeMax="0.506806963103734">
          0.5033250594322267 0.3776035844486515 0.49278524199595286 0.46241181746188365 0.4927852419663146 0.462411817400504
          0.506806963103734 0.3685067184451588 0.5068069630484549 0 0 0.3776035843875499
          0 0 0.37694484572991294 0 0 0.3776035844065109
          0 0.36850671836333915 0.4927852419888251 0.4624118173770753 0.368506718404249 0.37272578204662604
          0.462453642114499 0.4624536421212133 0.3727257820797336 0 0.44187590444212876 0.3727257821128412
          0.44187590441707447 0.3727257821057418 0.3685067184064201 0.5068069629931756 0.4418759043920202 0.4927852420923832
          0.46245364221235197 0.4624118174841031 0.49007186662342533 0.3685067184257894 0.37694484578052356 0.46245364226480273
          0.49007186666827224 0.5068069630552329 0.4900718666107276 0.5068069630794834 0.490071866585861 0.46245364221379415
          0.4418759044173508 0.49007186656072727 0.5033250594620072 0.37694484579086474 0.503325059454873 0.4418759043925729
          0.37694484575521825 0.37694484578569415 0.3727257820986424 0.4624118175327842
        </DataArray>
      </PointData>
      <CellData>
        <DataArray type="UInt8" Name="vtkGhostType" format="ascii" RangeMin="1" RangeMax="1">
          1 1 1 1 1 1
          1 1 1 1 1 1
          1 1 1 1 1 1
          1 1
        </DataArray>
      </CellData>
      <Points>
        <DataArray type="Float32" Name="Points" NumberOfComponents="3" format="ascii" RangeMin="0" RangeMax="1.6007810593582121">
          0 1 1 0 0.5 0
          1 1 0 1 0.75 0.5
          1 1 0.25 1 0.75 0.25
          0.5 1 0.5 1 0.5 0.5
          0.5 1 0.75 0.5 0 0
          0 0 0.5 0 0.5 1
          0 0 0 0.5 0 0.5
          0.5 0.5 0 1 0 0
          1 0 0.5 0 0.5 0.5
          0.5 0 1 1 0.5 0
          1 1 0.5 1 0.75 0
          1 0.5 0.25 0.75 0.5 0
          0.75 0.75 0.25 0.75 0.75 0
          0.75 0.5 0.25 1 0 1
          0.5 0.75 0.5 0.75 0.5 0.5
          0.5 0.75 0.75 0.75 0.5 0.75
          1 0.5 1 0.5 1 1
          0.5 0.75 1 1 1 0.75
          0.75 0.75 0.75 1 0.75 0.75
          0.75 1 0.75 1 0.5 0.75
          0.5 0.5 0.5 0.75 0.75 1
          0.75 1 1 0.5 1 0
          0.75 1 0.5 0.5 1 0.25
          0.75 1 0 0.75 0.75 0.5
          0.5 0.75 0.25 0.75 1 0.25
          0 1 0.5 0.5 0.5 1
          0 1 0 0.5 0.75 0
          0.5 0.5 0.25 0.5 0.5 0.75
          0.75 0.5 1 1 0.75 1
          <InformationKey name="L2_NORM_RANGE" location="vtkDataArray" length="2">
            <Value index="0">
              0
            </Value>
            <Value index="1">
              1.6007810594
            </Value>
          </InformationKey>
        </DataArray>
      </Points>
      <Cells>
        <DataArray type="Int64" Name="connectivity" format="ascii" RangeMin="0" RangeMax="57">
          33 0 50 6 51 11
          17 40 40 17 1 14
          13 10 12 9 7 40
          14 19 16 13 9 15
          6 50 52 43 40 17
          1 14 32 51 40 7
          27 18 13 16 35 38
          44 20 37 36 47 3
          37 36 47 3 39 31
          29 7 42 33 8 38
          41 34 30 36 38 8
          6 44 36 30 28 47
          20 44 49 4 3 47
          24 5 3 47 24 5
          7 29 26 22 4 49
          46 2 5 24 25 21
          5 24 25 21 22 26
          23 19 44 6 45 49
          47 28 48 24 24 48
          53 25 26 54 14 23
          47 28 48 24 29 40
          54 26 49 45 43 46
          24 48 53 25 57 41
          36 37 32 56 31 39
          41 34 30 36 56 51
          55 31 36 30 28 47
          31 55 40 29
        </DataArray>
        <DataArray type="Int64" Name="offsets" format="ascii" RangeMin="8" RangeMax="160">
          8 16 24 32 40 48
          56 64 72 80 88 96
          104 112 120 128 136 144
          152 160
        </DataArray>
        <DataArray type="UInt8" Name="types" format="ascii" RangeMin="12" RangeMax="12">
          12 12 12 12 12 12
          12 12 12 12 12 12
          12 12 12 12 12 12
          12 12
        </DataArray>
      </Cells>
    </Piece>
  </UnstructuredGrid>
</VTKFile>
