<?xml version="1.0"?>
<VTKFile type="UnstructuredGrid" version="0.1" byte_order="LittleEndian" header_type="UInt32" compressor="vtkZLibDataCompressor">
  <UnstructuredGrid>
    <Piece NumberOfPoints="83" NumberOfCells="35">
      <PointData>
        <DataArray type="Float64" Name="Temperature" format="ascii" RangeMin="0" RangeMax="0.5015269558120827">
          0 0.37544673924579486 0 0.37544673924694716 0 0.5008182230001669
          0.5008182230011826 0.5008182229990368 0.3754467392479537 0.21894506072453784 0 0
          0.4694633481295119 0.37543724675298584 0.3754467392463099 0.2189450607230236 0 0.4694633481311314
          0.3754372467554138 0.3754467392477448 0.21874059312982944 0 0.5008182229996453 0.5010077880940444
          0.5008182230004008 0.3754372467570058 0.4694633481315858 0.5010077880906577 0.50100778809703 0.4695258782010777
          0.21886962834811685 0.46952587820310854 0.46946334813096197 0.4695258781991174 0.46952587820183506 0.5010077880923502
          0.375437246753327 0.21874059313040853 0.2189450607235812 0.21886962834797047 0.21886962834944 0
          0.2189450607250873 0.3754372467563131 0.46946334812937357 0.4695258782040956 0.5010077880955124 0.37460426970111443
          0.3746042697003612 0.47011933715380577 0.47011933715453025 0.3748873906312779 0.5015269558022124 0.374887390630112
          0.5015269558027639 0 0.218626213403162 0.2186262134024062 0.4701193371626581 0.37460426970269817
          0.3748873906321335 0.5015269558061813 0.5015269558107623 0.47011933715688836 0.5015269558120827 0.47011933716026316
          0 0 0.3748873906345741 0 0.21874059313126257 0
          0 0.21894506072568093 0.2187405931326524 0 0.2188696283505412 0.21874059313234345
          0.21886962835073306 0 0.21862621340408792 0 0.3748873906356484
        </DataArray>
      </PointData>
      <CellData>
        <DataArray type="UInt8" Name="vtkGhostType" format="ascii" RangeMin="0" RangeMax="0">
          0 0 0 0 0 0
          0 0 0 0 0 0
          0 0 0 0 0 0
          0 0 0 0 0 0
          0 0 0 0 0 0
          0 0 0 0 0
        </DataArray>
      </CellData>
      <Points>
        <DataArray type="Float32" Name="Points" NumberOfComponents="3" format="ascii" RangeMin="0" RangeMax="1.5">
          0 0 0.5 0 0.5 1
          0 0 1 0 0.5 0.5
          0.5 0 1 0 1 0.5
          0 1 0 0 1 1
          0 0.5 0 0 0.25 0.5
          0 0 0.75 0.25 0 0.5
          0 0.75 1 0.25 0.5 1
          0 0.5 0.75 0 0.25 1
          0.5 0 0.75 0 0.75 0.5
          0.25 0.5 0.5 0 0.5 0.25
          0.5 0.25 1 0.25 0 1
          0 1 0.75 0.25 1 0.5
          0 1 0.25 0.25 0.5 0
          0 0.75 0 0.25 1 1
          0.25 1 0 0.25 0.75 0.75
          0.25 0.25 0.75 0.25 0.75 0.25
          0 0.75 0.75 0.25 0.75 1
          0.25 0.75 0.5 0.25 1 0.75
          0.25 0.5 0.75 0.5 0.25 0.75
          0 0.25 0.75 0.25 0.25 1
          0.25 0.25 0.5 0.25 0 0.75
          0 0.25 0.25 0.25 0.5 0.25
          0 0.75 0.25 0.25 0.75 0
          0.25 1 0.25 0.75 0.5 0.75
          0.75 0.5 1 0.5 0.75 1
          0.5 0.75 0.75 0.5 0.5 0.75
          0.5 1 1 0.5 0.5 1
          0.5 1 0.75 0.75 0 1
          0.75 0.25 0.75 0.75 0.25 1
          0.5 0.75 0 0.75 0.5 0.5
          0.5 0.5 0.5 0.5 1 0.5
          0.5 1 0.25 0.5 0.75 0.5
          0.5 1 0 0.5 0.75 0.25
          0 0 0 0.5 0 0.5
          0.5 0.5 0.25 0 0 0.25
          0.5 0.25 0.5 0.5 0 0.25
          0.75 0 0.5 0 0.25 0
          0.5 0.25 0 0.25 0 0
          0.25 0.25 0.25 0.5 0.25 0.25
          0.25 0.25 0 0.25 0 0.25
          0.75 0.25 0.5 0.75 0 0.75
          0.5 0.5 0
          <InformationKey name="L2_NORM_RANGE" location="vtkDataArray" length="2">
            <Value index="0">
              0
            </Value>
            <Value index="1">
              1.5
            </Value>
          </InformationKey>
        </DataArray>
      </Points>
      <Cells>
        <DataArray type="Int64" Name="connectivity" format="ascii" RangeMin="0" RangeMax="82">
          52 27 35 54 49 33
          29 50 49 33 29 50
          53 13 36 51 54 35
          23 61 50 29 34 63
          50 29 34 63 51 36
          18 60 27 7 22 35
          33 12 32 29 33 12
          32 29 13 1 14 36
          35 22 5 23 29 32
          17 34 29 32 17 34
          36 14 3 18 53 13
          36 51 20 39 30 37
          20 39 30 37 4 21
          41 16 51 36 18 60
          37 30 40 70 37 30
          40 70 16 41 11 67
          13 1 14 36 39 15
          38 30 39 15 38 30
          21 2 10 41 36 14
          3 18 30 38 9 40
          30 38 9 40 41 10
          0 11 60 18 43 68
          70 40 76 77 70 40
          76 77 67 11 79 71
          68 43 25 82 77 76
          78 74 18 3 19 43
          40 9 42 76 40 9
          42 76 11 0 69 79
          43 19 8 25 76 42
          73 78 76 42 73 78
          79 69 66 75 61 23
          46 62 63 34 31 65
          63 34 31 65 60 18
          43 68 62 46 28 64
          65 31 45 58 65 31
          45 58 68 43 25 82
          23 5 24 46 34 17
          44 31 34 17 44 31
          18 3 19 43 46 24
          6 28 31 44 26 45
          31 44 26 45 43 19
          8 25 48 53 51 47
          57 20 37 56 57 20
          37 56 55 4 16 81
          47 51 60 59 56 37
          70 80 56 37 70 80
          81 16 67 72
        </DataArray>
        <DataArray type="Int64" Name="offsets" format="ascii" RangeMin="8" RangeMax="280">
          8 16 24 32 40 48
          56 64 72 80 88 96
          104 112 120 128 136 144
          152 160 168 176 184 192
          200 208 216 224 232 240
          248 256 264 272 280
        </DataArray>
        <DataArray type="UInt8" Name="types" format="ascii" RangeMin="12" RangeMax="12">
          12 12 12 12 12 12
          12 12 12 12 12 12
          12 12 12 12 12 12
          12 12 12 12 12 12
          12 12 12 12 12 12
          12 12 12 12 12
        </DataArray>
      </Cells>
    </Piece>
  </UnstructuredGrid>
</VTKFile>
