<?xml version="1.0"?>
<VTKFile type="UnstructuredGrid" version="0.1" byte_order="LittleEndian" header_type="UInt32" compressor="vtkZLibDataCompressor">
  <UnstructuredGrid>
    <Piece NumberOfPoints="58" NumberOfCells="20">
      <PointData>
        <DataArray type="Float64" Name="Temperature" format="ascii" RangeMin="0" RangeMax="0.506806963103734">
          0.4927852420923832 0.46245364221235197 0.4624118174841031 0.49007186662342533 0.3685067184257894 0.37694484578052356
          0.4624118175327842 0.46245364226480273 0.4927852420543399 0.49007186666827224 0 0.3776035843875499
          0 0 0 0.37694484572991294 0 0
          0.3776035844065109 0 0.36850671836333915 0.4927852419888251 0.462453642114499 0.3727257820797336
          0.37694484575521825 0 0.44187590444212876 0.3727257821128412 0.44187590441707447 0.3727257821057418
          0.3685067184064201 0.37694484578569415 0.3727257820986424 0.5068069629931756 0.4418759043920202 0.5068069630552329
          0.4900718666107276 0.46245364221379415 0.4418759044173508 0.5033250594620072 0.37694484579086474 0.503325059454873
          0.5033250594322267 0.3776035844486515 0.46241181746188365 0.506806963103734 0.3685067184451588 0.5068069630484549
          0 0.4624118173770753 0.368506718404249 0.37272578204662604 0.4418759043925729 0.4624536421212133
          0.5068069630794834 0.490071866585861 0.49007186656072727 0.462411817400504
        </DataArray>
      </PointData>
      <CellData>
        <DataArray type="UInt8" Name="vtkGhostType" format="ascii" RangeMin="0" RangeMax="1">
          1 1 1 1 1 1
          0 1 1 1 1 1
          1 1 1 1 1 1
          1 1
        </DataArray>
      </CellData>
      <Points>
        <DataArray type="Float32" Name="Points" NumberOfComponents="3" format="ascii" RangeMin="0" RangeMax="1.7320508075688772">
          1 1 0.75 0.75 0.75 0.75
          1 0.75 0.75 0.75 1 0.75
          1 0.5 0.75 0.5 0.5 0.5
          1 0.75 1 0.75 0.75 1
          1 1 1 0.75 1 1
          0 0 0.5 0 0.5 1
          0 0 1 0 0 0
          0.5 0 0.5 0.5 0.5 0
          1 0 0 1 0 0.5
          0 0.5 0.5 0.5 0 1
          1 0.5 0 1 1 0.5
          0.75 0.75 0.25 0.75 0.5 0.25
          0.5 0.5 0.25 1 0 1
          0.5 0.75 0.5 0.75 0.5 0.5
          0.5 0.75 0.75 0.75 0.5 0.75
          1 0.5 1 0.5 0.5 0.75
          0.75 0.5 1 0.5 1 1
          0.5 0.75 1 0.5 1 0
          0.75 1 0.5 0.75 0.75 0.5
          0.5 0.75 0.25 0 1 0.5
          0.5 0.5 1 0 1 0
          0 1 1 0 0.5 0
          1 0.75 0.5 0.5 1 0.5
          1 0.5 0.5 0.5 1 0.75
          0.5 0 0 1 0.75 0
          1 0.5 0.25 0.75 0.5 0
          0.5 0.75 0 0.75 0.75 0
          0.5 1 0.25 0.75 1 0
          0.75 1 0.25 1 0.75 0.25
          <InformationKey name="L2_NORM_RANGE" location="vtkDataArray" length="2">
            <Value index="0">
              0
            </Value>
            <Value index="1">
              1.7320508076
            </Value>
          </InformationKey>
        </DataArray>
      </Points>
      <Cells>
        <DataArray type="Int64" Name="connectivity" format="ascii" RangeMin="0" RangeMax="57">
          33 42 39 45 40 11
          18 5 40 11 18 5
          19 12 10 14 5 18
          43 15 14 10 13 48
          46 5 15 20 17 14
          48 16 45 39 41 35
          5 18 43 15 30 40
          5 46 25 19 14 17
          8 9 3 0 6 7
          1 2 6 7 1 2
          30 32 29 4 0 3
          36 21 2 1 37 44
          2 1 37 44 4 29
          27 46 9 33 47 3
          7 34 28 1 7 34
          28 1 32 40 31 29
          3 47 45 36 1 28
          26 37 1 28 26 37
          29 31 5 27 37 26
          38 22 27 5 24 23
          22 38 52 53 23 24
          15 51 44 37 22 57
          46 27 23 50 57 22
          53 49 50 23 51 20
          36 45 54 56 37 26
          38 22 56 54 35 55
          22 38 52 53
        </DataArray>
        <DataArray type="Int64" Name="offsets" format="ascii" RangeMin="8" RangeMax="160">
          8 16 24 32 40 48
          56 64 72 80 88 96
          104 112 120 128 136 144
          152 160
        </DataArray>
        <DataArray type="UInt8" Name="types" format="ascii" RangeMin="12" RangeMax="12">
          12 12 12 12 12 12
          12 12 12 12 12 12
          12 12 12 12 12 12
          12 12
        </DataArray>
      </Cells>
    </Piece>
  </UnstructuredGrid>
</VTKFile>
