<?xml version="1.0"?>
<VTKFile type="UnstructuredGrid" version="0.1" byte_order="LittleEndian" header_type="UInt32" compressor="vtkZLibDataCompressor">
  <UnstructuredGrid>
    <Piece NumberOfPoints="27" NumberOfCells="8">
      <PointData>
        <DataArray type="Float64" Name="Temperature" format="ascii" RangeMin="0" RangeMax="0.49999997211806">
          0.49999996909910394 0.37499997450724953 0.3749999751905943 0 0.3749999751205819 0.4999999689566784
          0 0.3749999737421646 0 0.37499997398441803 0.3749999740334601 0.49999996905253
          0.4999999690151922 0.4999999688812278 0 0.4999999696070166 0 0
          0.3749999748453556 0.49999997138930063 0.3749999758830571 0 0.49999997211806 0
          0.3749999744703894 0 0.49999996982884537
        </DataArray>
      </PointData>
      <CellData>
        <DataArray type="UInt8" Name="vtkGhostType" format="ascii" RangeMin="1" RangeMax="1">
          1 1 1 1 1 1
          1 1
        </DataArray>
      </CellData>
      <Points>
        <DataArray type="Float32" Name="Points" NumberOfComponents="3" format="ascii" RangeMin="0" RangeMax="1.7320508075688772">
          0 1 0.5 0.5 0.5 0.5
          0.5 0.5 0 1 0 0
          1 0.5 1 0 1 1
          0 0 0.5 0 0.5 1
          0 0 1 0 0.5 0
          1 0.5 0 1 1 0.5
          1 1 0 0.5 1 0
          0 0 0 0.5 1 0.5
          0.5 0 0.5 1 0 1
          1 0.5 0.5 0.5 1 1
          0.5 0.5 1 1 0 0.5
          1 1 1 0.5 0 0
          0 0.5 0.5 0.5 0 1
          0 1 0
          <InformationKey name="L2_NORM_RANGE" location="vtkDataArray" length="2">
            <Value index="0">
              0
            </Value>
            <Value index="1">
              1.7320508076
            </Value>
          </InformationKey>
        </DataArray>
      </Points>
      <Cells>
        <DataArray type="Int64" Name="connectivity" format="ascii" RangeMin="0" RangeMax="26">
          22 19 15 11 4 20
          1 18 4 20 1 18
          17 25 16 21 11 15
          13 12 18 1 2 10
          18 1 2 10 21 16
          23 3 19 5 0 15
          20 7 24 1 20 7
          24 1 25 8 6 16
          15 0 26 13 1 24
          9 2 1 24 9 2
          16 6 14 23
        </DataArray>
        <DataArray type="Int64" Name="offsets" format="ascii" RangeMin="8" RangeMax="64">
          8 16 24 32 40 48
          56 64
        </DataArray>
        <DataArray type="UInt8" Name="types" format="ascii" RangeMin="12" RangeMax="12">
          12 12 12 12 12 12
          12 12
        </DataArray>
      </Cells>
    </Piece>
  </UnstructuredGrid>
</VTKFile>
