<?xml version="1.0"?>
<VTKFile type="UnstructuredGrid" version="0.1" byte_order="LittleEndian" header_type="UInt32" compressor="vtkZLibDataCompressor">
  <UnstructuredGrid>
    <Piece NumberOfPoints="118" NumberOfCells="47">
      <PointData>
        <DataArray type="Float64" Name="Temperature" format="ascii" RangeMin="0" RangeMax="0.5015269558120827">
          0 0 0 0 0.3746954112559099 0.3748873906345741
          0.3746954112521852 0 0 0.21874059313126257 0 0
          0.2185820466351492 0 0.21858204663660236 0.4225033638991532 0.37488739063511123 0.21894506072568093
          0.2187405931326524 0 0 0.2188696283505412 0.2186262134050982 0.4274169956399135
          0.21874059313234345 0.21886962835073306 0 0.2185820466361575 0.21862621340408792 0.21862621340539581
          0 0 0.4225033638982859 0.42741699564055124 0.3747458301702419 0.4655388352180857
          0.4215554028412178 0.4215554028406388 0.3748873906356484 0.3746954112546144 0.3746042697060097 0.37460426970473515
          0.3746042697053724 0.3747458301708291 0 0.37544673924694716 0 0.3754467392479537
          0.21894506072453784 0 0 0.3754372467554138 0.3754467392477448 0.21874059312982944
          0.3754372467570058 0.21886962834811685 0.46952587820310854 0.46952587820183506 0.375437246753327 0.21874059313040853
          0.21886962834944 0 0.2189450607250873 0.3754372467563131 0.4695258782040956 0.46800720711624993
          0.4685065359759052 0.4680072071120917 0.46800720711694566 0.46850653597538455 0.4685065359764259 0.49081458184534665
          0.4908145818440917 0.37460426970111443 0.3748873906312779 0.46850653596855596 0 0.3746954112498784
          0 0 0.21858204663358213 0.218626213403162 0.21858204663424885 0.2186262134024062
          0.4680072071088845 0.4701193371626581 0.37460426970269817 0.4225033638974186 0.3747458301696546 0.3748873906333538
          0.37460426970371663 0.42741699563620084 0.4274169956377461 0.4215554028386852 0.42250336389596477 0.37474583016853524
          0.3748873906321335 0.4858231464873704 0.4701193371614606 0.490696318490315 0.4858231464864416 0.4906963184910817
          0.46553883521600403 0.5015269558107623 0.4215554028400599 0.4655388352142181 0.47011933715688836 0.5015269558120827
          0.4685065359719231 0.47011933716026316 0.4685065359736538 0.42155540283731063 0.3747458301674158 0.4274169956341964
          0.42250336389451093 0.4701193371585758 0.465538835212169 0.46553883520976125
        </DataArray>
      </PointData>
      <CellData>
        <DataArray type="UInt8" Name="vtkGhostType" format="ascii" RangeMin="0" RangeMax="1">
          1 1 1 1 1 1
          1 1 0 1 1 1
          1 1 0 0 0 1
          0 0 0 1 1 1
          1 1 1 1 1 1
          1 1 1 0 1 1
          1 0 1 1 1 1
          1 1 1 1 1
        </DataArray>
      </CellData>
      <Points>
        <DataArray type="Float32" Name="Points" NumberOfComponents="3" format="ascii" RangeMin="0" RangeMax="1.4577379737113252">
          0 0 0 0.5 0 0.5
          1 0 0 1 0 0.5
          1 0.5 0 0.5 0.5 0.25
          1 0.5 0.5 0.5 0 0
          0 0 0.25 0.5 0.25 0.5
          0.5 0 0.25 0.75 0 0.5
          1 0.25 0.5 1 0 0.25
          1 0.25 0 0.5 0.625 0
          0.5 0.5 0.125 0 0.25 0
          0.5 0.25 0 0.25 0 0
          0.75 0 0 0.25 0.25 0.25
          0.75 0.25 0.25 0.625 0.625 0.125
          0.5 0.25 0.25 0.25 0.25 0
          0.25 0 0.25 1 0.25 0.25
          0.75 0.25 0.5 0.75 0.25 0
          0.75 0 0.25 0.75 0 0.75
          0.5 0.625 0.125 0.625 0.625 0
          0.625 0.5 0.125 0.625 0.75 0
          0.75 0.625 0 0.75 0.625 0.125
          0.5 0.5 0 1 0.5 0.25
          0.75 0.5 0 0.75 0.5 0.25
          0.75 0.5 0.125 0.625 0.5 0
          0 0 0.5 0 0.5 0.5
          0.5 0 1 0 0.5 0
          0 0.25 0.5 0.25 0 0.5
          0.5 0 0.75 0.25 0.5 0.5
          0 0.5 0.25 0.5 0.25 1
          0.25 0.5 0 0.25 0.25 0.75
          0.25 0.75 0.25 0.25 0.75 0.5
          0.25 0.5 0.75 0.5 0.25 0.75
          0.25 0.25 0.5 0.25 0 0.75
          0 0.25 0.25 0.25 0.5 0.25
          0.25 0.75 0 1 0.75 0
          0.75 0.75 0.125 1 0.75 0.5
          1 0.75 0.25 0.75 0.75 0.25
          0.75 0.75 0 0.75 0.875 0
          0.75 0.875 0.125 0.75 0.5 0.75
          0.5 0.5 0.75 0.75 0.75 0.75
          1 0 1 1 0.5 0.75
          1 0 0.75 0.75 0 1
          1 0.25 1 0.75 0.25 0.75
          1 0.25 0.75 0.75 0.25 1
          1 0.75 0.75 0.5 0.75 0
          0.75 0.5 0.5 0.5 0.625 0.25
          0.625 0.5 0.25 0.5 0.5 0.375
          0.75 0.5 0.375 0.625 0.625 0.375
          0.625 0.625 0.25 0.75 0.625 0.375
          0.5 0.625 0.375 0.625 0.5 0.375
          0.5 0.5 0.5 0.5 0.875 0
          0.5 0.75 0.125 0.625 0.875 0.125
          0.5 0.875 0.125 0.625 0.875 0
          0.625 0.75 0.125 0.5 1 0.25
          0.75 0.625 0.25 0.625 0.75 0.25
          0.5 0.75 0.5 0.5 1 0
          0.75 0.75 0.5 0.5 0.75 0.25
          0.75 0.75 0.375 0.75 0.625 0.5
          0.625 0.5 0.5 0.625 0.625 0.5
          0.5 0.625 0.5 0.5 0.75 0.375
          0.625 0.75 0.375 0.625 0.75 0.5
          <InformationKey name="L2_NORM_RANGE" location="vtkDataArray" length="2">
            <Value index="0">
              0
            </Value>
            <Value index="1">
              1.4577379737
            </Value>
          </InformationKey>
        </DataArray>
      </Points>
      <Cells>
        <DataArray type="Int64" Name="connectivity" format="ascii" RangeMin="0" RangeMax="117">
          67 108 69 68 6 86
          41 39 68 69 70 65
          39 41 40 4 84 75
          108 67 77 73 86 6
          74 58 51 96 59 55
          60 9 59 55 60 9
          50 61 49 1 96 51
          63 5 9 60 21 24
          9 60 21 24 1 49
          26 10 5 63 54 38
          24 21 25 18 24 21
          25 18 10 26 19 7
          51 45 52 63 60 48
          62 21 60 48 62 21
          49 44 8 26 63 52
          47 54 21 62 17 25
          21 62 17 25 26 8
          0 19 6 86 41 39
          12 28 22 27 12 28
          22 27 3 11 30 13
          39 41 40 4 27 22
          29 14 27 22 29 14
          13 30 20 2 86 96
          5 41 28 9 24 22
          28 9 24 22 11 1
          10 30 41 5 38 40
          22 24 18 29 22 24
          18 29 30 10 7 20
          106 57 56 109 96 51
          63 5 109 56 64 85
          5 63 54 38 80 83
          81 82 76 79 31 78
          77 73 86 6 82 81
          28 12 82 81 28 12
          78 31 11 3 83 53
          59 81 79 46 50 31
          73 74 96 86 81 59
          9 28 81 59 9 28
          31 50 1 11 99 100
          97 101 102 98 85 35
          69 105 102 66 104 92
          23 37 104 92 23 37
          41 88 34 42 66 102
          35 70 37 23 33 36
          37 23 33 36 42 34
          43 40 105 109 98 102
          92 87 32 23 92 87
          32 23 88 5 16 34
          102 98 85 35 23 32
          15 33 23 32 15 33
          34 16 38 43 93 91
          92 104 90 95 88 41
          91 94 87 92 95 89
          5 88 72 99 101 71
          66 102 35 70 108 117
          116 110 111 113 91 93
          110 116 105 69 93 91
          92 104 111 113 91 93
          86 112 95 90 117 106
          115 116 113 114 94 91
          113 114 94 91 112 96
          89 95 116 115 109 105
          91 94 87 92
        </DataArray>
        <DataArray type="Int64" Name="offsets" format="ascii" RangeMin="8" RangeMax="376">
          8 16 24 32 40 48
          56 64 72 80 88 96
          104 112 120 128 136 144
          152 160 168 176 184 192
          200 208 216 224 232 240
          248 256 264 272 280 288
          296 304 312 320 328 336
          344 352 360 368 376
        </DataArray>
        <DataArray type="UInt8" Name="types" format="ascii" RangeMin="12" RangeMax="12">
          12 12 12 12 12 12
          12 12 12 12 12 12
          12 12 12 12 12 12
          12 12 12 12 12 12
          12 12 12 12 12 12
          12 12 12 12 12 12
          12 12 12 12 12 12
          12 12 12 12 12
        </DataArray>
      </Cells>
    </Piece>
  </UnstructuredGrid>
</VTKFile>
