<?xml version="1.0"?>
<VTKFile type="UnstructuredGrid" version="0.1" byte_order="LittleEndian" header_type="UInt32" compressor="vtkZLibDataCompressor">
  <UnstructuredGrid>
    <Piece NumberOfPoints="25" NumberOfCells="6">
      <PointData>
        <DataArray type="Float64" Name="Temperature" format="ascii" RangeMin="0" RangeMax="0.5000000009571267">
          0 0 0 0.5000000006302309 0.3750000000436832 0.3750000006221653
          0 0.5000000001407169 0.5000000008815613 0 0.5000000008816428 0.375000000581466
          0.5000000009571267 0 0 0.37500000062965555 0.5000000001112996 0.3750000004136305
          0.3749999999551334 0.3750000001743534 0.5000000003399724 0.500000000695484 0.3750000003696141 0
          0.3750000005673918
        </DataArray>
      </PointData>
      <CellData>
        <DataArray type="UInt8" Name="vtkGhostType" format="ascii" RangeMin="0" RangeMax="1">
          1 0 1 0 1 1
        </DataArray>
      </CellData>
      <Points>
        <DataArray type="Float32" Name="Points" NumberOfComponents="3" format="ascii" RangeMin="0" RangeMax="1.7320508075688772">
          0.5 0 0 1 0 0
          1 0 1 0.5 1 1
          1 0.5 0.5 0 0.5 0
          0 0 0 1 1 0.5
          0 1 1 0 0 0.5
          0.5 1 0 0.5 0.5 0
          0 1 0.5 1 0 0.5
          0.5 0 0.5 0 0.5 0.5
          1 1 1 0.5 0.5 0.5
          1 0.5 1 1 0.5 0
          1 1 0 0.5 1 0.5
          0.5 0.5 1 0.5 0 1
          0 0.5 1
          <InformationKey name="L2_NORM_RANGE" location="vtkDataArray" length="2">
            <Value index="0">
              0
            </Value>
            <Value index="1">
              1.7320508076
            </Value>
          </InformationKey>
        </DataArray>
      </Points>
      <Cells>
        <DataArray type="Int64" Name="connectivity" format="ascii" RangeMin="0" RangeMax="24">
          16 3 21 7 18 22
          17 4 18 22 17 4
          2 23 14 13 3 8
          12 21 22 24 15 17
          4 17 11 19 13 14
          0 1 17 15 5 11
          14 9 6 0 7 21
          10 20 4 17 11 19
        </DataArray>
        <DataArray type="Int64" Name="offsets" format="ascii" RangeMin="8" RangeMax="48">
          8 16 24 32 40 48
        </DataArray>
        <DataArray type="UInt8" Name="types" format="ascii" RangeMin="12" RangeMax="12">
          12 12 12 12 12 12
        </DataArray>
      </Cells>
    </Piece>
  </UnstructuredGrid>
</VTKFile>
