<?xml version="1.0"?>
<VTKFile type="UnstructuredGrid" version="0.1" byte_order="LittleEndian" header_type="UInt32" compressor="vtkZLibDataCompressor">
  <UnstructuredGrid>
    <Piece NumberOfPoints="65" NumberOfCells="21">
      <PointData>
        <DataArray type="Float64" Name="Temperature" format="ascii" RangeMin="0" RangeMax="0.4999999922085888">
          0.49999999216758956 0.49999999219184305 0.49999999216662194 0.46874999248641624 0.4999999921288084 0.4687499924518355
          0.46874999247743204 0.4999999921781806 0.4687499924508523 0.49999999212755086 0.4999999922085888 0.499999992104237
          0.46874999242251864 0.49999999210911983 0.46874999243365584 0 0.46874999244451987 0.49999999208921675
          0.49999999211162666 0.46874999240516946 0.4999999921400036 0.37499999408450635 0.3749999940890547 0.37499999408665713
          0.37499999412354756 0.3749999940929444 0.468749992492594 0.46874999249239274 0.3749999941252597 0.46874999250889643
          0.4687499925017199 0.3749999941328725 0 0.37499999410432716 0.21874999639598205 0.3749999941001178
          0.21874999638914872 0 0.37499999408196794 0 0.3749999940878012 0.21874999637511056
          0.21874999637826192 0 0.3749999940931287 0.21874999638585632 0.21874999637289916 0
          0.46874999243757515 0.37499999409168205 0.49999999207771484 0.46874999241445736 0.49999999210060386 0.37499999405374823
          0.3749999940662046 0.468749992470166 0.4687499924393784 0.4999999921827013 0.4687499924461936 0.4687499924854975
          0.46874999248013705 0.49999999213717156 0.49999999216906976 0.499999992154722 0.49999999211046164
        </DataArray>
      </PointData>
      <CellData>
        <DataArray type="UInt8" Name="vtkGhostType" format="ascii" RangeMin="0" RangeMax="1">
          0 1 1 1 1 1
          1 1 1 1 1 0
          1 0 1 0 1 0
          1 1 1
        </DataArray>
      </CellData>
      <Points>
        <DataArray type="Float32" Name="Points" NumberOfComponents="3" format="ascii" RangeMin="0" RangeMax="1.5">
          0 1 0.5 0 1 0.75
          0.25 1 0.5 0 0.75 0.5
          0 1 0.25 0.25 0.75 0.25
          0.25 0.75 0.5 0.25 1 0.75
          0 0.75 0.25 0.25 1 0.25
          0 1 1 0 1 0
          0 0.75 0 0.25 1 0
          0.25 0.75 0 0.25 0 0
          0.5 0.75 0.25 0.5 1 0
          0.5 1 0.25 0.5 0.75 0
          0.5 1 0.5 0.75 0.5 0.5
          0.5 0.5 0.5 0 0.5 0.5
          0 0.5 0.75 0.25 0.5 0.5
          0.25 0.75 0.75 0 0.75 0.75
          0.25 0.5 0.75 0 0.75 1
          0.25 0.75 1 0.5 0.5 0.75
          0 0 0.25 0 0.5 0.25
          0.25 0.25 0.25 0.25 0.5 0.25
          0 0.25 0.25 0.25 0 0.25
          0 0.5 0 0.5 0 0
          0.25 0.5 0 0 0.25 0
          0.5 0.25 0 0.5 0 0.25
          0.5 0.5 0.25 0.5 0.25 0.25
          0.25 0.25 0 0 0 0
          0.75 0.75 0.25 0.75 0.5 0.25
          0.75 1 0 0.75 0.75 0
          0.75 1 0.25 0.5 0.5 0
          0.75 0.5 0 0.75 0.75 0.75
          0.75 0.75 0.5 0.25 1 1
          0.5 0.75 0.5 0.5 0.75 1
          0.5 0.75 0.75 0.75 1 0.75
          0.5 1 1 0.5 1 0.75
          0.75 1 0.5
          <InformationKey name="L2_NORM_RANGE" location="vtkDataArray" length="2">
            <Value index="0">
              0
            </Value>
            <Value index="1">
              1.5
            </Value>
          </InformationKey>
        </DataArray>
      </Points>
      <Cells>
        <DataArray type="Int64" Name="connectivity" format="ascii" RangeMin="0" RangeMax="64">
          61 63 20 64 55 60
          58 56 64 20 18 52
          56 58 16 48 56 58
          16 48 21 22 44 49
          52 18 17 50 48 16
          19 51 48 16 19 51
          49 44 53 54 62 57
          7 63 59 30 26 60
          63 7 2 20 60 26
          6 58 60 26 6 58
          31 28 25 22 57 10
          1 7 30 29 27 26
          7 1 0 2 26 27
          3 6 26 27 3 6
          28 24 23 25 20 2
          9 18 58 6 5 16
          58 6 5 16 22 25
          35 44 18 9 13 17
          16 5 14 19 16 5
          14 19 44 35 40 53
          2 0 4 9 6 3
          8 5 6 3 8 5
          25 23 33 35 9 4
          11 13 5 8 12 14
          5 8 12 14 35 33
          38 40 45 34 46 42
          43 37 15 39 34 36
          41 46 37 32 47 15
        </DataArray>
        <DataArray type="Int64" Name="offsets" format="ascii" RangeMin="8" RangeMax="168">
          8 16 24 32 40 48
          56 64 72 80 88 96
          104 112 120 128 136 144
          152 160 168
        </DataArray>
        <DataArray type="UInt8" Name="types" format="ascii" RangeMin="12" RangeMax="12">
          12 12 12 12 12 12
          12 12 12 12 12 12
          12 12 12 12 12 12
          12 12 12
        </DataArray>
      </Cells>
    </Piece>
  </UnstructuredGrid>
</VTKFile>
