<?xml version="1.0"?>
<VTKFile type="UnstructuredGrid" version="0.1" byte_order="LittleEndian" header_type="UInt32" compressor="vtkZLibDataCompressor">
  <UnstructuredGrid>
    <Piece NumberOfPoints="22" NumberOfCells="5">
      <PointData>
        <DataArray type="Float64" Name="Temperature" format="ascii" RangeMin="0" RangeMax="0.5000000001745011">
          0 0.3749999999310432 0 0 0 0
          0.3749999999523325 0.3750000000297702 0 0 0.3749999996180464 0
          0.37499999977792003 0.3749999994589445 0 0.3750000003804884 0.3750000000311809 0.4999999998292428
          0.5000000000195395 0.5000000001745011 0.4999999999555893 0.3750000003993483
        </DataArray>
      </PointData>
      <CellData>
        <DataArray type="UInt8" Name="vtkGhostType" format="ascii" RangeMin="1" RangeMax="1">
          1 1 1 1 1
        </DataArray>
      </CellData>
      <Points>
        <DataArray type="Float32" Name="Points" NumberOfComponents="3" format="ascii" RangeMin="0" RangeMax="1.5">
          0 0 0.5 0 0.5 0
          0.5 0 0 0.5 0 0.5
          0 0 0 1 0 0.5
          1 0.5 0.5 0.5 0.5 0.5
          1 0 1 0.5 0 1
          0 0.5 0.5 0 0 1
          0 0.5 1 0.5 0.5 1
          1 0 0 1 0.5 0
          0.5 0.5 0 0 1 0.5
          0 1 0 0.5 1 0
          0.5 1 0.5 1 0.5 1
          <InformationKey name="L2_NORM_RANGE" location="vtkDataArray" length="2">
            <Value index="0">
              0
            </Value>
            <Value index="1">
              1.5
            </Value>
          </InformationKey>
        </DataArray>
      </Points>
      <Cells>
        <DataArray type="Int64" Name="connectivity" format="ascii" RangeMin="0" RangeMax="21">
          21 13 7 6 8 9
          3 5 6 7 16 15
          5 3 2 14 13 12
          10 7 9 11 0 3
          20 17 18 19 7 10
          1 16 7 10 1 16
          3 0 4 2
        </DataArray>
        <DataArray type="Int64" Name="offsets" format="ascii" RangeMin="8" RangeMax="40">
          8 16 24 32 40
        </DataArray>
        <DataArray type="UInt8" Name="types" format="ascii" RangeMin="12" RangeMax="12">
          12 12 12 12 12
        </DataArray>
      </Cells>
    </Piece>
  </UnstructuredGrid>
</VTKFile>
