<?xml version="1.0"?>
<VTKFile type="UnstructuredGrid" version="0.1" byte_order="LittleEndian" header_type="UInt32" compressor="vtkZLibDataCompressor">
  <UnstructuredGrid>
    <Piece NumberOfPoints="44" NumberOfCells="60">
      <PointData>
        <DataArray type="Float64" Name="Density" format="ascii" RangeMin="0.9959776954711197" RangeMax="1.7">
          1.7 1.283749037261362 1.7 1.3026303485357351 1.0198388459123484 1.03494052909062
          1.7 1.305879598768395 0.9959776954711197 1.0341736742659675 1.0049133625807716 1.7
          1.3051640290386186 1.0018264268399464 1.033233947932001 1.0013571721135521 1.7 1.3051280561770071
          1.0333055469673236 1.0015371631519698 1.7 1.3052030192756068 1.0333256611922723 1.0015373228236588
          1.7 1.305676131606517 1.0334770478188595 1.0015201364008375 1.7 1.3068767298959136
          1.0347050054040643 1.001713822058956 1.7 1.3027923493215785 1.0380307827559165 1.003122080546016
          1.7 1.25615753870718 1.0355450487395126 1.0055034722157914 1 1
          1 1
        </DataArray>
        <DataArray type="Float64" Name="Momentum" NumberOfComponents="3" format="ascii" RangeMin="2.888322527549124" RangeMax="4.535233026008696">
          4.4528099999999995 -0.86071 0 3.673195022840222 -0.23759020199366293 0
          4.4528099999999995 -0.86071 0 3.7080097078212226 -0.2556524081125927 0
          2.959724949033875 -0.012490168330342173 0 2.998776549164842 -0.02730021670722177 0
          4.4528099999999995 -0.86071 0 3.7180658695760025 -0.25995594079902784 0
          2.8883186382251456 0.0047399608650496 0 2.998474480525283 -0.026024124177220546 0
          2.9142276347646017 0 0 4.4528099999999995 -0.86071 0
          3.7162408452047058 -0.25894003779816865 0 2.905477661686862 0 0
          2.99567897766023 -0.02474039202045676 0 2.9038921829862145 0 0
          4.4528099999999995 -0.86071 0 3.7160892320366052 -0.2589333361549779 0
          2.995847578223718 -0.024880234117390546 0 2.9044490893905532 0 0
          4.4528099999999995 -0.86071 0 3.716337409528478 -0.2589950999949847 0
          2.9959181508548594 -0.02489609139670922 0 2.9044588350378526 0 0
          4.4528099999999995 -0.86071 0 3.717823168520404 -0.2595862662581781 0
          2.9964197332849927 -0.02498815467135835 0 2.9044046834787136 0 0
          4.4528099999999995 -0.86071 0 3.7205146217319593 -0.2628806969192857 0
          3.000275479163004 -0.025945223887971762 0 2.9050479278747616 0 0
          4.4528099999999995 -0.86071 0 3.7004344489402325 -0.26941170769580086 0
          3.0095860406339643 -0.029440510554615405 0 2.909402956309309 0 0
          4.4528099999999995 -0.86071 0 3.548839956998236 -0.24459963651965552 0
          2.9988715378745234 -0.030411213555419248 0 2.9160594715378774 0 0
          2.9 0 0 2.9 0 0
          2.9 0 0 2.9 0 0
          <InformationKey name="L2_NORM_RANGE" location="vtkDataArray" length="2">
            <Value index="0">
              2.8883225275
            </Value>
            <Value index="1">
              4.535233026
            </Value>
          </InformationKey>
        </DataArray>
        <DataArray type="Float64" Name="Energy" format="ascii" RangeMin="4.901563482678174" RangeMax="7.585636452999999">
          7.585636452999999 6.36799448056571 7.585636452999999 6.423416238089105 5.03042386454332 5.101536542306675
          7.585636452999999 6.443439491192989 4.901563482678174 5.101119813868608 4.9495967574483215 7.585636452999999
          6.439939917450909 4.93285640286871 5.095567753572277 4.929717289209231 7.585636452999999 6.439653136902239
          5.095944700438793 4.930906395565173 7.585636452999999 6.440151971177765 5.096075657533449 4.9309214087298905
          7.585636452999999 6.443317349321282 5.097072905960324 4.930812424822653 7.585636452999999 6.449787342566846
          5.104798597097485 4.93207508617734 7.585636452999999 6.411669716688562 5.123489259536781 4.94045636217758
          7.585636452999999 6.114881286171233 5.104066371625656 4.952817698094021 4.923 4.923
          4.923 4.923
        </DataArray>
        <DataArray type="Float64" Name="DERPR" format="ascii" RangeMin="-3.787341463414633" RangeMax="1.884723201970903">
          1.884723201970903 1.1649304280330084 1.8190451653267772 1.2982930985615744 0.3541931422615848 0.4233135661106668
          1.8017945012801406 1.2598700301032704 0.11488306724169293 0.38742723017510505 0.11753026377068375 1.8051935060420687
          1.2518346403651195 0.0707000824128145 0.3856948555686046 0.0723959115723965 1.8054701785404959 1.2538713842404992
          0.3886179653361187 0.07509863405908607 1.8057616483470011 1.25561483340491 0.3890597479889698 0.07469369813358107
          1.8022651239147807 1.260010453185245 0.3940163549439082 0.07575913608605041 1.770631733428224 1.244959790051013
          0.40846872649480465 0.08407699932915227 1.6754595735350672 1.0933499028665215 0.3964868421558012 0.10134829017419904
          -0.5577384644499381 0.4349964736221649 0.20733884894307897 0.07390728891227703 -3.787341463414633 -1.7013610378200354
          -0.47409053157990366 -0.09454294268128693
        </DataArray>
        <DataArray type="Float64" Name="MORPR" NumberOfComponents="3" format="ascii" RangeMin="0.21021830433884642" RangeMax="10.896803247440682">
          4.433800512420958 -2.0133084358013056 0 3.1539091796045367 -1.0065042468905099 0
          4.315440735933808 -1.9329073099576903 0 3.5241491257603528 -1.0656649735123411 0
          1.0247924508783741 -0.25795642952039255 0 1.2083390847872422 -0.319541631032086 0
          4.263639601665913 -1.9128372296754168 0 3.450502327920977 -1.0179604606888044 0
          0.34351923258369876 -0.059573111734164824 0 1.1295333531420269 -0.2684925181127927 0
          0.33928998683429346 -0.08128920679962434 0 4.272538830664165 -1.917409168249532 0
          3.424733557770694 -1.0080802662516382 0 0.20706050841925194 -0.037589003029694985 0
          1.1195764391496599 -0.26665514179240074 0 0.20883174684487402 -0.03769256015202902 0
          4.273567441459239 -1.9174921728849879 0 3.430432074076892 -1.0108267776362758 0
          1.1284428048363881 -0.2710460251865516 0 0.2180005332236551 -0.04058005605135205 0
          4.274788277783201 -1.9177098440568883 0 3.4362012352314384 -1.0125620024485869 0
          1.1300614860785543 -0.27102450970873504 0 0.21667705671449045 -0.040239294680527456 0
          4.2649220637243035 -1.9175318302056608 0 3.4482711946849354 -1.0222660720177856 0
          1.1460565178558275 -0.27460589820071757 0 0.22018392486533514 -0.04058794821251577 0
          4.167364021777021 -1.9068096870441495 0 3.382468609942487 -1.0404603431533943 0
          1.188785746335998 -0.28899493625621975 0 0.24657649648310134 -0.043881966197316165 0
          3.8683273775163047 -1.8786921648041843 0 2.87358237407635 -0.9592823388506432 0
          1.134832580830655 -0.29646155828752413 0 0.2967179137869046 -0.05363080011607231 0
          -1.4021787010387983 0.8870350477553586 0 1.0708799528596658 -0.273672626412519 0
          0.5573406944789377 -0.15091330181898385 0 0.20467154956131353 -0.04797178628392564 0
          -8.73206528582982 6.518539472722365 0 -4.009468836796178 3.03240236796771 0
          -1.2949766876640312 0.5871935792266949 0 -0.28465793571580106 0.08484796950392817 0
          <InformationKey name="L2_NORM_RANGE" location="vtkDataArray" length="2">
            <Value index="0">
              0.21021830434
            </Value>
            <Value index="1">
              10.896803247
            </Value>
          </InformationKey>
        </DataArray>
        <DataArray type="Float64" Name="ENRPR" format="ascii" RangeMin="-16.460213667817335" RangeMax="8.037341169501302">
          8.037341169501302 5.888126313779256 7.841621168993655 6.578498611706937 1.8693406239916426 2.1855603836700537
          7.738920946736585 6.453623056417658 0.6387714178520287 2.0360975714872014 0.6230283530533692 7.756346353419201
          6.401474215307346 0.3660610341145366 2.0161872598891915 0.3728697738871232 7.758324061711305 6.41275634196351
          2.0343124535141572 0.39223850557639556 7.7610698963776334 6.42485757996504 2.0373055936140374 0.3890172974165015
          7.743779990880784 6.453136784494508 2.0694820211397147 0.3959280471659655 7.556817029332963 6.3318733319285405
          2.1565125804264325 0.44749859154583116 6.981706850553246 5.325233114184106 2.056620443748378 0.5435860747283212
          -2.4333650803486315 1.868619120814133 0.9506594218301881 0.36535608555671856 -16.460213667817335 -7.871047751625804
          -2.589938603408822 -0.5544719918180684
        </DataArray>
      </PointData>
      <CellData>
        <DataArray type="UInt8" Name="vtkGhostType" format="ascii" RangeMin="0" RangeMax="0">
          0 0 0 0 0 0
          0 0 0 0 0 0
          0 0 0 0 0 0
          0 0 0 0 0 0
          0 0 0 0 0 0
          0 0 0 0 0 0
          0 0 0 0 0 0
          0 0 0 0 0 0
          0 0 0 0 0 0
          0 0 0 0 0 0
        </DataArray>
        <DataArray type="Float64" Name="sgvis" format="ascii" RangeMin="0.37236907135187564" RangeMax="0.4871365252612515">
          0.4864652831503258 0.48412101709836863 0.48675785502470126 0.48224181194817717 0.48681593366771525 0.483011508267326
          0.48678955550564806 0.48333285563677775 0.4867842075100426 0.4833802239936673 0.48678402488862116 0.4833844584592566
          0.486792376712201 0.48339626847570794 0.4867612385383373 0.4833055736872608 0.4866761382578305 0.4831531231222288
          0.4871365252612515 0.48400891147851177 0.47973695151328566 0.46979457868183994 0.481166090423364 0.44618820526181646
          0.48195999266010003 0.4484160404879861 0.48202623340988715 0.44982908838188906 0.48200569645436997 0.4500877208734262
          0.48200230487619167 0.4501085217270967 0.4820073588163014 0.45010977128132845 0.48196339632791796 0.45007222029237914
          0.4820954851975239 0.45023845502473614 0.4829422139731929 0.45073371636506476 0.45638028807232256 0.45462579813273296
          0.452151241032377 0.37236907135187564 0.454053901883383 0.3730852950479683 0.4546395649849352 0.3735688332069326
          0.454678253836845 0.3736962056491823 0.45467200215996595 0.37371303363530617 0.45467250061207565 0.3737147805366754
          0.45465306521067284 0.3737181095541058 0.4547515098609223 0.3736612319111364 0.4549172172754995 0.3738384589515972
        </DataArray>
        <DataArray type="Float64" Name="sgtco" format="ascii" RangeMin="0.37236907135187564" RangeMax="0.4871365252612515">
          0.4864652831503258 0.48412101709836863 0.48675785502470126 0.48224181194817717 0.48681593366771525 0.483011508267326
          0.48678955550564806 0.48333285563677775 0.4867842075100426 0.4833802239936673 0.48678402488862116 0.4833844584592566
          0.486792376712201 0.48339626847570794 0.4867612385383373 0.4833055736872608 0.4866761382578305 0.4831531231222288
          0.4871365252612515 0.48400891147851177 0.47973695151328566 0.46979457868183994 0.481166090423364 0.44618820526181646
          0.48195999266010003 0.4484160404879861 0.48202623340988715 0.44982908838188906 0.48200569645436997 0.4500877208734262
          0.48200230487619167 0.4501085217270967 0.4820073588163014 0.45010977128132845 0.48196339632791796 0.45007222029237914
          0.4820954851975239 0.45023845502473614 0.4829422139731929 0.45073371636506476 0.45638028807232256 0.45462579813273296
          0.452151241032377 0.37236907135187564 0.454053901883383 0.3730852950479683 0.4546395649849352 0.3735688332069326
          0.454678253836845 0.3736962056491823 0.45467200215996595 0.37371303363530617 0.45467250061207565 0.3737147805366754
          0.45465306521067284 0.3737181095541058 0.4547515098609223 0.3736612319111364 0.4549172172754995 0.3738384589515972
        </DataArray>
        <DataArray type="Float64" Name="MOSGS" NumberOfComponents="3" format="ascii" RangeMin="0" RangeMax="0.2748460695713724">
          6.94425179557363e-310 6.94425179557363e-310 4.64026360170723e-310 -0.0038325477482546045 0.0012195925785244038 0
          -0.01413792166335677 0.0020437775918939072 0 -0.01247834156217422 0.004443771488833751 0
          -0.020774114558251393 0.005956781391238956 0 -0.014407903546161246 0.004190377257535561 0
          -0.025439236744293704 0.007369370173543904 0 -0.01390484285771571 0.0039104111497144205 0
          -0.027193208677191147 0.007715259460590558 0 -0.013641735119827534 0.0038551534070835943 0
          -0.027195637484283934 0.007688011114708934 0 -0.01361982701737306 0.0038601608857236403 0
          -0.027110121292551737 0.007670983863224528 0 -0.013326116666145133 0.0037776324575907677 0
          -0.026963446853946763 0.007596120771105821 0 -0.013390337942327028 0.0037028729864680334 0
          -0.027735319491748935 0.007864944203431227 0 -0.01812782734153019 0.005101879396929476 0
          -0.028211583437138036 0.008722075839471446 0 -0.010801144079450048 0.003532257311151718 0
          -0.015124540416778959 0.003963189609172476 0 0.039884559000985274 -0.010193001934887563 0
          -0.14478391827124157 0.03573894645916745 0 0.005813270177872681 0.0024392529024946305 0
          -0.049642677387716494 0.010861631015372047 0 -0.004325950379454055 0.0046906581233007675 0
          -0.04766164174578867 0.01592738929905625 0 -0.006690136732159617 0.004846713626606571 0
          -0.05028250352162239 0.017870494554058734 0 -0.006628807651166196 0.004728794032758149 0
          -0.05128232265223365 0.018141848693445622 0 -0.006509026583472249 0.0046989244152164066 0
          -0.05130297612454768 0.018120068098256812 0 -0.006219047264416222 0.004574105979182585 0
          -0.05124405141515094 0.01808207309837127 0 -0.007456562203624721 0.004992111989016029 0
          -0.05194130943035773 0.018391433816154778 0 -0.0122968731103047 0.0074923108337530435 0
          -0.050382973839154924 0.018127868534698485 0 0.006471332736688781 0.0005739630832424076 0
          -0.038899201745619644 0.010844447955590487 0 0.14353204941578993 -0.07870634979131363 0
          -0.2320668937832175 0.14725935884907462 0 0.07267038169048648 -0.026988023304933974 0
          0.15595239107629755 -0.07577506239785607 0 0.07453197214216697 -0.021278805779591563 0
          0.032381777509152165 -0.013184626344192499 0 0.07364440290586469 -0.019603545747300593 0
          0.02481378637609837 -0.013131604417552688 0 0.07292314030745516 -0.019393809542715225 0
          0.02440129912290332 -0.01374530328822635 0 0.07291197686976059 -0.019423174324515388 0
          0.024669209706011413 -0.013913993917821613 0 0.07298714909696036 -0.01946917580386771 0
          0.024744392762994664 -0.013932992971340135 0 0.0718980721343098 -0.01904135803318884 0
          0.024956856424354745 -0.014023678051918155 0 0.07434008552669383 -0.019427169646422236 0
          0.023757824896062322 -0.013626827598281871 0 0.0956443270522339 -0.03057064195199813 0
          0.019392065594773356 -0.011635340237415012 0
          <InformationKey name="L2_NORM_RANGE" location="vtkDataArray" length="2">
            <Value index="0">
              0
            </Value>
            <Value index="1">
              0.27484606957
            </Value>
          </InformationKey>
        </DataArray>
        <DataArray type="Float64" Name="CORES" format="ascii" RangeMin="-3.7873414634146334" RangeMax="1.9542734467622878">
          0.05206420701431201 -0.2411500923768859 0.10455694349250863 0.06510071623001037 0.08845770001955078 0.11103022701053766
          0.07653336028137048 0.08723993768653557 0.07455620468544577 0.07618784329133498 0.07466447968770495 0.0748604100275925
          0.07557949178675383 0.07505193070279939 0.07420535911780846 0.06740288381262718 0.06055926056114734 0.07733562755948768
          0.11488306724169295 0.17714846350921104 0.40141504800279465 -1.5825364804835018 0.6937805138812552 0.27282247710651764
          0.7335149634472238 0.6709374162415344 0.7131984522406727 0.7173707969608696 0.7035202571162626 0.7074179964209526
          0.7023312940495661 0.7029021962912372 0.703010017699933 0.7017893774660497 0.6949770098354984 0.6981475178589939
          0.6843196844254136 0.7263225332985048 0.7705477711274495 0.769970303012145 0.2657947947906587 -3.7873414634146334
          1.4041523910289389 1.8483312752741603 1.7445120573916189 1.7738950543021024 1.8099359015907872 1.793488088590951
          1.808768682948866 1.8033713815626031 1.8059354830238714 1.8051448805295331 1.8049402789216216 1.805330172068083
          1.7978110788747692 1.8053100671364999 1.8397001809716613 1.8022623578291515 1.9542734467622878 1.8151729571795174
        </DataArray>
        <DataArray type="Float64" Name="MORES" NumberOfComponents="3" format="ascii" RangeMin="0.15123080352029233" RangeMax="10.654931778782696">
          0.14378651485082014 -0.046863568797608064 0 -0.7128265797669164 0.21488463854302436 0
          0.3045125337619122 -0.048625451899487006 0 0.16491694900273518 -0.054321901590940455 0
          0.2601124567901219 -0.04356483779751519 0 0.3252115838114169 -0.07412984507866102 0
          0.22272104666490095 -0.04171681343791622 0 0.2567550824832001 -0.050918076663116235 0
          0.2161432103508662 -0.04146899859428925 0 0.22153582361573454 -0.04289365572778048 0
          0.21656483027401796 -0.041439026550758255 0 0.21716136306040124 -0.04209964234009167 0
          0.21974404673024472 -0.04161414569230458 0 0.21753058714931506 -0.0429492142560094 0
          0.213076977808339 -0.042771649133776644 0 0.193562056527688 -0.03305912406403724 0
          0.172669979422434 -0.040746099631787804 0 0.23510133564482116 -0.03427792781990319 0
          0.3435682300854007 -0.06043037098200524 0 0.5011843899719619 -0.1460875507959685 0
          1.1192300041278116 -0.27977354184312503 0 -4.310961034265178 1.7148030819784923 0
          1.960812119374813 -0.5782637171813794 0 0.5700749740700264 -0.3598719369103798 0
          2.1073948441164383 -0.5940117820505062 0 1.843250604741896 -0.6625196287166428 0
          2.049800788000298 -0.5705966631376536 0 2.0371496768496193 -0.6387714754710632 0
          2.0186008573244734 -0.5630745983911649 0 2.0129035984720463 -0.6148895050783096 0
          2.0146254358215687 -0.5623831650740141 0 1.9985459027275492 -0.6098980954854092 0
          2.0164052291872054 -0.5635907761468273 0 1.994678619653559 -0.6092836177706937 0
          1.9912044951289523 -0.5534426116460756 0 1.9850830141922953 -0.6024897359239996 0
          1.9740708950135586 -0.5408492195998271 0 2.0748234778876866 -0.6394323799472239 0
          2.2059020245776777 -0.6357892641550711 0 2.085213467568755 -0.7198543262323062 0
          0.5789312203628784 0.11964064466821944 0 -8.73937845401315 6.095148517308182 0
          3.3589708564573284 -1.3344548343319778 0 4.603009667980338 -1.8365541681798605 0
          4.449292641195827 -1.5748262864681326 0 4.399573817437979 -1.7024067201840305 0
          4.695858114207036 -1.5610735035910146 0 4.444036513177596 -1.7154069134674246 0
          4.697596983607336 -1.542751600954944 0 4.470527176226481 -1.7246159683612434 0
          4.688329944731317 -1.5389123303204209 0 4.475613954566 -1.7264877152862064 0
          4.684798237182951 -1.538404183269743 0 4.476180120774567 -1.7266832434010606 0
          4.665568927886416 -1.5289227613342133 0 4.476034796350808 -1.7267799099024348 0
          4.794383782804798 -1.5754466386983847 0 4.467675083612319 -1.7237506113075018 0
          4.993610722772391 -1.718300082477673 0 4.506513189068712 -1.732291762589673 0
          <InformationKey name="L2_NORM_RANGE" location="vtkDataArray" length="2">
            <Value index="0">
              0.15123080352
            </Value>
            <Value index="1">
              10.654931779
            </Value>
          </InformationKey>
        </DataArray>
        <DataArray type="Float64" Name="ENRES" format="ascii" RangeMin="-16.11558164111736" RangeMax="9.18766808389584">
          0.2460100381202645 -1.3524275453954457 0.554462878386586 0.2983413088922414 0.47388977223536133 0.60599524071416
          0.4018345055354873 0.46995791027972456 0.3889128585211602 0.39993002291607715 0.3897474056306195 0.391226456918249
          0.3971884905334594 0.39257907887333066 0.3809792004479872 0.3435238629242709 0.29897140308176057 0.4214009615578035
          0.6394825988131593 0.9315549984986609 2.0127090513407957 -8.341401702179557 3.612227698249889 0.9055830423587492
          3.891251819321516 3.4367248127446204 3.7715684900761515 3.8107770156252503 3.7080788503173014 3.7537226376622304
          3.7000362393243016 3.723447655924688 3.70403748543261 3.7158912393177044 3.6529163625928236 3.6960239304324007
          3.621403186565087 3.8779712294716377 4.068802599062012 3.8568166779999435 0.7127202821568243 -16.11558164111736
          6.019494404765826 8.46693619228472 8.203008627134073 8.048815007668649 8.680717429407787 8.127516747479554
          8.674048132907906 8.178537962400807 8.65354734736518 8.188642314317805 8.646617397662737 8.189774546229371
          8.608835510133863 8.189540994423497 8.864185925070114 8.17344901124521 9.18766808389584 8.247050203283262
        </DataArray>
      </CellData>
      <Points>
        <DataArray type="Float32" Name="Points" NumberOfComponents="3" format="ascii" RangeMin="0" RangeMax="4.2201894765504395">
          4.099999904632568 1 0 4.099999904632568 0.6666666865348816 0
          3.690000057220459 1 0 3.690000057220459 0.6666666865348816 0
          4.099999904632568 0.3333333134651184 0 3.690000057220459 0.3333333134651184 0
          3.2799999713897705 1 0 3.2799999713897705 0.6666666865348816 0
          4.099999904632568 0 0 3.2799999713897705 0.3333333134651184 0
          3.690000057220459 0 0 2.869999885559082 1 0
          2.869999885559082 0.6666666865348816 0 3.2799999713897705 0 0
          2.869999885559082 0.3333333134651184 0 2.869999885559082 0 0
          2.4600000381469727 1 0 2.4600000381469727 0.6666666865348816 0
          2.4600000381469727 0.3333333134651184 0 2.4600000381469727 0 0
          2.049999952316284 1 0 2.049999952316284 0.6666666865348816 0
          2.049999952316284 0.3333333134651184 0 2.049999952316284 0 0
          1.6399999856948853 1 0 1.6399999856948853 0.6666666865348816 0
          1.6399999856948853 0.3333333134651184 0 1.6399999856948853 0 0
          1.2300000190734863 1 0 1.2300000190734863 0.6666666865348816 0
          1.2300000190734863 0.3333333134651184 0 1.2300000190734863 0 0
          0.8199999928474426 1 0 0.8199999928474426 0.6666666865348816 0
          0.8199999928474426 0.3333333134651184 0 0.8199999928474426 0 0
          0.4099999964237213 1 0 0.4099999964237213 0.6666666865348816 0
          0.4099999964237213 0.3333333134651184 0 0.4099999964237213 0 0
          0 1 0 0 0.6666666865348816 0
          0 0.3333333134651184 0 0 0 0
          <InformationKey name="L2_NORM_RANGE" location="vtkDataArray" length="2">
            <Value index="0">
              0
            </Value>
            <Value index="1">
              4.2201894766
            </Value>
          </InformationKey>
        </DataArray>
      </Points>
      <Cells>
        <DataArray type="Int64" Name="connectivity" format="ascii" RangeMin="0" RangeMax="43">
          39 38 43 38 42 43
          35 34 39 34 38 39
          31 30 35 30 34 35
          27 26 31 26 30 31
          23 22 27 22 26 27
          19 18 23 18 22 23
          15 14 19 14 18 19
          13 9 15 9 14 15
          10 5 13 5 9 13
          8 4 10 4 5 10
          38 37 42 37 41 42
          34 33 38 33 37 38
          30 29 34 29 33 34
          26 25 30 25 29 30
          22 21 26 21 25 26
          18 17 22 17 21 22
          14 12 18 12 17 18
          9 7 14 7 12 14
          5 3 9 3 7 9
          4 1 5 1 3 5
          37 36 41 36 40 41
          33 32 37 32 36 37
          29 28 33 28 32 33
          25 24 29 24 28 29
          21 20 25 20 24 25
          17 16 21 16 20 21
          12 11 17 11 16 17
          7 6 12 6 11 12
          3 2 7 2 6 7
          1 0 3 0 2 3
        </DataArray>
        <DataArray type="Int64" Name="offsets" format="ascii" RangeMin="3" RangeMax="180">
          3 6 9 12 15 18
          21 24 27 30 33 36
          39 42 45 48 51 54
          57 60 63 66 69 72
          75 78 81 84 87 90
          93 96 99 102 105 108
          111 114 117 120 123 126
          129 132 135 138 141 144
          147 150 153 156 159 162
          165 168 171 174 177 180
        </DataArray>
        <DataArray type="UInt8" Name="types" format="ascii" RangeMin="5" RangeMax="5">
          5 5 5 5 5 5
          5 5 5 5 5 5
          5 5 5 5 5 5
          5 5 5 5 5 5
          5 5 5 5 5 5
          5 5 5 5 5 5
          5 5 5 5 5 5
          5 5 5 5 5 5
          5 5 5 5 5 5
          5 5 5 5 5 5
        </DataArray>
      </Cells>
    </Piece>
  </UnstructuredGrid>
</VTKFile>
