<?xml version="1.0"?>
<VTKFile type="UnstructuredGrid" version="0.1" byte_order="LittleEndian" header_type="UInt32" compressor="vtkZLibDataCompressor">
  <UnstructuredGrid>
    <Piece NumberOfPoints="44" NumberOfCells="60">
      <PointData>
        <DataArray type="Float64" Name="Density" format="ascii" RangeMin="0.9972723465702319" RangeMax="1.7">
          1.7 1.179968901765257 1.7 1.202849244388624 1.0022028070200917 1.013146141766193
          1.7 1.204917838651093 0.9972723465702319 1.0122950736683245 1.0012628686155858 1.7
          1.2044039292120041 1.0000401295970163 1.0118827695412909 0.9999373969579941 1.7 1.2044127838978413
          1.0119257837273434 0.9999839119460848 1.7 1.204416632878454 1.011927416072503 0.9999834167935344
          1.7 1.2044872244822082 1.0119256370101284 0.9999785909891138 1.7 1.2053252329156359
          1.0120893643029616 0.9999727928240391 1.7 1.2074564964574412 1.0136992959582887 1.0001593436342098
          1.7 1.195777596163306 1.0163158144616184 1.00141989709163 1 1
          1 1
        </DataArray>
        <DataArray type="Float64" Name="Momentum" NumberOfComponents="3" format="ascii" RangeMin="2.8919426509189585" RangeMax="4.535233026008696">
          4.4528099999999995 -0.86071 0 3.3934479388610694 -0.1455524750386627 0
          4.4528099999999995 -0.86071 0 3.443080151759916 -0.16884781297544024 0
          2.9073823272188966 -0.00028659672534600436 0 2.9372822014646958 -0.010248576170218559 0
          4.4528099999999995 -0.86071 0 3.4496381098817457 -0.17120221337200198 0
          2.891941771787772 0.0022549485967863327 0 2.9355249570667903 -0.009202376485206696 0
          2.9038092248856855 0 0 4.4528099999999995 -0.86071 0
          3.448185018150265 -0.1705999370893121 0 2.900143396965045 0 0
          2.9342689706594243 -0.008678658463473595 0 2.8998018620788293 0 0
          4.4528099999999995 -0.86071 0 3.448202027293924 -0.17061885481818265 0
          2.934395849465502 -0.008735846843161497 0 2.8999532047354664 0 0
          4.4528099999999995 -0.86071 0 3.4482146585685935 -0.17062050717143554 0
          2.934401740800804 -0.008737040698437126 0 2.8999523554519557 0 0
          4.4528099999999995 -0.86071 0 3.448445716114189 -0.17068157006071863 0
          2.9343970322719506 -0.008734459741846968 0 2.899936333432798 0 0
          4.4528099999999995 -0.86071 0 3.4509298005011595 -0.1718319302916863 0
          2.9349264208655965 -0.008843187385872534 0 2.899921043771284 0 0
          4.4528099999999995 -0.86071 0 3.4545905190757824 -0.1781096515464419 0
          2.9397880978439606 -0.010230761436274865 0 2.900518350441256 0 0
          4.4528099999999995 -0.86071 0 3.4066093922181433 -0.18324776008357582 0
          2.946292995024305 -0.013622057731594537 0 2.904269117442709 0 0
          2.9 0 0 2.9 0 0
          2.9 0 0 2.9 0 0
          <InformationKey name="L2_NORM_RANGE" location="vtkDataArray" length="2">
            <Value index="0">
              2.8919426509
            </Value>
            <Value index="1">
              4.535233026
            </Value>
          </InformationKey>
        </DataArray>
        <DataArray type="Float64" Name="Energy" format="ascii" RangeMin="4.908207147077451" RangeMax="7.585636452999999">
          7.585636452999999 5.844459688968599 7.585636452999999 5.93127388085113 4.934537126561069 4.990099953500948
          7.585636452999999 5.9439037980803064 4.908207147077451 4.986427597261073 4.930428881306957 7.585636452999999
          5.941107828975141 4.923267541043335 4.983925686038072 4.922572880153091 7.585636452999999 5.941151466589976
          4.984196815056587 4.9229054446930425 7.585636452999999 5.941172564361385 4.984206133029125 4.922901880383175
          7.585636452999999 5.941640889289442 4.9841954650889235 4.9228700286249945 7.585636452999999 5.9468798372324425
          4.98524281370556 4.922841611807013 7.585636452999999 5.955441893917531 4.994862432389523 4.923997740596399
          7.585636452999999 5.8626621461588995 5.007845001082356 4.9310773969595205 4.923 4.923
          4.923 4.923
        </DataArray>
        <DataArray type="Float64" Name="DERPR" format="ascii" RangeMin="-3.787341463414633" RangeMax="2.171056867932856">
          2.171056867932856 1.1240341626249863 2.0785640412701345 1.3340087790741468 0.21632201882416674 0.28764764053755626
          2.0679444676878203 1.282039026641546 0.036569644284747405 0.25491836885778646 0.054015528765684995 2.070325306606421
          1.2766107048905095 0.02396665948176866 0.2545206261078999 0.02538394107873736 2.070282259548397 1.2779973467033274
          0.256062513937224 0.026375860601583277 2.0703954742802573 1.278188230107985 0.2559288115149962 0.026201004058291847
          2.070954717282805 1.2809372253126965 0.25655916388328315 0.026176678079535744 2.0633328878689623 1.2877924751144174
          0.26355643151873726 0.027324418946004153 2.0036540948641313 1.2463424758878263 0.2786689547557704 0.03679231534319358
          -0.3194000937951322 0.7186831627181317 0.21359920537886512 0.04234199181694273 -3.787341463414633 -1.4087399387959547
          -0.31752506932472385 -0.041228024123950206
        </DataArray>
        <DataArray type="Float64" Name="MORPR" NumberOfComponents="3" format="ascii" RangeMin="0.07056605655203327" RangeMax="10.90594607477105">
          5.20959982510028 -2.364988750028405 0 3.1032309691458004 -0.8905689706466317 0
          4.999905441053768 -2.2536745269861047 0 3.6837932224881293 -1.0116626866950176 0
          0.6326607069332908 -0.15462525533468055 0 0.8238726837909642 -0.21496869173175578 0
          4.967242838704803 -2.24305046519419 0 3.5639714992564584 -0.9469728117277738 0
          0.1126796773670219 -0.01866148037529558 0 0.7438957451431941 -0.1694042312443936 0
          0.15863297919427996 -0.039825445789419024 0 4.9740038808284135 -2.245831048337006 0
          3.5462090897914873 -0.941614455215516 0 0.0694898905510732 -0.01227694784971514 0
          0.7406051143349509 -0.16942942221898655 0 0.07319762438714987 -0.012986391692867527 0
          4.973907514288526 -2.2457322540336326 0 3.5503160153361435 -0.9432172874929475 0
          0.7454583568197362 -0.1714124956827673 0 0.07659579770757075 -0.014165713162734801 0
          4.974295699856127 -2.2457786336682544 0 3.550975540545534 -0.9433156785707175 0
          0.7450416486224622 -0.1712302953200718 0 0.07598308902276942 -0.014032376916313488 0
          4.976521547396817 -2.2464497908445447 0 3.55962602333022 -0.9465643440944282 0
          0.7471131683455402 -0.17162660795745588 0 0.0759100440111999 -0.014025371748916828 0
          4.954003363043344 -2.2459739232583895 0 3.5753285410389215 -0.9652470325305984 0
          0.7690376086689134 -0.17726825556297826 0 0.07964178442801728 -0.014454556442796444 0
          4.757002895997893 -2.242777643535259 0 3.41223863481778 -0.9820922657933943 0
          0.8100079226634824 -0.1955464353964429 0 0.10884033344347559 -0.019218257023140294 0
          -0.807610286539957 0.616502721980406 0 1.9014309769469542 -0.5008002556352933 0
          0.5988322848594604 -0.15822676153674115 0 0.12177700502965838 -0.027707515426163745 0
          -8.739078784684928 6.524428080750365 0 -3.2631121213663827 2.6845116281670496 0
          -0.8842036079173142 0.38857746257806575 0 -0.1268604440521404 0.03751579361017875 0
          <InformationKey name="L2_NORM_RANGE" location="vtkDataArray" length="2">
            <Value index="0">
              0.070566056552
            </Value>
            <Value index="1">
              10.905946075
            </Value>
          </InformationKey>
        </DataArray>
        <DataArray type="Float64" Name="ENRPR" format="ascii" RangeMin="-16.490177895938068" RangeMax="9.563105468670424">
          9.563105468670424 5.758000909398247 9.177353713123395 6.831834616225608 1.1552008340578914 1.48900207278005
          9.114296983751235 6.608184206004923 0.21385992860145261 1.3296240810503832 0.29665585168418895 9.127550363193764
          6.5737325905240285 0.12062539337955687 1.3245634426607586 0.13066386926620488 9.127306096634905 6.581820745703682
          1.3344379246672247 0.1379329779051189 9.128081915856297 6.583110996325184 1.3335094542849166 0.13651035191732128
          9.133062473981502 6.601305979269956 1.337604366912247 0.13637603583942667 9.092205794949182 6.63898562934528
          1.3812128190224575 0.14366542984577574 8.716134833038877 6.330980704827404 1.463515087293928 0.20009413739531448
          -1.325207415836935 3.4366076193205255 1.061394819945049 0.22354855765713366 -16.490177895938068 -6.463578268393752
          -1.7941817087520338 -0.24666932654815626
        </DataArray>
      </PointData>
      <CellData>
        <DataArray type="UInt8" Name="vtkGhostType" format="ascii" RangeMin="0" RangeMax="0">
          0 0 0 0 0 0
          0 0 0 0 0 0
          0 0 0 0 0 0
          0 0 0 0 0 0
          0 0 0 0 0 0
          0 0 0 0 0 0
          0 0 0 0 0 0
          0 0 0 0 0 0
          0 0 0 0 0 0
          0 0 0 0 0 0
        </DataArray>
        <DataArray type="Float64" Name="sgvis" format="ascii" RangeMin="0.3758323230033752" RangeMax="0.4870846367678049">
          0.48680123113583995 0.4856199605149858 0.48691164946409227 0.48515969908487633 0.48690303827180104 0.48561748542132666
          0.48689875162175256 0.4857078177945503 0.48689914447304394 0.4857123337912147 0.4868989650264236 0.4857123692223655
          0.4869007891402083 0.48571712562269453 0.48689090169589333 0.4856781224147779 0.48686401082826003 0.4855773452589648
          0.4870846367678049 0.4862484778038715 0.4824598896496194 0.4728524937662433 0.4838296974208801 0.4581845744862916
          0.4840755000237704 0.46092236137543263 0.4840638620139076 0.46157682372572884 0.4840606286281789 0.46163418103333365
          0.48406067428999655 0.4616353281035458 0.48406240992101 0.4616366663323034 0.48404548019444327 0.46160738677573376
          0.4841359962827566 0.46175082840479054 0.4848423961127162 0.4627634510940416 0.457618643862705 0.4546970746602331
          0.456462561178404 0.3758323230033752 0.4577902828674877 0.37736990841134666 0.45796481151055723 0.3776826106675503
          0.45796426283333147 0.3777260043667322 0.45796349224960087 0.37772846121836523 0.4579645158797102 0.37772850116409046
          0.45795458696262714 0.37773064097986087 0.45801390895146865 0.37769974177511945 0.45827415942038463 0.37776590906205065
        </DataArray>
        <DataArray type="Float64" Name="sgtco" format="ascii" RangeMin="0.3758323230033752" RangeMax="0.4870846367678049">
          0.48680123113583995 0.4856199605149858 0.48691164946409227 0.48515969908487633 0.48690303827180104 0.48561748542132666
          0.48689875162175256 0.4857078177945503 0.48689914447304394 0.4857123337912147 0.4868989650264236 0.4857123692223655
          0.4869007891402083 0.48571712562269453 0.48689090169589333 0.4856781224147779 0.48686401082826003 0.4855773452589648
          0.4870846367678049 0.4862484778038715 0.4824598896496194 0.4728524937662433 0.4838296974208801 0.4581845744862916
          0.4840755000237704 0.46092236137543263 0.4840638620139076 0.46157682372572884 0.4840606286281789 0.46163418103333365
          0.48406067428999655 0.4616353281035458 0.48406240992101 0.4616366663323034 0.48404548019444327 0.46160738677573376
          0.4841359962827566 0.46175082840479054 0.4848423961127162 0.4627634510940416 0.457618643862705 0.4546970746602331
          0.456462561178404 0.3758323230033752 0.4577902828674877 0.37736990841134666 0.45796481151055723 0.3776826106675503
          0.45796426283333147 0.3777260043667322 0.45796349224960087 0.37772846121836523 0.4579645158797102 0.37772850116409046
          0.45795458696262714 0.37773064097986087 0.45801390895146865 0.37769974177511945 0.45827415942038463 0.37776590906205065
        </DataArray>
        <DataArray type="Float64" Name="MOSGS" NumberOfComponents="3" format="ascii" RangeMin="0" RangeMax="0.2874116045970475">
          6.9442517955839e-310 6.9442517955839e-310 4.6402636013262e-310 -0.005482300992884095 0.001654783098875678 0
          -0.005774371713126018 0.00029524413149026687 0 -0.008932185428087394 0.002577204815503375 0
          -0.013637202250930085 0.0037073663996687175 0 -0.00871129638860995 0.0022645347656197784 0
          -0.016699037785945902 0.004423175994214511 0 -0.008391135476767378 0.00218702240358359 0
          -0.01681639008628971 0.004395303045658425 0 -0.008351621385609463 0.0021826367004790805 0
          -0.016707772610168103 0.004364932813143081 0 -0.008363069323956694 0.0021855738388309788 0
          -0.016696163833955 0.004362949931498627 0 -0.008276916731157815 0.0021588718295230654 0
          -0.01663473769474296 0.004338767098362714 0 -0.008191166878050087 0.002120976416239729 0
          -0.016875143552711077 0.004415170074439472 0 -0.010618536369190535 0.002926395902103803 0
          -0.018059194801592706 0.0050957796471010185 0 -0.006880680547284809 0.0019617914357505477 0
          -0.00913359604648111 0.0023910867217883484 0 0.008551428800036585 -0.00009632526108468292 0
          -0.11497311940313026 0.02218023129144196 0 -0.021243929096639552 0.009732133379586328 0
          -0.06041663683122142 0.017317862560220432 0 -0.026125074069877276 0.010393124867737087 0
          -0.07203643511593767 0.024643302489021114 0 -0.02612470027044172 0.010203676845265347 0
          -0.07469712280275968 0.025487771972941043 0 -0.025964840795127023 0.010151257394258057 0
          -0.07482160255323869 0.025450872717507612 0 -0.025950010444070873 0.010149193115412956 0
          -0.07478455764743444 0.02543529070608302 0 -0.025832517657358674 0.010106906575946257 0
          -0.07473056427197781 0.0254161276574486 0 -0.02623603589609723 0.010230532380842896 0
          -0.07517633094631987 0.02556147371024081 0 -0.030742273266342636 0.012190278549765633 0
          -0.07559803322531115 0.026022090811296285 0 -0.01632161704079748 0.00681861106633228 0
          -0.0547183409147001 0.01640721120798856 0 0.18001561055715598 -0.09080606374656984 0
          -0.245656540557532 0.14919213966679076 0 0.10112750616238877 -0.030862238314789073 0
          0.13784486399819051 -0.06908176322963112 0 0.09280026301910853 -0.02404997828278596 0
          0.034024516177681374 -0.01611359686395227 0 0.09116955417544742 -0.023364851094723922 0
          0.0323718567021811 -0.017076023067541003 0 0.0911199266562325 -0.02341765492018872 0
          0.03272271849566641 -0.017382988686300366 0 0.0911591951843582 -0.023434093395188073 0
          0.032817809892975947 -0.017416145307528635 0 0.09122169227831105 -0.02345640225061245 0
          0.03281971324733764 -0.01741526468530169 0 0.0906327824506075 -0.02327037984358323 0
          0.032934671219776536 -0.01745646148661499 0 0.09045053025482337 -0.02279538794519147 0
          0.032370132654580774 -0.017294716921558755 0 0.11874119017217859 -0.03546739830068621 0
          0.026392161999813486 -0.015236537144436565 0
          <InformationKey name="L2_NORM_RANGE" location="vtkDataArray" length="2">
            <Value index="0">
              0
            </Value>
            <Value index="1">
              0.2874116046
            </Value>
          </InformationKey>
        </DataArray>
        <DataArray type="Float64" Name="CORES" format="ascii" RangeMin="-3.7873414634146334" RangeMax="2.2665269672333554">
          0.030453695713818618 -0.11290974396171904 0.039840499576719424 0.056731780160290166 0.02798641034709081 0.0425500361057705
          0.026166089988527652 0.02782075650239399 0.026172046620916763 0.026191897629162818 0.026205471727042347 0.02622549382691642
          0.026405106424840064 0.02651700365286739 0.026774120298734157 0.02297259651263784 0.02180468787634915 0.023321170270222673
          0.036569644284747405 0.10367225413595844 0.39596726131882404 -1.2356326639466912 0.5195021724820768 0.391849866603375
          0.500823879651932 0.5125651514925105 0.48713242548018865 0.4950248733314614 0.48563881807221854 0.4864047887776243
          0.4856632959057706 0.48568111027593364 0.48607319922739656 0.48569041251152 0.48293603197912294 0.4822196125504242
          0.4715116533100314 0.5019944332698452 0.5087240703311702 0.596851793058206 0.7967542590412728 -3.7873414634146334
          1.9307741114636303 2.032386922987964 2.0755629976777055 2.0478012501407985 2.07614423923364 2.066634415788382
          2.070832240501816 2.070085496826393 2.0703044505598145 2.0702686855125614 2.0703718814813437 2.0702736425728157
          2.0649794405620074 2.0703303957651027 2.0915817884416974 2.06852356673635 2.2665269672333554 2.075586768632356
        </DataArray>
        <DataArray type="Float64" Name="MORES" NumberOfComponents="3" format="ascii" RangeMin="0.06263286152926541" RangeMax="10.659489670436423">
          0.0855812547585596 -0.021573980390499698 0 -0.3391995595767616 0.09631794716849612 0
          0.1177067233972667 -0.017018303044759292 0 0.16191576831201082 -0.04564032188036782 0
          0.08176526761287997 -0.014467015475717049 0 0.12703315506084734 -0.026887776897994584 0
          0.07588314415026197 -0.014213295759729901 0 0.08126390993145867 -0.01526900224930665 0
          0.07587815900204249 -0.014212069167878164 0 0.0759535393626847 -0.014225543970081949 0
          0.0759960203425267 -0.014209148056154464 0 0.07605955456910034 -0.014250917077388355 0
          0.07677903953854279 -0.014215686034924367 0 0.07699616141925152 -0.014644397136721575 0
          0.07720070227584491 -0.014784104512155612 0 0.06560409685270313 -0.010544572622501663 0
          0.06072152906379254 -0.01535484456121694 0 0.07052113389695527 -0.007405518323492996 0
          0.11268762077992986 -0.01870500775440799 0 0.3024094162332018 -0.08585327119741297 0
          1.1221786668665177 -0.27859764338740045 0 -3.4420671435410695 1.2859693629663758 0
          1.4943261144343196 -0.40255109639321274 0 1.0082210542036198 -0.43324276919111343 0
          1.447566527246451 -0.37919713874370814 0 1.4572337654139327 -0.4456025434184745 0
          1.4048732918795368 -0.3678400667422521 0 1.4209429222280077 -0.4004441758109972 0
          1.3999516815257933 -0.36691044472145423 0 1.3944230929772234 -0.39053648153030107 0
          1.400031256729645 -0.36693643026649225 0 1.3920546592723078 -0.3899695220166004 0
          1.4013116556201088 -0.3674153756953925 0 1.3920398688312892 -0.390096883769973 0
          1.3910664743315349 -0.3636362222417466 0 1.3815578075931851 -0.3857962470736649 0
          1.3622447452717559 -0.3525794507868022 0 1.44562287917361 -0.4063718350625727 0
          1.4721074068710058 -0.39643059725790186 0 1.6342614479311202 -0.5461638380565872 0
          1.953006325541279 -0.445650604804675 0 -8.744296921760675 6.09606359696383 0
          4.956321093697114 -1.7486090714252764 0 5.102634706749957 -2.0028965150875893 0
          5.476434489666706 -1.7667397285900197 0 5.159672182803597 -1.9620305350410354 0
          5.494759951503921 -1.730495299999586 0 5.2097664719054055 -1.9778135476426173 0
          5.478266335272272 -1.7223462160573713 0 5.21951558543178 -1.9810955647662616 0
          5.476493563665275 -1.721893901255613 0 5.220065364523742 -1.9812947399634488 0
          5.476634035527461 -1.7220904629622455 0 5.220082998675387 -1.9812943229016085 0
          5.46075966433664 -1.7163612390944605 0 5.220222980399194 -1.9814058983470852 0
          5.544840485569926 -1.7403982215310314 0 5.215081602946418 -1.9797849306839754 0
          5.950595044070727 -1.9480383551136253 0 5.236895729127191 -1.9821422266370148 0
          <InformationKey name="L2_NORM_RANGE" location="vtkDataArray" length="2">
            <Value index="0">
              0.062632861529
            </Value>
            <Value index="1">
              10.65948967
            </Value>
          </InformationKey>
        </DataArray>
        <DataArray type="Float64" Name="ENRES" format="ascii" RangeMin="-16.133388249192684" RangeMax="10.994491024012955">
          0.14940557637891064 -0.64217152510976 0.21571231414121694 0.3060699651191646 0.14784803220038237 0.23719217861938224
          0.1364469133868454 0.14704049303341288 0.13642649947481333 0.1365759035975035 0.13664812137972 0.13677718853471305
          0.138598837795742 0.13886731682061482 0.13812402094395257 0.11561926164435057 0.10334556554218322 0.12084947051989076
          0.21388058007803054 0.5727834875054455 2.0255897592582053 -6.703081458822785 2.736806534240464 1.8257186733447246
          2.6428611711378194 2.701902597056411 2.557447819088191 2.619172496554363 2.5476567850224106 2.564178209377639
          2.547813071351972 2.559401667479042 2.550540004149338 2.559521008238465 2.5295222077444492 2.5384915120750104
          2.4721175613291444 2.663529010044429 2.701432105144654 3.0168818174839194 3.2675820972493823 -16.133388249192684
          9.11883702126442 9.399540722909904 10.132671821341651 9.48769562005438 10.152346850984248 9.581680919786542
          10.115953661382036 9.60053545322783 10.11227653246566 9.601633369076081 10.112692282877694 9.601663760414695
          10.081671775917597 9.601969442001078 10.243581487873616 9.592181604659013 10.994491024012955 9.631519833749618
        </DataArray>
      </CellData>
      <Points>
        <DataArray type="Float32" Name="Points" NumberOfComponents="3" format="ascii" RangeMin="0" RangeMax="4.2201894765504395">
          4.099999904632568 1 0 4.099999904632568 0.6666666865348816 0
          3.690000057220459 1 0 3.690000057220459 0.6666666865348816 0
          4.099999904632568 0.3333333134651184 0 3.690000057220459 0.3333333134651184 0
          3.2799999713897705 1 0 3.2799999713897705 0.6666666865348816 0
          4.099999904632568 0 0 3.2799999713897705 0.3333333134651184 0
          3.690000057220459 0 0 2.869999885559082 1 0
          2.869999885559082 0.6666666865348816 0 3.2799999713897705 0 0
          2.869999885559082 0.3333333134651184 0 2.869999885559082 0 0
          2.4600000381469727 1 0 2.4600000381469727 0.6666666865348816 0
          2.4600000381469727 0.3333333134651184 0 2.4600000381469727 0 0
          2.049999952316284 1 0 2.049999952316284 0.6666666865348816 0
          2.049999952316284 0.3333333134651184 0 2.049999952316284 0 0
          1.6399999856948853 1 0 1.6399999856948853 0.6666666865348816 0
          1.6399999856948853 0.3333333134651184 0 1.6399999856948853 0 0
          1.2300000190734863 1 0 1.2300000190734863 0.6666666865348816 0
          1.2300000190734863 0.3333333134651184 0 1.2300000190734863 0 0
          0.8199999928474426 1 0 0.8199999928474426 0.6666666865348816 0
          0.8199999928474426 0.3333333134651184 0 0.8199999928474426 0 0
          0.4099999964237213 1 0 0.4099999964237213 0.6666666865348816 0
          0.4099999964237213 0.3333333134651184 0 0.4099999964237213 0 0
          0 1 0 0 0.6666666865348816 0
          0 0.3333333134651184 0 0 0 0
          <InformationKey name="L2_NORM_RANGE" location="vtkDataArray" length="2">
            <Value index="0">
              0
            </Value>
            <Value index="1">
              4.2201894766
            </Value>
          </InformationKey>
        </DataArray>
      </Points>
      <Cells>
        <DataArray type="Int64" Name="connectivity" format="ascii" RangeMin="0" RangeMax="43">
          39 38 43 38 42 43
          35 34 39 34 38 39
          31 30 35 30 34 35
          27 26 31 26 30 31
          23 22 27 22 26 27
          19 18 23 18 22 23
          15 14 19 14 18 19
          13 9 15 9 14 15
          10 5 13 5 9 13
          8 4 10 4 5 10
          38 37 42 37 41 42
          34 33 38 33 37 38
          30 29 34 29 33 34
          26 25 30 25 29 30
          22 21 26 21 25 26
          18 17 22 17 21 22
          14 12 18 12 17 18
          9 7 14 7 12 14
          5 3 9 3 7 9
          4 1 5 1 3 5
          37 36 41 36 40 41
          33 32 37 32 36 37
          29 28 33 28 32 33
          25 24 29 24 28 29
          21 20 25 20 24 25
          17 16 21 16 20 21
          12 11 17 11 16 17
          7 6 12 6 11 12
          3 2 7 2 6 7
          1 0 3 0 2 3
        </DataArray>
        <DataArray type="Int64" Name="offsets" format="ascii" RangeMin="3" RangeMax="180">
          3 6 9 12 15 18
          21 24 27 30 33 36
          39 42 45 48 51 54
          57 60 63 66 69 72
          75 78 81 84 87 90
          93 96 99 102 105 108
          111 114 117 120 123 126
          129 132 135 138 141 144
          147 150 153 156 159 162
          165 168 171 174 177 180
        </DataArray>
        <DataArray type="UInt8" Name="types" format="ascii" RangeMin="5" RangeMax="5">
          5 5 5 5 5 5
          5 5 5 5 5 5
          5 5 5 5 5 5
          5 5 5 5 5 5
          5 5 5 5 5 5
          5 5 5 5 5 5
          5 5 5 5 5 5
          5 5 5 5 5 5
          5 5 5 5 5 5
          5 5 5 5 5 5
        </DataArray>
      </Cells>
    </Piece>
  </UnstructuredGrid>
</VTKFile>
