<?xml version="1.0"?>
<VTKFile type="UnstructuredGrid" version="0.1" byte_order="LittleEndian" header_type="UInt32" compressor="vtkZLibDataCompressor">
  <UnstructuredGrid>
    <Piece NumberOfPoints="44" NumberOfCells="60">
      <PointData>
        <DataArray type="Float64" Name="Density" format="ascii" RangeMin="0.9980947622775747" RangeMax="1.7">
          1.7 1.08032144712327 1.7 1.1005620644889542 0.9980947622775747 1.0020384837719936
          1.7 1.1010542702841157 0.9993402247555909 1.001773572978749 1.000140547569343 1.7
          1.1009145103782343 0.9999491311815105 1.0017289204543096 0.9999344580220941 1.7 1.1009254039505254
          1.0017371588053257 0.9999373709263267 1.7 1.1009254039505254 1.0017371588053257 0.9999373709263267
          1.7 1.1009254039505256 1.0017371588053257 0.9999373709263267 1.7 1.1009571913866125
          1.0017371588053257 0.9999373709263267 1.7 1.1022056426829911 1.0018131773302001 0.9999373709263267
          1.7 1.1055098866090003 1.0030737252034039 1.000022838561164 1 1
          1 1
        </DataArray>
        <DataArray type="Float64" Name="Momentum" NumberOfComponents="3" format="ascii" RangeMin="2.894640006463747" RangeMax="4.535233026008696">
          4.4528099999999995 -0.86071 0 3.1206843198256005 -0.062290551933720385 0
          4.4528099999999995 -0.86071 0 3.1699884662101483 -0.0823117513913498 0
          2.894639472820399 0.0017576718935727541 0 2.9058020381845493 -0.0016066503225860953 0
          4.4528099999999995 -0.86071 0 3.1715662519142707 -0.08285423927600216 0
          2.898016251927395 0.0004473139000800984 0 2.9051204836050535 -0.001340397974338658 0
          2.9004574174516686 0 0 4.4528099999999995 -0.86071 0
          3.1711457446158744 -0.08271657604509437 0 2.8998523078625413 0 0
          2.9049836436046514 -0.0012733992820171264 0 2.8998078976529142 0 0
          4.4528099999999995 -0.86071 0 3.1711792628319158 -0.0827262523890434 0
          2.905010116952827 -0.001282712111155107 0 2.899818375913823 0 0
          4.4528099999999995 -0.86071 0 3.1711792628319158 -0.08272625238904345 0
          2.9050101169528273 -0.001282712111155112 0 2.899818375913823 0 0
          4.4528099999999995 -0.86071 0 3.1711792628319158 -0.08272625238904345 0
          2.905010116952827 -0.0012827121111551184 0 2.899818375913823 0 0
          4.4528099999999995 -0.86071 0 3.1712808749270867 -0.08274671239498449 0
          2.905010116952827 -0.0012827121111551138 0 2.899818375913823 0 0
          4.4528099999999995 -0.86071 0 3.1747294522992955 -0.0845908659067714 0
          2.9052490158817452 -0.001337780989246652 0 2.899818375913823 0 0
          4.4528099999999995 -0.86071 0 3.178577939632943 -0.09427785493059603 0
          2.9088825620441217 -0.002520611200395681 0 2.9000812481508786 0 0
          2.9 0 0 2.9 0 0
          2.9 0 0 2.9 0 0
          <InformationKey name="L2_NORM_RANGE" location="vtkDataArray" length="2">
            <Value index="0">
              2.8946400065
            </Value>
            <Value index="1">
              4.535233026
            </Value>
          </InformationKey>
        </DataArray>
        <DataArray type="Float64" Name="Energy" format="ascii" RangeMin="4.912389508267691" RangeMax="7.585636452999999">
          7.585636452999999 5.3335350663535595 7.585636452999999 5.42362754642344 4.912389508267691 4.933437254864436
          7.585636452999999 5.426505920836596 4.919325104102316 4.931968197220047 4.923945676231946 7.585636452999999
          5.425693620979929 4.922740040574705 4.931683004850167 4.922647303344055 7.585636452999999 5.425759611599336
          4.931739064880945 4.922673084804261 7.585636452999999 5.425759611599336 4.931739064880945 4.922673084804261
          7.585636452999999 5.425759611599336 4.931739064880945 4.922673084804261 7.585636452999999 5.42595087900548
          4.931739064880945 4.922673084804261 7.585636452999999 5.43313852670758 4.932208263452472 4.922673084804261
          7.585636452999999 5.441209964038554 4.939259870445995 4.923171460166698 4.923 4.923
          4.923 4.923
        </DataArray>
        <DataArray type="Float64" Name="DERPR" format="ascii" RangeMin="-3.787341463414633" RangeMax="2.4253537893211066">
          2.4253537893211066 1.0324172756524579 2.3359352440115244 1.3401602991215518 0.08447971707078873 0.1433235629854066
          2.3333633029210645 1.2901755009748679 0.0020229878807409563 0.12380144528280738 0.012470927638149935 2.333998079499998
          1.2887823230196718 0.0032052724087474737 0.12385843906340817 0.003748357944067944 2.333951476228017 1.2891729561301042
          0.12412433896211492 0.0038688658468147468 2.333951476228016 1.289140867376224 0.12408937237909634 0.0038481367182792944
          2.3340136276795174 1.2892337088381716 0.12408937237909617 0.003848136718278412 2.334849663948673 1.293029085951418
          0.12437289932910213 0.0038481367182790008 2.3217994966136954 1.301642044405407 0.1312402142098514 0.004366218522853004
          0.043931159170826614 1.0192808171211325 0.13316829628874824 0.009480768457656781 -3.787341463414633 -0.9489871653717997
          -0.14917210747049983 -0.007150558668875815
        </DataArray>
        <DataArray type="Float64" Name="MORPR" NumberOfComponents="3" format="ascii" RangeMin="0.007620994314916255" RangeMax="10.85232348985625">
          5.910332116301002 -2.672601240965856 0 2.914922589583753 -0.712224797929584 0
          5.681249286471387 -2.572991225241449 0 3.778657369543561 -0.8980975443225357 0
          0.24837367308578787 -0.05998955225431698 0 0.4120205776171019 -0.10814154811908999 0
          5.673355420501881 -2.570817879226981 0 3.6496388191936835 -0.8392452085191539 0
          0.00761626385109354 -0.00026847588068890267 0 0.3607219383227635 -0.08168187786272624 0
          0.03764064355047598 -0.009617712066942605 0 5.675256385247889 -2.5714744804723146 0
          3.6449491748684664 -0.8382721938415811 0 0.009083905928160808 -0.0014847107316868096 0
          0.3605773265463624 -0.08177533909689545 0 0.010822272124375915 -0.0017730003816948624 0
          5.675114061068342 -2.5714257758574166 0 3.6461649303960884 -0.8386548896918187 0
          0.3614410579306475 -0.08209417386004017 0 0.011237846943653167 -0.0019374525781242252 0
          5.675114062271753 -2.571425774855682 0 3.6460635166173914 -0.8386254540191708 0
          0.3613242635719003 -0.08205996139803888 0 0.011159714998636624 -0.0019180288822167773 0
          5.675313087643161 -2.5714235076469008 0 3.646366989108633 -0.8386692573473257 0
          0.36132426357189856 -0.08205996139803948 0 0.011159714998632747 -0.0019180288822176984 0
          5.678508586583304 -2.572897117251477 0 3.6577539473638416 -0.8436814746466562 0
          0.3622390060176178 -0.08223688455239771 0 0.011159714998633753 -0.0019180288822183687 0
          5.626944868003655 -2.5902986172725795 0 3.6712924259281796 -0.8728364064166578 0
          0.38296106000030006 -0.0884930937359158 0 0.012804301057407564 -0.0021253382182013308 0
          0.15392073214145663 0.2163983605559875 0 2.828409805381263 -0.667864708670318 0
          0.3822664269379383 -0.09620570424629048 0 0.028064577034659293 -0.006217120239327868 0
          -8.737609895532728 6.43638861800422 0 -1.9993729233556683 2.1615222219205426 0
          -0.42156622418074263 0.17448207595992643 0 -0.022395443929747745 0.006846129604561469 0
          <InformationKey name="L2_NORM_RANGE" location="vtkDataArray" length="2">
            <Value index="0">
              0.0076209943149
            </Value>
            <Value index="1">
              10.85232349
            </Value>
          </InformationKey>
        </DataArray>
        <DataArray type="Float64" Name="ENRPR" format="ascii" RangeMin="-16.392758768403993" RangeMax="10.943900377796938">
          10.943900377796938 5.355988341060755 10.508565201184735 6.937116428621846 0.45356217909982594 0.7485330469890297
          10.494118449050283 6.686967817885439 0.016330872016431717 0.6433231690894693 0.07240343090653481 10.497851883031444
          6.6785566933635785 0.015124311132717342 0.6438219203058001 0.019316708124050248 10.497566609348237 6.680956319931529
          0.6456012771040486 0.0202487100857322 10.497566611626594 6.680752760696886 0.6453557022790765 0.020064032780458603
          10.497912687158143 6.68131888841091 0.6453557022790747 0.0200640327804568 10.50526412879883 6.705154559315646
          0.6471336324484125 0.020064032780463197 10.411229690876546 6.739414961687598 0.6879027857426914 0.023244387007979213
          0.5201933483374365 5.149385491299815 0.6868022049277971 0.052364261894268106 -16.392758768403993 -3.9872198578147775
          -0.8614361660006759 -0.04326879382903444
        </DataArray>
      </PointData>
      <CellData>
        <DataArray type="UInt8" Name="vtkGhostType" format="ascii" RangeMin="0" RangeMax="0">
          0 0 0 0 0 0
          0 0 0 0 0 0
          0 0 0 0 0 0
          0 0 0 0 0 0
          0 0 0 0 0 0
          0 0 0 0 0 0
          0 0 0 0 0 0
          0 0 0 0 0 0
          0 0 0 0 0 0
          0 0 0 0 0 0
        </DataArray>
        <DataArray type="Float64" Name="sgvis" format="ascii" RangeMin="0.3813077327689453" RangeMax="0.48697653556163467">
          0.4868977235667551 0.48663722506025253 0.48691091758604144 0.4866459491469889 0.48690930018588685 0.48674230429133114
          0.48690930018588685 0.4867450765954928 0.48690930018588685 0.48674507659549304 0.48690930018588696 0.4867450765954934
          0.48690932791251595 0.4867457438741932 0.4869078346310819 0.48674054110159715 0.4869126877704538 0.48672333789319466
          0.48695620262857686 0.48697653556163467 0.48522103076224343 0.4784117394962708 0.4858350317359006 0.47282567279861454
          0.4858622982090648 0.47423104197672883 0.4858604160928621 0.47436163161685385 0.48586041609286224 0.47436166351603015
          0.48586041609286235 0.4743616635160305 0.48586043130707857 0.47436217204589526 0.4858580530971762 0.47435425531606557
          0.4859024914709301 0.4744171974608852 0.4862286151081797 0.47559655914403787 0.46036943724730595 0.4503740747580789
          0.461596081486645 0.3813077327689453 0.4621045388118278 0.3826685205341492 0.46212412814579384 0.3827513963259923
          0.4621245303720096 0.3827535062436746 0.46212453037200996 0.3827535061000896 0.4621245752038151 0.3827535061072853
          0.46212288912121846 0.382754055752183 0.46214780208860673 0.3827471226416196 0.46232859452085906 0.3827178867015992
        </DataArray>
        <DataArray type="Float64" Name="sgtco" format="ascii" RangeMin="0.3813077327689453" RangeMax="0.48697653556163467">
          0.4868977235667551 0.48663722506025253 0.48691091758604144 0.4866459491469889 0.48690930018588685 0.48674230429133114
          0.48690930018588685 0.4867450765954928 0.48690930018588685 0.48674507659549304 0.48690930018588696 0.4867450765954934
          0.48690932791251595 0.4867457438741932 0.4869078346310819 0.48674054110159715 0.4869126877704538 0.48672333789319466
          0.48695620262857686 0.48697653556163467 0.48522103076224343 0.4784117394962708 0.4858350317359006 0.47282567279861454
          0.4858622982090648 0.47423104197672883 0.4858604160928621 0.47436163161685385 0.48586041609286224 0.47436166351603015
          0.48586041609286235 0.4743616635160305 0.48586043130707857 0.47436217204589526 0.4858580530971762 0.47435425531606557
          0.4859024914709301 0.4744171974608852 0.4862286151081797 0.47559655914403787 0.46036943724730595 0.4503740747580789
          0.461596081486645 0.3813077327689453 0.4621045388118278 0.3826685205341492 0.46212412814579384 0.3827513963259923
          0.4621245303720096 0.3827535062436746 0.46212453037200996 0.3827535061000896 0.4621245752038151 0.3827535061072853
          0.46212288912121846 0.382754055752183 0.46214780208860673 0.3827471226416196 0.46232859452085906 0.3827178867015992
        </DataArray>
        <DataArray type="Float64" Name="MOSGS" NumberOfComponents="3" format="ascii" RangeMin="0" RangeMax="0.2499122758866062">
          6.9442517955831e-310 6.9442517955831e-310 4.64026355958833e-310 -0.0023298035962347656 0.0006274205247236212 0
          -0.0009447181247354766 -0.00017130787216933666 0 -0.003274217905575958 0.0008021708635996967 0
          -0.004971925140846072 0.0012261324522076845 0 -0.002925133042964739 0.0007089177690814475 0
          -0.006031316709597244 0.0014700545963521213 0 -0.002925133042964741 0.0007089177690814435 0
          -0.005849647338308543 0.001417612238392865 0 -0.0029251330429647554 0.000708917769081443 0
          -0.005849647338308555 0.001417612238392862 0 -0.002925133042964766 0.0007089177690814367 0
          -0.005849647338308488 0.0014176122383928512 0 -0.0029139843020574096 0.0007042793757508169 0
          -0.005841386905663174 0.0014145576468372414 0 -0.002876884952110815 0.0006916609470088399 0
          -0.00585843236492164 0.0014217689584469172 0 -0.003447275044865569 0.0009448630923694416 0
          -0.00651236232819976 0.0016947691348896952 0 -0.002120574976646257 0.0005346618503984724 0
          -0.003562400629060225 0.0009277328073298113 0 -0.0224136042538697 0.008178041302519144 0
          -0.0624919697792467 0.0058075489935136915 0 -0.03354897073427783 0.011395593328871878 0
          -0.07160637080954534 0.02272858089731005 0 -0.03494690276884104 0.011606769303006194 0
          -0.07648459074465151 0.02471611420140967 0 -0.034674521248332216 0.011521366398416099 0
          -0.07735315667181053 0.024891928436844034 0 -0.034674521248332195 0.011521366398416113 0
          -0.0772624445225906 0.024858967890213215 0 -0.03467452124833222 0.011521366398416137 0
          -0.0772624445225906 0.024858967890213236 0 -0.0346556646386814 0.01151521243993134 0
          -0.0772518483455851 0.02485586852328407 0 -0.03471118766813352 0.011530726366934675 0
          -0.07735862406064022 0.024883583915391003 0 -0.03696993980617885 0.012386413853458638 0
          -0.07826598092589176 0.02530505695328469 0 -0.026255617535625695 0.008263450887687178 0
          -0.05881542335005164 0.0178486406272173 0 0.18389843551040888 -0.08400124846024667 0
          -0.21675996325635433 0.12438353575906694 0 0.0910434621972343 -0.022812354435277335 0
          0.10479443162502422 -0.05396165199084028 0 0.08661015971837507 -0.020824911153173933 0
          0.03270662126523981 -0.016276495330932325 0 0.08595366219394496 -0.020691831081299118 0
          0.03239865647267247 -0.016571382413616914 0 0.08604437296815862 -0.020724792986967305 0
          0.03252743330717107 -0.016618077678441937 0 0.08604437296815876 -0.020724792986967326 0
          0.03252743193216478 -0.016618079037479333 0 0.08605496918929842 -0.02072789231990429 0
          0.03252743197629898 -0.016618079003487097 0 0.085924440279828 -0.020695058356636716 0
          0.03255349006541816 -0.016625859316017864 0 0.08503529679437233 -0.020258801760611733 0
          0.03241902011030321 -0.01659185666324982 0 0.1072536253765816 -0.029284846216514025 0
          0.028274701093346368 -0.01571123079711642 0
          <InformationKey name="L2_NORM_RANGE" location="vtkDataArray" length="2">
            <Value index="0">
              0
            </Value>
            <Value index="1">
              0.24991227589
            </Value>
          </InformationKey>
        </DataArray>
        <DataArray type="Float64" Name="CORES" format="ascii" RangeMin="-3.7873414634146334" RangeMax="2.5155125992967644">
          0.007363668135715429 -0.021664785473467063 0.004654495166771078 0.016424142070483837 0.003848136718278994 0.004596023683508941
          0.003848136718278994 0.003848136718279014 0.003848136718278994 0.0038481367182772504 0.003848136718278994 0.003848136718279895
          0.0038457549619952394 0.003912705860170005 0.003912876740678861 0.003486442129529731 0.003344074403100805 0.0023588660824627556
          0.0020229878807409554 0.03204572063060804 0.25360689066279807 -0.6794583893486417 0.25862151251384613 0.28465823060857753
          0.24497463228753258 0.2581703691231935 0.24433057196755126 0.24463978635156353 0.24433057196754948 0.2443305719675506
          0.24433057196755126 0.24433057196755065 0.24439405056522645 0.24441232371399313 0.24420771889815374 0.24330385386627118
          0.24045292654056727 0.24838973281162813 0.2193704022338076 0.3623692703553084 1.6198382757892356 -3.7873414634146334
          2.3377441895877595 2.2992966651378777 2.342301260526516 2.328357635115449 2.334199310606482 2.3338900962040556
          2.333951476228016 2.3339514762280165 2.333951476228017 2.3339514762280165 2.334062257009209 2.333951476228017
          2.332541887971681 2.333980505262767 2.3390432371603795 2.3335675155287445 2.5155125992967644 2.3351949793454483
        </DataArray>
        <DataArray type="Float64" Name="MORES" NumberOfComponents="3" format="ascii" RangeMin="0.0068526741236676885" RangeMax="10.62155240897055">
          0.02121711039240874 -0.0041428576037877505 0 -0.06600218073459119 0.017827863042251466 0
          0.013698882228214446 -0.0020401754762170076 0 0.04927483214548614 -0.01250760252070978 0
          0.011159596740388486 -0.0019235574774204792 0 0.013554198643079489 -0.0024281313963088807 0
          0.011159596740388486 -0.0019235574774204792 0 0.011159596702812516 -0.0019218303461299479 0
          0.011159596740387301 -0.0019235574774183833 0 0.011159596702807133 -0.0019218303461300268 0
          0.011159596740388486 -0.001923557477419108 0 0.011159596702817581 -0.001921830346128643 0
          0.011174634305255336 -0.0019159084659201124 0 0.011378932263957718 -0.001987697476051378 0
          0.011308759914744601 -0.0019776232316762515 0 0.00998315932069272 -0.0014403779694382064 0
          0.009090717664497767 -0.002404055257727393 0 0.006852066879911469 -0.00009122564554462617 0
          0.007615851617822451 -0.0002676920679482303 0 0.09621431981388692 -0.02619777425147315 0
          0.7296031449022278 -0.17433821151852463 0 -1.9286301484400092 0.6632379967721822 0
          0.7501289613120514 -0.18673546446015096 0 0.7908147672906012 -0.26536126135019233 0
          0.7092175695297454 -0.17535474058651193 0 0.7467603644398688 -0.19616969123358707 0
          0.7071217521848803 -0.17494817609910499 0 0.7065421978462725 -0.17995266613712735 0
          0.7071217521848725 -0.17494817609910562 0 0.705547655961188 -0.17977740058908587 0
          0.7071217521848825 -0.17494817609910354 0 0.7055476559611928 -0.17977740058908678 0
          0.7073376834292171 -0.17501338738425948 0 0.7058124882777281 -0.1798460182896221 0
          0.706635476699437 -0.17462134325425283 0 0.7022857121888578 -0.17880598722317187 0
          0.6959634027695141 -0.17163037677101384 0 0.7187970491041502 -0.1835514889120136 0
          0.6388183561463666 -0.16276843446499267 0 1.0131158772279694 -0.3197173061774255 0
          4.234849734684137 -1.2305677154416572 0 -8.745054270939715 6.028382981764442 0
          6.261514775823748 -1.9218539287315712 0 5.857479942781454 -2.222485801388155 0
          6.31400874001139 -1.8633014279014775 0 5.960700631441249 -2.202871910883392 0
          6.2905107542884515 -1.8488494550806531 0 5.976181432595883 -2.207315929425431 0
          6.289695988280314 -1.8487302873427702 0 5.976365527215893 -2.207413551658451 0
          6.289695988280323 -1.8487302873427716 0 5.976365524982688 -2.2074135535134154 0
          6.2900423232545375 -1.848823371815071 0 5.976365525085221 -2.207413553444855 0
          6.285347060840109 -1.8474971106237166 0 5.976448671684906 -2.2074483498706683 0
          6.306425813131646 -1.8517973936009267 0 5.975242062413288 -2.20710920428042 0
          6.772623608064357 -2.0387477897740007 0 5.979960965701483 -2.2066167094632805 0
          <InformationKey name="L2_NORM_RANGE" location="vtkDataArray" length="2">
            <Value index="0">
              0.0068526741237
            </Value>
            <Value index="1">
              10.621552409
            </Value>
          </InformationKey>
        </DataArray>
        <DataArray type="Float64" Name="ENRES" format="ascii" RangeMin="-16.065071445001568" RangeMax="12.479618336631253">
          0.03794268633616542 -0.12445713799700009 0.024918060431039682 0.09425445250232847 0.02006642033147366 0.02475565212174779
          0.020066420331467 0.020064914051062404 0.020066420331468396 0.020064914051059337 0.02006642033147033 0.020064914051066148
          0.020150893499476935 0.020534350300310367 0.02021569060442421 0.017589550351093032 0.015234751994006725 0.009932978780191245
          0.01632980370943002 0.1856587104075451 1.3150816718296614 -3.7539832794061 1.3605114059299979 1.4557713556992122
          1.2810239774754504 1.3638528439786801 1.276895988758535 1.281464415047948 1.2768959887585343 1.2795919572101413
          1.2768959887585298 1.2795919572101453 1.2773587245941402 1.2801242543541187 1.2756858109069924 1.273138768032292
          1.2540730244871976 1.3039145527487346 1.164868026575092 1.8772153726605851 7.598167317072235 -16.065071445001568
          11.533418606034484 10.804312443885163 11.616486351909462 10.981713037821343 11.563824338112195 11.01053783070439
          11.562298795480764 11.010930926992405 11.562298795480778 11.01093092311893 11.562980504562514 11.010930923265821
          11.553864991689458 11.011094043278835 11.59237986492384 11.008823122893897 12.479618336631253 11.016222386460994
        </DataArray>
      </CellData>
      <Points>
        <DataArray type="Float32" Name="Points" NumberOfComponents="3" format="ascii" RangeMin="0" RangeMax="4.2201894765504395">
          4.099999904632568 1 0 4.099999904632568 0.6666666865348816 0
          3.690000057220459 1 0 3.690000057220459 0.6666666865348816 0
          4.099999904632568 0.3333333134651184 0 3.690000057220459 0.3333333134651184 0
          3.2799999713897705 1 0 3.2799999713897705 0.6666666865348816 0
          4.099999904632568 0 0 3.2799999713897705 0.3333333134651184 0
          3.690000057220459 0 0 2.869999885559082 1 0
          2.869999885559082 0.6666666865348816 0 3.2799999713897705 0 0
          2.869999885559082 0.3333333134651184 0 2.869999885559082 0 0
          2.4600000381469727 1 0 2.4600000381469727 0.6666666865348816 0
          2.4600000381469727 0.3333333134651184 0 2.4600000381469727 0 0
          2.049999952316284 1 0 2.049999952316284 0.6666666865348816 0
          2.049999952316284 0.3333333134651184 0 2.049999952316284 0 0
          1.6399999856948853 1 0 1.6399999856948853 0.6666666865348816 0
          1.6399999856948853 0.3333333134651184 0 1.6399999856948853 0 0
          1.2300000190734863 1 0 1.2300000190734863 0.6666666865348816 0
          1.2300000190734863 0.3333333134651184 0 1.2300000190734863 0 0
          0.8199999928474426 1 0 0.8199999928474426 0.6666666865348816 0
          0.8199999928474426 0.3333333134651184 0 0.8199999928474426 0 0
          0.4099999964237213 1 0 0.4099999964237213 0.6666666865348816 0
          0.4099999964237213 0.3333333134651184 0 0.4099999964237213 0 0
          0 1 0 0 0.6666666865348816 0
          0 0.3333333134651184 0 0 0 0
          <InformationKey name="L2_NORM_RANGE" location="vtkDataArray" length="2">
            <Value index="0">
              0
            </Value>
            <Value index="1">
              4.2201894766
            </Value>
          </InformationKey>
        </DataArray>
      </Points>
      <Cells>
        <DataArray type="Int64" Name="connectivity" format="ascii" RangeMin="0" RangeMax="43">
          39 38 43 38 42 43
          35 34 39 34 38 39
          31 30 35 30 34 35
          27 26 31 26 30 31
          23 22 27 22 26 27
          19 18 23 18 22 23
          15 14 19 14 18 19
          13 9 15 9 14 15
          10 5 13 5 9 13
          8 4 10 4 5 10
          38 37 42 37 41 42
          34 33 38 33 37 38
          30 29 34 29 33 34
          26 25 30 25 29 30
          22 21 26 21 25 26
          18 17 22 17 21 22
          14 12 18 12 17 18
          9 7 14 7 12 14
          5 3 9 3 7 9
          4 1 5 1 3 5
          37 36 41 36 40 41
          33 32 37 32 36 37
          29 28 33 28 32 33
          25 24 29 24 28 29
          21 20 25 20 24 25
          17 16 21 16 20 21
          12 11 17 11 16 17
          7 6 12 6 11 12
          3 2 7 2 6 7
          1 0 3 0 2 3
        </DataArray>
        <DataArray type="Int64" Name="offsets" format="ascii" RangeMin="3" RangeMax="180">
          3 6 9 12 15 18
          21 24 27 30 33 36
          39 42 45 48 51 54
          57 60 63 66 69 72
          75 78 81 84 87 90
          93 96 99 102 105 108
          111 114 117 120 123 126
          129 132 135 138 141 144
          147 150 153 156 159 162
          165 168 171 174 177 180
        </DataArray>
        <DataArray type="UInt8" Name="types" format="ascii" RangeMin="5" RangeMax="5">
          5 5 5 5 5 5
          5 5 5 5 5 5
          5 5 5 5 5 5
          5 5 5 5 5 5
          5 5 5 5 5 5
          5 5 5 5 5 5
          5 5 5 5 5 5
          5 5 5 5 5 5
          5 5 5 5 5 5
          5 5 5 5 5 5
        </DataArray>
      </Cells>
    </Piece>
  </UnstructuredGrid>
</VTKFile>
