<?xml version="1.0"?>
<VTKFile type="UnstructuredGrid" version="0.1" byte_order="LittleEndian" header_type="UInt32" compressor="vtkZLibDataCompressor">
  <UnstructuredGrid>
    <Piece NumberOfPoints="10" NumberOfCells="10">
      <PointData>
        <DataArray type="Float64" Name="Disp" NumberOfComponents="3" format="ascii" RangeMin="0" RangeMax="0.4346465730059244">
          0.31085680734403726 -0.007611340045438508 0 0.121660710768483 -0.0012188917771980565 0
          0.19203345939587302 0.036815622116473816 0 0.05264561411463359 0.026669576948143706 0
          0.4308346369920548 -0.05743830597883876 0 0.4253840816714464 0.033295394747234315 0
          0.19716729797707083 -0.044310686899562045 0 0.05204500736909967 -0.026358421457634756 0
          0 0 0 0.02211545373058743 0.00032727411552023553 0
          <InformationKey name="L2_NORM_RANGE" location="vtkDataArray" length="2">
            <Value index="0">
              0
            </Value>
            <Value index="1">
              0.43464657301
            </Value>
          </InformationKey>
        </DataArray>
        <DataArray type="Float64" Name="Sld_traction" NumberOfComponents="3" format="ascii" RangeMin="0" RangeMax="50.73919117683368">
          0 0 0 0 0 0
          17.40992609333238 -14.305333914758554 0 45.03750042586021 -23.157461289102685 0
          5.360691543691311 5.808712660452663 0 6.722104423838985 -7.460206118720841 0
          18.332783852518876 11.152801218016625 0 46.83804540733091 19.510587477061893 0
          -8.994020359772978 -18.972831653817842 0 0 0 0
          <InformationKey name="L2_NORM_RANGE" location="vtkDataArray" length="2">
            <Value index="0">
              0
            </Value>
            <Value index="1">
              50.739191177
            </Value>
          </InformationKey>
        </DataArray>
        <DataArray type="Float64" Name="Fld_traction" NumberOfComponents="3" format="ascii" RangeMin="0" RangeMax="2.8465294714160545">
          0 0 0 0 0 0
          2.5367931197727422 -0.15065149213817136 0 2.8430517278460252 -0.140665932022982 0
          0 0 0 1.6200423407208153 -0.03310908957577366 0
          0 0 0 0 0 0
          1.425744090142702 -1.5028135686694748 0 0 0 0
          <InformationKey name="L2_NORM_RANGE" location="vtkDataArray" length="2">
            <Value index="0">
              0
            </Value>
            <Value index="1">
              2.8465294714
            </Value>
          </InformationKey>
        </DataArray>
        <DataArray type="Float64" Name="Velocity" NumberOfComponents="3" format="ascii" RangeMin="0" RangeMax="0.20143310852941193">
          0.14423193437037624 -0.016611939900719203 0 0.06050844595318092 -0.00741736780655633 0
          0.09185894475525169 0.006594100644596118 0 0.028233632813392973 0.009113721367053941 0
          0.19638368014948504 -0.04481905156031977 0 0.19550480428850914 0.00021527553993805001 0
          0.09353061628621717 -0.029045338439464677 0 0.028634571105084633 -0.016856094065554758 0
          0 0 0 0.012507766596094302 -0.0016091355200078677 0
          <InformationKey name="L2_NORM_RANGE" location="vtkDataArray" length="2">
            <Value index="0">
              0
            </Value>
            <Value index="1">
              0.20143310853
            </Value>
          </InformationKey>
        </DataArray>
      </PointData>
      <CellData>
        <DataArray type="UInt8" Name="vtkGhostType" format="ascii" RangeMin="0" RangeMax="1">
          1 1 1 1 1 1
          1 1 1 0
        </DataArray>
        <DataArray type="Float64" Name="Gauss Stress" NumberOfComponents="6" format="ascii" RangeMin="15.325113451536518" RangeMax="196.63682760534115">
          1.622276199047239 8.981023017604121 0 -12.311317873961963 0 0
          7.801727265482258 -12.801328351260315 0 6.839606713167581 0 0
          33.69930147857241 -69.21432426394945 0 10.462890680603142 0 0
          2.557675390912335 9.286325286743518 0 -42.572372006273 0 0
          -2.7799194390341646 3.8750987329547337 0 31.8621664442119 0 0
          -8.951718235795997 25.42018504620947 0 12.692981765286294 0 0
          -65.17436650882746 182.50960551929626 0 33.29546236436065 0 0
          -6.573060973017015 12.645287297113564 0 -81.34389806972757 0 0
          3.045262749604636 0.7982469013103916 0 78.69011934331371 0 0
          -25.63370721010074 80.94708889767176 0 25.249880036435307 0 0
          <InformationKey name="L2_NORM_RANGE" location="vtkDataArray" length="2">
            <Value index="0">
              15.325113452
            </Value>
            <Value index="1">
              196.63682761
            </Value>
          </InformationKey>
        </DataArray>
        <DataArray type="Float64" Name="Gauss Strain" NumberOfComponents="6" format="ascii" RangeMin="0.002015579052569346" RangeMax="0.019392394071030914">
          0.000008241778047757274 0.0007435974479661487 0 -0.0024605269418850255 0 0
          0.0008493953946689946 -0.0012117532313048462 0 0.0013684810875908035 0 0
          0.0038438644691961 -0.006474516705231358 0 0.002098071920989964 0 0
          0.00005564452137757357 0.0007279912388962195 0 -0.008507916155107306 0 0
          -0.0003112246745794467 0.0003542680285972266 0 0.006372346018609745 0 0
          -0.0011362035942054094 0.002297136279579448 0 0.0025357525333662063 0 0
          -0.008368846923091033 0.016198761583166132 0 0.006605109549111638 0 0
          -0.000858751702723981 0.001062529521438704 0 -0.016264093236823117 0 0
          0.00014344803526433747 -0.00008122294375845218 0 0.015735880248197748 0 0
          -0.0033913158126060994 0.007225687871238727 0 0.0050305135475325 0 0
          <InformationKey name="L2_NORM_RANGE" location="vtkDataArray" length="2">
            <Value index="0">
              0.0020155790526
            </Value>
            <Value index="1">
              0.019392394071
            </Value>
          </InformationKey>
        </DataArray>
        <DataArray type="Float64" Name="Btraction" NumberOfComponents="3" format="ascii" RangeMin="0" RangeMax="1.7959088205656668">
          0 0 0 0 0 0
          0 0 0 0 0 0
          0 0 0 1.385611820164519 -0.06125352723798165 0
          1.4229319393295752 -0.5478265002308188 0 0 0 0
          0 0 0 1.7932816158729223 -0.09710580805371775 0
          <InformationKey name="L2_NORM_RANGE" location="vtkDataArray" length="2">
            <Value index="0">
              0
            </Value>
            <Value index="1">
              1.7959088206
            </Value>
          </InformationKey>
        </DataArray>
      </CellData>
      <Points>
        <DataArray type="Float32" Name="Points" NumberOfComponents="3" format="ascii" RangeMin="10" RangeMax="12.72006462895274">
          10.5 5 0 10.5 2.6568450927734375 0
          10 3.61250901222229 0 10 1.6373380422592163 0
          11 6.387491226196289 0 10 6.2815680503845215 0
          11 3.7184319496154785 0 11 1.6591010093688965 0
          10 0 0 10.5 0.8241099119186401 0
          <InformationKey name="L2_NORM_RANGE" location="vtkDataArray" length="2">
            <Value index="0">
              10
            </Value>
            <Value index="1">
              12.720064629
            </Value>
          </InformationKey>
        </DataArray>
      </Points>
      <Cells>
        <DataArray type="Int64" Name="connectivity" format="ascii" RangeMin="0" RangeMax="9">
          4 5 0 0 6 4
          1 7 6 2 1 6
          2 6 0 2 0 5
          8 9 3 9 7 3
          3 7 1 3 1 2
        </DataArray>
        <DataArray type="Int64" Name="offsets" format="ascii" RangeMin="3" RangeMax="30">
          3 6 9 12 15 18
          21 24 27 30
        </DataArray>
        <DataArray type="UInt8" Name="types" format="ascii" RangeMin="5" RangeMax="5">
          5 5 5 5 5 5
          5 5 5 5
        </DataArray>
      </Cells>
    </Piece>
  </UnstructuredGrid>
</VTKFile>
