<?xml version="1.0"?>
<VTKFile type="UnstructuredGrid" version="0.1" byte_order="LittleEndian" header_type="UInt32" compressor="vtkZLibDataCompressor">
  <UnstructuredGrid>
    <Piece NumberOfPoints="7" NumberOfCells="6">
      <PointData>
        <DataArray type="Float64" Name="Disp" NumberOfComponents="3" format="ascii" RangeMin="0.23054503655745934" RangeMax="0.4384470782577776">
          0.43655142415584425 -0.03756033760078925 0 0.39006689229646835 -0.007803147047950258 0
          0.4380026572106675 0.019736076336908562 0 0.34308718252682135 0.02151903041372407 0
          0.342868298125434 -0.0349270592438872 0 0.2870225332070335 -0.005416236802309172 0
          0.2294952872932528 0.021975599911438506 0
          <InformationKey name="L2_NORM_RANGE" location="vtkDataArray" length="2">
            <Value index="0">
              0.23054503656
            </Value>
            <Value index="1">
              0.43844707826
            </Value>
          </InformationKey>
        </DataArray>
        <DataArray type="Float64" Name="Sld_traction" NumberOfComponents="3" format="ascii" RangeMin="0" RangeMax="7.928892639317476">
          2.245185779913123 2.509593650817417 0 0 0 0
          -0.9926967674594512 0.5077896214099952 0 1.5652751027702576 -2.882847311318902 0
          4.305920279888479 2.8167406332017704 0 0 0 0
          6.477718167964702 -4.572363264466512 0
          <InformationKey name="L2_NORM_RANGE" location="vtkDataArray" length="2">
            <Value index="0">
              0
            </Value>
            <Value index="1">
              7.9288926393
            </Value>
          </InformationKey>
        </DataArray>
        <DataArray type="Float64" Name="Fld_traction" NumberOfComponents="3" format="ascii" RangeMin="0" RangeMax="2.606309492068407">
          2.171378321600259 1.4415149506440506 0 0 0 0
          -1.188809201291503 1.6118503228834438 0 -1.0376330629730892 0.2619527795882732 0
          2.414582334135481 -0.04079754687323518 0 0 0 0
          0.004646058744740389 0.11108977198254516 0
          <InformationKey name="L2_NORM_RANGE" location="vtkDataArray" length="2">
            <Value index="0">
              0
            </Value>
            <Value index="1">
              2.6063094921
            </Value>
          </InformationKey>
        </DataArray>
        <DataArray type="Float64" Name="Velocity" NumberOfComponents="3" format="ascii" RangeMin="0.19012710679965042" RangeMax="0.2931529411804817">
          0.2902320171291105 -0.029309548986798578 0 0.27008032873430043 -0.01365802020607363 0
          0.29313945646358364 -0.0028117587026082885 0 0.24867544020081134 0.002050836932832003 0
          0.2468730523681888 -0.025023561262045246 0 0.2199326516028548 -0.009493369219543326 0
          0.1899528457067866 0.008138375015898282 0
          <InformationKey name="L2_NORM_RANGE" location="vtkDataArray" length="2">
            <Value index="0">
              0.1901271068
            </Value>
            <Value index="1">
              0.29315294118
            </Value>
          </InformationKey>
        </DataArray>
      </PointData>
      <CellData>
        <DataArray type="UInt8" Name="vtkGhostType" format="ascii" RangeMin="0" RangeMax="1">
          0 0 1 1 1 1
        </DataArray>
        <DataArray type="Float64" Name="Gauss Stress" NumberOfComponents="6" format="ascii" RangeMin="4.066765936443961" RangeMax="15.245025740842733">
          2.879651508520377 3.939033602707135 0 -0.02063946766801354 0 0
          1.7914335842201292 6.615672726964 0 1.9363993912873574 0 0
          3.6308227929750414 0.7187142705431375 0 1.6849809569106378 0 0
          2.5686687927392695 3.4431837839382196 0 3.641598505140597 0 0
          1.992579083028526 4.010988525657736 0 -4.657651160476194 0 0
          -3.9216430043146593 13.952798423494173 0 4.727678303248426 0 0
          <InformationKey name="L2_NORM_RANGE" location="vtkDataArray" length="2">
            <Value index="0">
              4.0667659364
            </Value>
            <Value index="1">
              15.245025741
            </Value>
          </InformationKey>
        </DataArray>
        <DataArray type="Float64" Name="Gauss Strain" NumberOfComponents="6" format="ascii" RangeMin="0.0003524991513964067" RangeMax="0.0016560402533691767">
          0.00019060290243588796 0.0002964947903605908 0 -0.000004126088611691954 0 0
          0.000059051525306719186 0.0005412098145335942 0 0.000387066639997462 0 0
          0.00030083775948741565 0.000009702848561499167 0 0.00033690831026607224 0 0
          0.0001707932424235281 0.000258211560898447 0 0.0007280433636564793 0 0
          0.0001131654812667193 0.0003149299896867963 0 -0.0009311774677008926 0 0
          -0.0005365692264489574 0.001249685697776115 0 0.0009449065788641956 0 0
          <InformationKey name="L2_NORM_RANGE" location="vtkDataArray" length="2">
            <Value index="0">
              0.0003524991514
            </Value>
            <Value index="1">
              0.0016560402534
            </Value>
          </InformationKey>
        </DataArray>
        <DataArray type="Float64" Name="Btraction" NumberOfComponents="3" format="ascii" RangeMin="0" RangeMax="1.5983687650289877">
          0.32752304010291866 1.0177884245091646 0 -0.7421474214215306 0.6246010341572389 0
          1.528653551911913 0.46690580125693837 0 0 0 0
          0 0 0 -0.34432900140944955 0.12434751719027276 0
          <InformationKey name="L2_NORM_RANGE" location="vtkDataArray" length="2">
            <Value index="0">
              0
            </Value>
            <Value index="1">
              1.598368765
            </Value>
          </InformationKey>
        </DataArray>
      </CellData>
      <Points>
        <DataArray type="Float32" Name="Points" NumberOfComponents="3" format="ascii" RangeMin="11.809237789612487" RangeMax="14.866068747318506">
          11 10 0 10.5 9.17588996887207 0
          10 10 0 10 8.340899467468262 0
          11 8.362662315368652 0 10.5 7.3431549072265625 0
          10 6.2815680503845215 0
          <InformationKey name="L2_NORM_RANGE" location="vtkDataArray" length="2">
            <Value index="0">
              11.80923779
            </Value>
            <Value index="1">
              14.866068747
            </Value>
          </InformationKey>
        </DataArray>
      </Points>
      <Cells>
        <DataArray type="Int64" Name="connectivity" format="ascii" RangeMin="0" RangeMax="6">
          0 2 1 1 2 3
          0 1 4 1 3 4
          4 3 5 5 3 6
        </DataArray>
        <DataArray type="Int64" Name="offsets" format="ascii" RangeMin="3" RangeMax="18">
          3 6 9 12 15 18
        </DataArray>
        <DataArray type="UInt8" Name="types" format="ascii" RangeMin="5" RangeMax="5">
          5 5 5 5 5 5
        </DataArray>
      </Cells>
    </Piece>
  </UnstructuredGrid>
</VTKFile>
