<?xml version="1.0"?>
<VTKFile type="UnstructuredGrid" version="0.1" byte_order="LittleEndian" header_type="UInt32" compressor="vtkZLibDataCompressor">
  <UnstructuredGrid>
    <Piece NumberOfPoints="162" NumberOfCells="295">
      <PointData>
        <DataArray type="Float64" Name="Velocity" NumberOfComponents="3" format="ascii" RangeMin="0" RangeMax="2.943265659885493">
          2.943265659885493 0 0 2.8301035066678963 -0.00576719749430038 0
          2.826563870159715 -0.0009102324808126228 0 2.725367907278066 0 0
          2.9139195667949283 -0.0034926100016421657 0 2.733377659041851 -0.00943391528252907 0
          2.772335076392671 -0.0023700584688534643 0 2.641940615840623 -0.002182856094304353 0
          2.8107702309432496 -0.0020304560224374546 0 2.6826984188769125 -0.0016862733514038664 0
          2.625011199708988 -0.00554164576149474 0 2.7198321815014315 -0.0014987993369228042 0
          2.8453397452012856 0.0024963279083271006 0 2.592632805326716 -0.001802343385361553 0
          2.5544617391809696 -0.009452615128806949 0 2.7571227045557745 0.00041122169129925723 0
          2.629465818510118 -0.00035796741489912964 0 2.5203384300104474 0 0
          2.911519908857052 0.0030404305518400843 0 2.6666063921477132 0.0015442339399340949 0
          2.5005496571519767 -0.001948169856997306 0 2.7933793110769902 -0.0006076252244708868 0
          2.5385375658077116 -0.00047172771141168164 0 2.4566278257923084 -0.0015804211404055746 0
          2.7029626971951126 0.001780290003476681 0 2.575300158632629 0.0007839992226618131 0
          2.43446877968712 -0.003906038449807525 0 2.613241042437316 0.002450667962427988 0
          2.842510936441177 0.0063135026030317065 0 2.4491539449591633 -0.0016710579750108812 0
          2.4097126164857547 -0.002272984714457915 0 2.7374140437363645 0.011457406735634612 0
          2.485647779187496 0.0005206183970797307 0 2.3774278299023948 -0.009650902013313256 0
          2.64371468101597 0.004012723275673258 0 2.5228266915722015 0.00021560658518907094 0
          2.323727717285365 0 0 2.3592315870668124 -0.000923622767289245 0
          2.5595112978115706 0.00960753968337924 0 2.3952430437481214 0.00037321952922986235 0
          2.3186568990169185 -0.0029935565392391617 0 2.9420361700109385 0 0
          2.4339042833741447 0.002032012678152284 0 2.2832372723889973 -0.00612045684753626 0
          2.6248036711844076 0.0027987572915756515 0 2.7278214992740084 0 0
          2.464474457219967 0.0027389764715085585 0 2.3053926189075877 0.00016537894954693488 0
          2.2702225875481927 -0.001709139898976475 0 2.344135666272904 0.0005286467794847205 0
          2.224901506542132 -0.0010555240000014177 0 2.2294844120029476 -0.006162276887551332 0
          2.3804370916939517 0.0021469294265810124 0 2.5160880692521688 0 0
          2.4255655755870453 0.004892075625818615 0 2.2155884770577288 0.00019422014928170694 0
          2.2542099172125862 0.0019075124322129912 0 2.180218203323319 -0.0014811073877554204 0
          2.2892342090242295 0.0013510330606514576 0 2.138509757620797 -0.009815755148150307 0
          2.1197637690827413 0 0 2.321683326637908 0.011863916117148321 0
          2.1633929517879 0.0007512059168144972 0 2.1254227825828593 -0.0003636874155275027 0
          2.2010281758158925 0.002463966873523793 0 2.089857757685845 -0.0023544510996937884 0
          2.317996805319071 0 0 2.2331624736810225 0.0026499268267903275 0
          2.04540643649273 -0.003939278084002851 0 2.023944150024553 -0.005617006749589315 0
          2.2237698035235702 0.001392712899050963 0 2.0742078005309086 0.0011732034585746343 0
          2.1103505702127876 0.0002224282352198126 0 2.035619186888372 -0.0007522271925253232 0
          2.1467551777490925 0.011330166384230345 0 2.000430262986187 -0.0015348845752927165 0
          1.960952833537032 -0.009822191922100543 0 1.983926317962208 -0.0006841258654778359 0
          2.020686311490005 0.0013192527186842717 0 1.9153048973856297 0 0
          2.051973711463342 0.00204349888935651 0 1.9461757318091806 -0.0012250321599275305 0
          2.1126385361814126 0 0 1.9103299387164352 -0.002080452128095267 0
          1.8681592355774708 -0.003630020395771816 0 2.028456503875079 0.00033818170704336126 0
          1.9311416666158223 -0.0007141002064818824 0 1.9703567753476303 0.009793453566608212 0
          1.895140214860687 0.00015492146671192142 0 1.8570915984429384 -0.0014080038477153334 0
          1.8356856988526093 -0.003814330425909951 0 1.819237560570123 -0.001853991513267761 0
          1.7862433623665712 -0.009360507066964008 0 1.871564767880482 0.0037407744189654757 0
          1.8399714529155098 0.0008097770304482665 0 1.8050521666029447 -0.001993363666142667 0
          1.913909176866257 0 0 1.768899836025147 -0.001772512949059557 0
          1.7225444470822247 -0.000031718234937749834 0 1.7172804664521184 0 0
          1.8354096288994644 0.000583315528571049 0 1.681606844188071 -0.0043661902662548435 0
          1.7937096590792283 0.008345765111463344 0 1.7505462660519981 -0.0029029603754460176 0
          1.717895815001171 -0.0026456912766279483 0 1.683257936604539 -0.0002897025229344763 0
          1.6181098955055262 0.0017263628765833428 0 1.6891157024052212 0.004289998080167168 0
          1.6601805491940098 -0.004079423098857005 0 1.5917274059599364 -0.005512150500127433 0
          1.630558900077677 -0.005088840210857537 0 1.6999916603121257 0 0
          1.5953550089895963 -0.005652587326715475 0 1.6033432225920272 -0.003741868199009346 0
          1.5143952614715452 -0.0006964172765765442 0 1.5696559161534154 -0.0033124427032769077 0
          1.5586983918579662 0 0 1.6177040327445678 -0.0002849291332855941 0
          1.5555388004172919 -0.0157845782977913 0 1.4400589597746247 -0.028019439245628996 0
          1.556640673659743 -0.01518528682167064 0 1.5385495130259095 0.007685619169774838 0
          1.4991651304504963 0.005345697414425921 0 1.5334592825295488 -0.0554340244163134 0
          1.5393391703620694 -0.001414293868419847 0 1.4664157398929554 -0.0375822820020284 0
          1.3664748073123967 0.0387338308027213 0 1.3746148714950408 -0.04356042202058941 0
          1.510608559150178 -0.42379817167949696 0 1.5569370275600694 0 0
          1.5272010360027544 0.039429043025060895 0 1.4437994487168133 0.032629302976856955 0
          1.4170198625161916 0.39430906582393765 0 1.8445948815906341 -0.11689889389480346 0
          0 0 0 0 0 0
          1.3363594690132565 0 0 1.4657369616082931 0.04029332728779256 0
          1.2644410549712077 -0.0006624290534817945 0 1.8609793714721654 0.024851843456250133 0
          0 0 0 1.3286952538842343 0.07743307658928172 0
          1.5992839256241709 0.42975769404715525 0 0 0 0
          0 0 0 1.5511412495568742 -0.4053109535532651 0
          1.0925424430180506 0.08793672929633889 0 1.2324675894348225 0.14793489514593183 0
          1.2508786494515398 -0.02798386033951547 0 1.1446931221098318 0.32429061733025577 0
          1.2921970666784386 0 0 0.5795605441339902 -0.022311483256776565 0
          1.1697219602730904 0.10504158657148377 0 1.0920781581013195 -0.28804864573054534 0
          1.0862583062237547 -0.0669258168098259 0 0.9403670004785987 0.027761476699257992 0
          1.2237115488354213 -0.15068389259972648 0 1 0 0
          1 0 0 1.150135260387703 -0.08092542677745529 0
          1 0 0 1 0 0
          <InformationKey name="L2_NORM_RANGE" location="vtkDataArray" length="2">
            <Value index="0">
              0
            </Value>
            <Value index="1">
              2.9432656599
            </Value>
          </InformationKey>
        </DataArray>
        <DataArray type="Float64" Name="Pressure" format="ascii" RangeMin="-0.00017248885060183738" RangeMax="164.08131285202387">
          0.15315872923904017 13.46030901648558 12.168780476733444 25.92206536916961 0.02571393131966815 23.539786306841812
          18.908854569460736 34.54810792263801 14.159011702498791 30.048315770872307 38.90244743342481 25.484273766330087
          9.390159661348171 40.843528776800945 45.18561965739983 20.860808605292004 36.43087721779827 49.84250085469874
          -0.00017248885060183738 31.96241675154645 51.447788995811464 16.194628554852358 47.08211899387729 55.788057772497126
          27.439992557728623 42.77657319331621 60.78038675335314 38.32237354888153 11.433253491265067 57.280784031928704
          61.51080722969398 22.8580198448859 53.1376712460782 65.48573976264966 33.88668717590875 48.82151028090705
          71.91654618368167 67.08673634253687 44.53169333052139 63.10505533493391 71.17121324290733 0.13360153805037278
          58.936503041149315 75.05062268464755 38.58342141162266 25.946173017784602 54.82277816275436 72.73200662996328
          76.54594893479026 68.70353909115354 80.49838875622329 81.85744123434993 64.7454556783948 49.830863818273386
          60.57538382227141 81.95461356857612 78.07398728672024 85.60869240005783 74.28820088179181 89.4053976107177
          92.16106730988778 70.29582192321459 87.1048961286956 90.84776121873934 83.47910207915196 94.3265995225288
          71.91292224350113 79.6219473318654 98.00605372119315 101.78333034153785 83.0729419972367 95.72301696140806
          92.26669454810322 99.32442417523829 88.53605938124852 102.63903566306874 106.21694846870416 104.01534374962277
          100.72338365439165 110.57405080336991 97.15817974186109 107.48263244284423 92.14226690863862 110.62370637491351
          113.75213091769398 101.31101627688489 108.76273373634457 105.29352027274258 111.88308562038813 115.21569507351916
          118.21143629106317 118.25268548048983 121.20926501326163 113.20104338110318 116.48465332665175 119.43867586960094
          110.53756687959223 122.64254750858822 125.87253671471372 127.15097105305576 117.8975365286598 128.52194409180402
          120.56642545099713 123.7748690369031 126.55073383651188 129.70999351830753 133.66545247386148 127.7445159724315
          130.74968435926144 135.9902658629305 133.3714217658226 127.13414191168914 137.04771525239707 134.3334018954402
          140.18416258841066 137.30124250100712 141.793598179354 134.0316759999501 139.62634069215767 143.9844751661445
          143.20254287518623 139.19891814819835 140.7869495198797 145.81400200547716 143.36221123114044 147.5438788439399
          145.4066587663422 149.1012037122803 148.02678103750094 141.71784316005358 146.27460508296386 144.86148832677202
          148.10435834184844 151.15779827991008 148.95807291294494 152.79863473172534 155.28880747385958 148.17377105409253
          155.51492898405183 151.5819729379943 152.41946249711344 150.9058696417983 156.2946921651327 159.34243588468956
          158.98204178337548 156.67796453743054 159.64974784577166 159.45444622917483 156.03969973328128 161.18258605316854
          155.24936140157033 161.6581840147796 161.85606159132917 161.39702217401532 160.0300684412453 163.1909383641913
          159.1845227535194 163.3905099126901 164.08131285202387 162.10378960153196 164.0812395419881 163.5164871027233
        </DataArray>
        <DataArray type="Float64" Name="Temperature" format="ascii" RangeMin="281.9400291480812" RangeMax="600">
          300.00000000000006 297.1875869074812 296.6440182331607 300 296.64749096699785 296.4831911473061
          297.22992051866544 296.47767483590326 297.07680395534686 297.29545499515274 297.482488211608 297.09752733835927
          297.1067387210993 297.2979111082723 296.52246758989526 297.1435202345803 297.0997830705342 300
          296.614181076523 297.12720948099684 297.28082288118276 297.1101086131091 297.10172714865195 296.55004994058044
          297.22860535299486 297.11503176636796 297.4024310129851 297.2762911973874 296.79871736125955 297.10763600917693
          297.2668228747578 296.6621616592085 297.1174188852803 296.6102973182653 296.4625855993468 297.26448771121335
          300 297.1215732367186 296.53578503855397 297.11980291014277 297.20973402344 299.99999999999994
          297.2399335368873 296.7634391822927 297.21287325088247 300 296.4991317146324 297.1281908221949
          297.1559579580469 297.15303731473375 297.0710117130323 296.81566193042755 297.07938177149293 300
          296.85929492563963 297.12329955693826 297.123947646767 297.2305601332755 297.2153866654751 296.5288242420006
          300 296.783087102253 297.11296659623355 297.10854213226736 297.26467025973585 297.3019527084456
          300.00000000000006 296.55571249885264 296.47090356309474 297.37053113284065 297.1335157252178 297.11303157395935
          297.27225798250134 297.1046213907237 296.60941992323194 297.30818005108813 296.4707100931366 297.1119210485291
          297.2822772130934 300 296.52819492452915 297.10129013668876 300 297.3001783350434
          296.5675994204431 297.07009181483596 297.2861146331502 296.55129991043094 297.1143185994806 297.1065310758179
          297.2672248732702 297.2739077361964 296.57016524316765 296.5097298003256 297.2814910140568 297.1261227696117
          300.00000000000006 297.1025628917068 297.25510357335423 299.99999999999994 297.0843398759368 296.6960735963669
          296.5216738399785 297.2577987035376 297.20785028369477 297.1056919931464 297.00154656693485 296.5676258666912
          297.11479925242605 296.7595544038852 297.73210433053504 300 297.11172917947056 296.96628641118883
          295.216290972873 296.7788957441225 300.00000000000006 296.8543277021602 301.805036418807 298.76791412837366
          299.7589393996846 297.1490560348916 295.42979423007694 282.3376667976216 297.0314629376223 297.26445008045414
          345.286552296719 298.27347146557 395.5589017602484 300.00000000000006 282.15496768689604 299.3545696846024
          386.9607750675375 294.1656241061027 600 600 300.00000000000006 296.7652011235926
          294.81164673222713 284.00308227260365 600 299.56997284569854 313.5748383423915 600
          600 301.8763561566956 297.5963236743362 296.6492346351069 296.7337671280889 281.9400291480812
          300 319.95579961154516 296.80050844699235 282.6009936060244 298.78469162924836 299.36616274290265
          296.6721560381298 300.00000000000006 299.99999999999994 296.9856870674045 299.99999999999994 300
        </DataArray>
        <DataArray type="Float64" Name="Density" format="ascii" RangeMin="0.5664767536497097" RangeMax="1.2055260589169836">
          1.1329535072994192 1.1436751303332102 1.1457707936071615 1.1329535072994195 1.1457573805255554 1.1463923161193823
          1.143512239941139 1.1464136460795862 1.1441016183845627 1.1432601692325486 1.1425413785972334 1.1440218140985583
          1.1439863452874572 1.1432507242408556 1.1462404685634293 1.1438447384667934 1.1440131281049564 1.1329535072994195
          1.1458860495349654 1.1439075296520889 1.1433164403129747 1.1439733699280448 1.1440056422821372 1.1461338558463523
          1.1435172997099996 1.143954414454164 1.1428489371527222 1.1433338690442223 1.1451735883889314 1.14398289036007
          1.1433702856676475 1.1457007199329683 1.143945223625744 1.1459010535467866 1.1464719957922902 1.1433792674220087
          1.1329535072994195 1.1439292289928624 1.1461889908013485 1.143936044857356 1.1435899073312992 1.1329535072994197
          1.1434737188421762 1.145309722539791 1.1435778284843072 1.1329535072994195 1.1463306830758324 1.1439037516073922
          1.1437968618411873 1.1438081039361236 1.14412392589201 1.1451082128863328 1.1440916907901029 1.1329535072994195
          1.1449399025048683 1.1439225826337218 1.1439200874979492 1.1435097792011157 1.1435681577696308 1.146215896746823
          1.1329535072994195 1.1452338996417348 1.1439623658422133 1.1439794014354345 1.1433785652793835 1.1432351825927665
          1.1329535072994192 1.1461119710892125 1.1464398296930731 1.1429715341833677 1.1438832518110968 1.1439621156610869
          1.1433493811246689 1.1439944979611745 1.1459044432162495 1.1432112366750935 1.1464405778333053 1.1439663914875706
          1.1433108471050693 1.1329535072994195 1.146218329344135 1.1440073250218903 1.1329535072994195 1.1432420057508008
          1.1460660330192383 1.1441274687513043 1.143296089052944 1.1461290248684917 1.1439571603009913 1.1439871448099912
          1.1433687394724552 1.1433430359836485 1.1460561176514235 1.146289710016297 1.1433138707372619 1.143911713388357
          1.1329535072994192 1.144002424219119 1.1434153631140314 1.1329535072994197 1.1440725967978087 1.145569767978176
          1.1462435368999346 1.1434049961757349 1.143597155544153 1.1439903756460723 1.1443915229351378 1.1460659308194567
          1.1439553096817021 1.1453247153998827 1.1415834814121775 1.1329535072994195 1.1439671302391343 1.1445274017374785
          1.1513119789891861 1.1452500735863291 1.1329535072994192 1.1449590606300346 1.126177535745874 1.137625682401038
          1.1338646075760148 1.1438234289726836 1.1504799408455293 1.2038282247102887 1.1442762622800102 1.143379412162592
          0.9843593673979741 1.1395115043915636 0.8592552226162101 1.1329535072994192 1.2046077195670475 1.1353962378056466
          0.8783475589496234 1.1554241024003273 0.5664767536497097 0.5664767536497097 1.1329535072994192 1.145302922657279
          1.1528922142568507 1.196768885288302 0.5664767536497097 1.1345798411007406 1.0839072866513135 0.5664767536497097
          0.5664767536497097 1.1259114708983715 1.142104337826995 1.1457506459030724 1.1454242484075285 1.2055260589169836
          1.1329535072994195 1.0622906432778458 1.145166677672752 1.2027065009674482 1.1375618018997395 1.135352269193235
          1.1456621232298658 1.1329535072994192 1.1329535072994197 1.1444526352298068 1.1329535072994197 1.1329535072994195
        </DataArray>
        <DataArray type="Float64" Name="stream" format="ascii" RangeMin="-6.73999524221051" RangeMax="0.023873077223845685">
          0.023873077223845685 -0.6418489316752956 -1.3719452507745393 0.005029920286266853 -2.2337210058904393 -1.258881240746488
          -2.139220003951173 -1.1419133456748953 -3.0535911023058633 -2.0170472956940793 -0.5428144902057431 -2.9123379869046517
          -4.0021251583774635 -1.8722119996126125 -1.0112906975965315 -3.8113141143917892 -2.7529473503496185 -0.007704758201634831
          -4.507125049243514 -3.6567709798480155 -1.7092658029408423 -4.733929218755153 -2.5507424937081917 -0.8991068119341236
          -4.53395604410765 -3.406452839723995 -0.42699310686555564 -4.295168754295287 -5.657736879536929 -2.3956313573501307
          -1.5918979779549327 -5.456395823000261 -3.2376607256315832 -0.7945181860816768 -5.238479417944778 -4.124329519103271
          -0.014537766345660086 -2.2250480521634843 -5.038722238654613 -3.01348115304608 -1.4297403641835367 -6.73999524221051
          -3.8737018375079977 -0.6771506657232558 -5.79010469176831 -6.540780006333613 -4.8009588414816955 -2.858375425325369
          -2.0564659645248375 -3.6483455423837867 -1.3082648406100439 -0.6407601221366205 -4.557485438113745 -6.328817509985193
          -5.519639305452927 -2.6319813033415573 -3.4105787439834496 -1.9149615322419062 -4.301356925414895 -1.1756714205692396
          -0.02878252912229966 -5.283414296611797 -3.193939206976315 -2.469837516835492 -4.096871513834231 -1.7637682913499146
          -6.104703647621008 -5.048046924665056 -1.1010699946034923 -0.5497941928311018 -5.546549387568919 -3.015569680465702
          -3.844269564882636 -2.3221205795106665 -4.850418604135444 -1.6869208142517529 -1.0276589887738365 -2.8522875053367898
          -3.6865986853306816 -0.054207873564658546 -4.580061918106945 -2.2315582287267266 -5.82945358953272 -1.5608847875726413
          -0.9139919864563414 -5.18486863513089 -3.512689185381237 -4.403786161332949 -2.716906163880186 -2.076214457011464
          -0.46056759413868664 -1.455102323846295 -0.8187615675131878 -4.165029539220269 -3.2629470162895102 -2.5861028472446255
          -5.4897034406580145 -2.0083540378531777 -1.3555379675624935 -0.0719363710083732 -4.7788941052533565 -0.7078273346976343
          -3.9687638194509347 -3.1725866619359793 -2.5213212202506674 -1.8416031710298766 -1.0962598015798724 -3.7537981453803813
          -2.9179866567367423 -0.5766229198159764 -2.1887953000464795 -5.073351892427514 -1.5437098608411963 -3.368352965031922
          -1.013131982906316 -2.4797296018362225 -0.0680756802373344 -4.282596427718844 -1.9522514941785338 -0.6037019696738543
          -1.4150844942498733 -3.817500680232201 -2.9586578967984507 -1.063894457399021 -2.166168419521233 -0.3502772802368369
          -1.6739734792430498 -0.6229235493393278 -1.4002362378858715 -4.571102867934643 -2.5619684832755367 -3.485265172472794
          -1.7191248895173628 -1.0905322816425158 -1.5399720142238407 -1.4047246557434077 -0.08153983034201148 -3.9575321915395447
          -0.706927857018896 -2.258163383428407 -1.5898101841490824 -3.224743490107276 -1.1806663003695173 -1.356765900000997
          -1.5071963157816792 -1.898984204807747 -0.7506775266146607 -0.4317462444362228 -2.788706773025446 -1.1106142219297497
          -3.924264318253921 -1.3999845411325065 -0.5180518455556566 -1.6420904957060722 -2.356808177820747 -1.369677224358841
          -3.114665699694388 -0.08327123531468499 -0.9514417011943477 -2.468453160794236 -1.7668497595482269 -3.196035896994067
        </DataArray>
      </PointData>
      <CellData>
        <DataArray type="UInt8" Name="vtkGhostType" format="ascii" RangeMin="0" RangeMax="0">
          0 0 0 0 0 0
          0 0 0 0 0 0
          0 0 0 0 0 0
          0 0 0 0 0 0
          0 0 0 0 0 0
          0 0 0 0 0 0
          0 0 0 0 0 0
          0 0 0 0 0 0
          0 0 0 0 0 0
          0 0 0 0 0 0
          0 0 0 0 0 0
          0 0 0 0 0 0
          0 0 0 0 0 0
          0 0 0 0 0 0
          0 0 0 0 0 0
          0 0 0 0 0 0
          0 0 0 0 0 0
          0 0 0 0 0 0
          0 0 0 0 0 0
          0 0 0 0 0 0
          0 0 0 0 0 0
          0 0 0 0 0 0
          0 0 0 0 0 0
          0 0 0 0 0 0
          0 0 0 0 0 0
          0 0 0 0 0 0
          0 0 0 0 0 0
          0 0 0 0 0 0
          0 0 0 0 0 0
          0 0 0 0 0 0
          0 0 0 0 0 0
          0 0 0 0 0 0
          0 0 0 0 0 0
          0 0 0 0 0 0
          0 0 0 0 0 0
          0 0 0 0 0 0
          0 0 0 0 0 0
          0 0 0 0 0 0
          0 0 0 0 0 0
          0 0 0 0 0 0
          0 0 0 0 0 0
          0 0 0 0 0 0
          0 0 0 0 0 0
          0 0 0 0 0 0
          0 0 0 0 0 0
          0 0 0 0 0 0
          0 0 0 0 0 0
          0 0 0 0 0 0
          0 0 0 0 0 0
          0
        </DataArray>
      </CellData>
      <Points>
        <DataArray type="Float32" Name="Points" NumberOfComponents="3" format="ascii" RangeMin="0.22994902639587697" RangeMax="7.102112369882704">
          7 1.2000000476837158 0 6.599672794342041 0.9660372734069824 0
          6.6399030685424805 0.7036619186401367 0 6.222221851348877 1.2000000476837158 0
          7 0.4000000059604645 0 6.291684150695801 0.7389311790466309 0
          6.435248851776123 0.4197305142879486 0 5.9434661865234375 0.7742003798484802 0
          6.57881498336792 0.10052960366010666 0 6.08703088760376 0.45499980449676514 0
          5.801344871520996 0.9959174990653992 0 6.23059606552124 0.1357990950345993 0
          6.722381114959717 -0.21868319809436798 0 5.7388129234313965 0.49026909470558167 0
          5.5952467918396 0.8094696998596191 0 6.3741607666015625 -0.18340149521827698 0
          5.882378101348877 0.17106840014457703 0 5.444444179534912 1.2000000476837158 0
          7 -0.4000000059604645 0 6.025942802429199 -0.14813220500946045 0
          5.384244918823242 0.5261802077293396 0 6.51772403717041 -0.5026149749755859 0
          5.531583786010742 0.20377269387245178 0 5.236144065856934 0.8432719111442566 0
          6.169507026672363 -0.4673318862915039 0 5.674856185913086 -0.1111351028084755 0
          5.060293197631836 1.0298899412155151 0 5.821293830871582 -0.43206480145454407 0
          6.6612749099731445 -0.8218216896057129 0 5.183467864990234 0.23962560296058655 0
          5.035661220550537 0.5564131140708923 0 6.313057899475098 -0.7865372896194458 0
          5.326355934143066 -0.07969167828559875 0 4.893916130065918 0.8762899041175842 0
          5.964842796325684 -0.7512490749359131 0 5.473134994506836 -0.3970530033111572 0
          4.6666669845581055 1.2000000476837158 0 4.836434841156006 0.26916739344596863 0
          5.616653919219971 -0.7159011960029602 0 4.978854179382324 -0.04412427172064781 0
          4.688116073608398 0.5933424234390259 0 7 -1.2000000476837158 0
          5.12586784362793 -0.3661642074584961 0 4.545888900756836 0.9131073951721191 0
          5.81204080581665 -0.966787576675415 0 6.222221851348877 -1.2000000476837158 0
          5.268884181976318 -0.6795946955680847 0 4.630309104919434 -0.01361996028572321 0
          4.488448143005371 0.30607008934020996 0 4.777815818786621 -0.33047690987586975 0
          4.339453220367432 0.6220952272415161 0 4.286639213562012 0.9191486239433289 0
          4.920590877532959 -0.6494935750961304 0 5.444444179534912 -1.2000000476837158 0
          5.067508220672607 -0.9653593897819519 0 4.283215045928955 0.02286371961236 0
          4.43105411529541 -0.300768107175827 0 4.142016887664795 0.33384108543395996 0
          4.573105812072754 -0.6119378209114075 0 3.992300033569336 0.6605401039123535 0
          3.8888890743255615 1.2000000476837158 0 4.721052169799805 -0.9289693236351013 0
          4.083156108856201 -0.26410868763923645 0 3.9346089363098145 0.05202680081129074 0
          4.2248640060424805 -0.583368182182312 0 3.794219970703125 0.37224650382995605 0
          4.6666669845581055 -1.2000000476837158 0 4.372566223144531 -0.8980712890625 0
          3.6435329914093018 0.6871886849403381 0 3.4845330715179443 0.9496920704841614 0
          4.238772869110107 -1.0396209955215454 0 3.7371129989624023 -0.2360759973526001 0
          3.8777899742126465 -0.544031023979187 0 3.5880980491638184 0.08982273191213608 0
          4.026970863342285 -0.8604139089584351 0 3.4486160278320312 0.3975287973880768 0
          3.294600009918213 0.7115796804428101 0 3.3894379138946533 -0.1980305016040802 0
          3.5296289920806885 -0.5176354050636292 0 3.1111109256744385 1.2000000476837158 0
          3.678446054458618 -0.8306925892829895 0 3.2394111156463623 0.11707709729671478 0
          3.8888890743255615 -1.2000000476837158 0 3.1010890007019043 0.43808528780937195 0
          2.961361885070801 0.7589535117149353 0 3.503129005432129 -1.0054839849472046 0
          3.18314790725708 -0.47578510642051697 0 3.3340699672698975 -0.7912443280220032 0
          3.044409990310669 -0.17236250638961792 0 2.893527030944824 0.1568426936864853 0
          2.7548489570617676 0.9893125891685486 0 2.7534260749816895 0.4774535000324249 0
          2.6135880947113037 0.7982968091964722 0 2.9854938983917236 -0.7631890773773193 0
          2.8351199626922607 -0.4524492025375366 0 2.697058916091919 -0.13238230347633362 0
          3.1111109256744385 -1.2000000476837158 0 2.544728994369507 0.1811445951461792 0
          2.388031005859375 0.49400800466537476 0 2.3333330154418945 1.2000000476837158 0
          2.7681961059570312 -0.9710931181907654 0 2.2573049068450928 0.8266525864601135 0
          2.6428470611572266 -0.721183180809021 0 2.489516019821167 -0.40704599022865295 0
          2.353508949279785 -0.11029759794473648 0 2.1956899166107178 0.20170240104198456 0
          1.9920220375061035 0.5723655819892883 0 2.2942399978637695 -0.6953821182250977 0
          2.141784906387329 -0.3882349133491516 0 1.8683220148086548 0.8697000741958618 0
          2.0066850185394287 -0.0679963231086731 0 2.3333330154418945 -1.2000000476837158 0
          1.8129379749298096 0.2728925049304962 0 1.954548954963684 -0.6485614776611328 0
          1.6430920362472534 0.5740132927894592 0 1.7980589866638184 -0.3366861045360565 0
          1.555556058883667 1.2000000476837158 0 1.9700770378112793 -0.9401506781578064 0
          1.6666820049285889 -0.05719396844506264 0 1.4286249876022339 0.8451691269874573 0
          1.4677189588546753 0.2914707064628601 0 1.6918359994888306 -0.8584386110305786 0
          1.606449007987976 -0.6244480013847351 0 1.3151990175247192 0.5185866951942444 0
          1.4524099826812744 -0.32973089814186096 0 1.2210429906845093 1.0129400491714478 0
          1.3220579624176025 -0.01946846954524517 0 1.1222139596939087 0.8065894842147827 0
          1.1284430027008057 0.23862800002098083 0 1.555556058883667 -1.2000000476837158 0
          1.2835420370101929 -0.5449687838554382 0 1.3725509643554688 -0.8790327906608582 0
          1.1284430027008057 -0.23862800002098083 0 0.9798405170440674 0.4904909133911133 0
          1 0 0 0.861803412437439 0.19021129608154297 0
          0.7777777910232544 1.2000000476837158 0 1.1798269748687744 -1.0302430391311646 0
          0.729131281375885 0.7251076102256775 0 0.9428092837333679 -0.5025230050086975 0
          0.861803412437439 -0.19021129608154297 0 1.0134249925613403 -0.8419373035430908 0
          0.6745458245277405 0.38610830903053284 0 0.638196587562561 0.1175571009516716 0
          0.638196587562561 -0.1175571009516716 0 0.6745458245277405 -0.38610830903053284 0
          0.4659998118877411 0.650235116481781 0 0.44361230731010437 0.9165406823158264 0
          0.6880131959915161 -0.7223715782165527 0 0.3890891969203949 0.32260850071907043 0
          0.7777777910232544 -1.2000000476837158 0 0.39402180910110474 4.742348735931046e-10 0
          0.24515259265899658 0.8073607087135315 0 0.366202712059021 -0.29110780358314514 0
          0.4311263859272003 -0.628279983997345 0 0.22986270487308502 0.006300130859017372 0
          0.4553210139274597 -0.959943413734436 0 0 1.2000000476837158 0
          0 0.4000000059604645 0 0.2216119021177292 -0.7970559000968933 0
          0 -0.4000000059604645 0 0 -1.2000000476837158 0
          <InformationKey name="L2_NORM_RANGE" location="vtkDataArray" length="2">
            <Value index="0">