<?xml version="1.0"?>
<VTKFile type="UnstructuredGrid" version="0.1" byte_order="LittleEndian" header_type="UInt32" compressor="vtkZLibDataCompressor">
  <UnstructuredGrid>
    <Piece NumberOfPoints="162" NumberOfCells="295">
      <PointData>
        <DataArray type="Float64" Name="Velocity" NumberOfComponents="3" format="ascii" RangeMin="0" RangeMax="2.9491301360987663">
          2.9491301360987663 0 0 2.8287655680370056 -0.011881119596348175 0
          2.8326671125542804 -0.0076048206725929934 0 2.732896843814944 0 0
          2.9217416638752756 -0.008179808267489604 0 2.7376659177025404 -0.010151705766671841 0
          2.7779395803670037 -0.0037573702146512997 0 2.6478616345963526 -0.0068597027943057 0
          2.817034484959084 -0.0017470269599106011 0 2.687822097718078 -0.003452104499464804 0
          2.6224046524323548 -0.00882798255802119 0 2.725827323640205 -0.001863768702236682 0
          2.852052598547561 0.002663518102684649 0 2.5965876603955675 -0.0029670300906499214 0
          2.5577763509927154 -0.009665728662753613 0 2.7630330625563264 0.0016500946636128187 0
          2.634781074752518 -0.0011449041618344091 0 2.5276896227404317 0 0
          2.9212374318225267 0.0073126574586803855 0 2.6720348100584896 0.0018011913321430337 0
          2.50363289930904 -0.0035204172234521956 0 2.79858876751461 0.003186734529175915 0
          2.5436651726932484 -0.0012106136627156243 0 2.464338677417607 -0.006089734555244482 0
          2.708336427030495 0.0034716942467209605 0 2.5801141418019267 0.001099793254021167 0
          2.4322302650637515 -0.007391937081319924 0 2.6177520129735505 0.003113811364038502 0
          2.8439999394148763 0.012128478853466587 0 2.453435463346825 -0.0020471868309947377 0
          2.4119182488034197 -0.0034380517083304907 0 2.7439960185877106 0.010538550075226527 0
          2.4896389407057433 0.0007772942589908093 0 2.380787044179633 -0.00960570882312566 0
          2.6525934562471196 0.007984490321992554 0 2.5270629789510415 0.0019529943910435825 0
          2.32708058879169 0 0 2.3636297168639873 -0.0014989787467969869 0
          2.564040502333597 0.01048303482158923 0 2.398990689709593 0.00036775359303317656 0
          2.3202077031185526 -0.0037880925190795327 0 2.9454479150547765 0 0
          2.437759682453365 0.002375201965745942 0 2.290849178710554 -0.007257364673928797 0
          2.6250333872304257 0.008841298517328072 0 2.73704089445685 0 0
          2.4710649619914875 0.005494890953855719 0 2.308776771309663 0.00001959649650315476 0
          2.273830258642521 -0.002555715058173945 0 2.347433224145072 0.0018536131613185215 0
          2.2285709861477976 -0.003772901774978882 0 2.2294778593735187 -0.010276142541922273 0
          2.3828708928372433 0.0045461468194194915 0 2.5213878210701766 0 0
          2.424022917927987 0.010293044763592663 0 2.2185058231730204 -0.00041526207980653205 0
          2.2573061112247825 0.002041565736560733 0 2.1834685577718287 -0.002316325935643175 0
          2.2926991764359834 0.0024800920897323046 0 2.140591408782904 -0.00987071659496403 0
          2.1239087885412 0 0 2.326691840201939 0.009103706523261354 0
          2.1666020987959747 0.0013024625653032984 0 2.128055417721492 -0.0008867949749407286 0
          2.203300960881915 0.002990295988176725 0 2.0925548246116343 -0.0032123741761111366 0
          2.328332451779302 0 0 2.238898654042421 0.006197680623692359 0
          2.0492623897198166 -0.007384436104741959 0 2.0205270390398242 -0.008971988137703044 0
          2.218524384021963 0.00645324717043011 0 2.077076890135874 0.00144413761709054 0
          2.112966240517084 0.001614395460816053 0 2.037978482504937 -0.0012483612671436578 0
          2.149422192505787 0.010300940715440219 0 2.0023178449314476 -0.002209478628269569 0
          1.9602985202503334 -0.010329696679051644 0 1.9862270097560877 0.0003248781416548899 0
          2.02279068249614 0.002049092618565951 0 1.9215554271279323 0 0
          2.058290308690595 0.005357254197760411 0 1.9480439814410133 -0.0017916467164351066 0
          2.121690534878308 0 0 1.9117065243674358 -0.004047705903915573 0
          1.8714416263956228 -0.00794697054534061 0 2.026262368912633 0.005494304916741244 0
          1.9326948321165291 0.002137480138040347 0 1.9721852583328634 0.00983678929448513 0
          1.896218607410415 0.001254963345470336 0 1.857753520306165 -0.0023988844307354824 0
          1.8331500895153028 -0.011931952777724977 0 1.820878821716612 -0.0028552285827421683 0
          1.7803361250128507 -0.013241992355834599 0 1.8795990111972545 0.0076317277063443385 0
          1.8407252528180285 0.003363044409552478 0 1.8039419963820487 -0.0005237384928149687 0
          1.9237302482092193 0 0 1.7687078376591419 -0.003459441996828065 0
          1.7260328283119146 -0.004557636949283593 0 1.7231286707064177 0 0
          1.8364717425073935 0.01077576230666566 0 1.676564091624667 -0.006221678155125421 0
          1.7963164883988754 0.014703248712255243 0 1.7481145202574613 0.004029880140718568 0
          1.7117222641368617 -0.00034818813823694894 0 1.6791367398137094 -0.006878489872160304 0
          1.630420459714013 -0.010713464788017959 0 1.6983122996288085 0.010195350408432283 0
          1.6551967267016627 0.009231595119271907 0 1.567232695514415 -0.014950805598764563 0
          1.6121460066826239 -0.001818274548959338 0 1.7024802594848083 0 0
          1.5889371217897632 -0.023287354770031903 0 1.624752299640384 0.010686906307645128 0
          1.591185769319312 -0.050833878697547366 0 1.5568868686670134 0.033757926564558866 0
          1.616253858280855 0 0 1.6131683564855308 0.01048646199398054 0
          1.4904747449675346 0.004964906884979001 0 1.459684284947103 -0.055946221924465585 0
          1.4563954552299285 -0.1774548401669806 0 1.5312781352909557 0.020989919574316847 0
          1.5951171349801005 0.05139156337990771 0 1.7288349611071685 -0.19024868894771363 0
          1.483685629166272 0.2001797801775759 0 1.4997903161225064 -0.05234321891839254 0
          1.0325687954034874 0.06405463702571637 0 1.4834087454837308 -0.08604203265537425 0
          1.205601400236937 -0.3927871516778878 0 1.6238882624308717 0 0
          1.7553493927134398 0.15272799169620746 0 1.4617837704622954 0.0689101975035222 0
          1.221797385001328 0.38268644436078114 0 1.947700552656285 -0.01698185431877222 0
          0 0 0 0 0 0
          1.3681422663221148 0 0 1.5123311048505377 0.05322290754971165 0
          1.3572902104868203 0.07246919471910121 0 1.9660621473695081 -0.08627310918212316 0
          0 0 0 1.432729939463287 0.0852843333053917 0
          1.5617509785146142 0.5209117166531945 0 0 0 0
          0 0 0 1.5437764624907797 -0.550298256543919 0
          1.137989706881371 0.16462161147369037 0 1.250949655597958 0.13997081954101365 0
          1.3267931149412984 -0.09907874028251631 0 1.1641586826601553 0.39395325334269105 0
          1.3415329209734637 0 0 0.5353638510743215 -0.0008829370580660731 0
          1.1583689112063489 0.11248526886527856 0 1.1132295464609552 -0.3322292511753127 0
          1.1156688803540993 -0.13983496019337469 0 0.918866936847576 0.03588458213385846 0
          1.2459526224754063 -0.14102976100557818 0 1 0 0
          1 0 0 1.1420693063576475 -0.09852358232651073 0
          1 0 0 1 0 0
          <InformationKey name="L2_NORM_RANGE" location="vtkDataArray" length="2">
            <Value index="0">
              0
            </Value>
            <Value index="1">
              2.9491301361
            </Value>
          </InformationKey>
        </DataArray>
        <DataArray type="Float64" Name="Pressure" format="ascii" RangeMin="-0.015279484460423376" RangeMax="5.980120018304823">
          0.11575525919902674 0.38524614181464667 0.34187617437478135 0.7139603073962864 0.010638885455707126 0.6251575178144568
          0.5010347088796059 0.9127165876638674 0.36412702305412914 0.7870062583029451 1.020114456271279 0.6631335467511876
          0.23561860482286434 1.0669442505108693 1.176377405517862 0.5407431237244742 0.9486061377995889 1.3193484589732207
          -0.015279484460423376 0.8325937434241988 1.3360207066321075 0.42523554374040806 1.2230433779176306 1.4586253452900153
          0.7212743106743056 1.1119263745817847 1.5781139102900923 1.0047300763416809 0.31793609655786703 1.4825249058252776
          1.5950687965935173 0.607767120799104 1.377426799031376 1.6932820070028691 0.8937245482415332 1.271182760946688
          1.8723613159733896 1.7338297888365526 1.1544601385339535 1.6315509943919553 1.839327119157681 0.09668490251558737
          1.528215377555826 1.9407143127073407 1.0087396676248948 0.7061131620200354 1.4324239153832172 1.8761580619273652
          1.9730034362554298 1.7746377836661629 2.0794766088369174 2.1016886024410435 1.6776434908696336 1.340962714454937
          1.5776799023112367 2.111061890732558 2.013811445106459 2.2071519484307673 1.9220391188307149 2.2968450922585353
          2.400796833673577 1.8249292597658275 2.24340738793319 2.3375620706413276 2.1553617691380396 2.426457923114015
          1.871735405258343 2.0568883736292536 2.5264360908979553 2.6170767624113376 2.138899552088939 2.4619736319639127
          2.377411297095968 2.5533986938393447 2.2777210664944287 2.6398127901124813 2.7234620217736927 2.672206257799257
          2.59437942362304 2.8585994972622912 2.5054604387328525 2.759133216519965 2.3881111988421257 2.8394709774644253
          2.9267617600062543 2.602147654425565 2.796314901064566 2.7011429565437437 2.870737769276853 2.9534937386052817
          3.0386653946162077 3.033536254478946 3.1016271366268393 2.918038183251004 2.996223974923116 3.057530864023251
          2.849057982413165 3.1336080778648894 3.223533432571095 3.312066539376816 3.0358699336015285 3.3010282815130365
          3.092869853139068 3.1737652727631596 3.2233474065353453 3.294434929593033 3.43189995923211 3.3038122730359856
          3.3403210345865437 3.4740895757701016 3.3513345830532097 3.3537631357018536 3.4070955705988384 3.478183408004072
          3.5810458453425076 3.4663905045822134 3.585454799338377 3.4831287557253168 3.376358782232636 3.7101418742668626
          3.476858426852492 3.6114643381676372 3.675235133909319 3.639808148152455 3.4691434017891867 3.9106749673108867
          3.363015857240564 3.9123961279791164 3.0798466615887627 3.636249367960763 3.737359223713991 3.83547106596635
          3.0552612259242036 3.6562286531669352 3.1636351101101305 3.633287512022462 4.564509638316752 4.062803758909676
          4.507270745350619 3.8433565572602024 3.9124400139476685 4.218689063266321 4.548019598953111 5.815148801828254
          5.980120018304823 4.753311496040883 4.989473970451591 4.812197966789944 4.677750076048941 5.431083452950311
          4.703666757670981 5.921241649038874 4.992891578099962 5.613568016426835 5.118740068215525 5.724594790415397
          4.882020271941071 5.05719505288419 5.494866551363119 5.104841739389955 5.6051295541195225 5.187685840419712
        </DataArray>
        <DataArray type="Float64" Name="Temperature" format="ascii" RangeMin="265.4662813306633" RangeMax="600">
          300 294.9390837865459 293.1749215334081 300 293.31168907341834 292.9636594851687
          294.5597030702235 292.8560369702439 294.21390211054785 294.6994591340817 295.4414713045549 294.2335694214225
          294.28731060493925 294.6982682690094 293.04619575898266 294.37546265324414 294.236593166461 299.99999999999994
          293.2363513998229 294.34248262211617 294.6428784799607 294.2164937300773 294.2502218622152 293.0342453608261
          294.4516274178352 294.30826711666566 295.3691713191992 294.57482958551793 293.8266803014909 294.28393648135005
          294.56175400749316 293.35622512464556 294.2990182702456 293.36426659138647 292.87708956540285 294.55077634243804
          300.00000000000006 294.34353227450504 293.14813330105187 294.27750248510495 294.3442086506521 299.99999999999994
          294.5859228004402 293.818876424464 295.1242618646174 300 292.9036854082354 294.2867931903034
          294.4468082975151 294.40390524748943 293.9076871935692 294.2385629620464 294.12154684039774 300.00000000000006
          293.9764538355047 294.2806464854952 294.33582943275627 294.560636171256 294.4377899905764 293.0780285086078
          300 293.60843066568435 294.30725697264273 294.255555318713 294.563109579499 294.71088805573305
          300.00000000000006 293.0682410498993 292.8062351169484 295.25444264193186 294.99833698397407 294.3054817573962
          294.57597126183475 294.24664959308103 293.27753887844415 294.7234528225811 292.952492221383 294.3060548207549
          294.60621085284555 300 292.9491267798544 294.2404173652677 299.99999999999994 294.7024884969966
          292.99795556428785 294.85453176819965 294.5995487716268 293.1692779350289 294.3255972042705 294.26397036868656
          295.1064909210923 294.5727340951891 293.2929294773745 292.89946317722956 294.5691402544007 294.41376814322103
          300 294.3263457705295 294.2895054186298 300 294.83594188433483 293.65634626911157
          293.1418179707906 294.45897591208717 294.87889783040384 294.7110507737914 292.347094960348 292.89368674145874
          294.1702088663047 294.9014425032234 297.46956253104906 300.00000000000006 296.87243713477415 292.36161676060095
          284.7843226579588 294.6590872488642 300 294.53086942935056 312.08067370454444 295.3320839329266
          317.5501547208191 295.77032133518 284.1692975336205 277.31282043672076 309.08902129967083 295.4270123402188
          390.11337534687635 294.66952256445956 435.1606154799959 300 271.34549092939886 297.6590186551031
          430.58898962974223 294.44622560724804 600 599.9999999999999 300.00000000000006 295.0538506118874
          292.2398502174741 282.374365167686 600 296.7617420587353 317.28238014173263 599.9999999999999
          600 307.5824073219426 293.9121404027977 294.2998233985683 293.8540939028863 265.4662813306633
          299.99999999999994 335.3277813200973 295.1631091476134 266.5080054224028 296.7461489870146 300.6882532592106
          294.0059300673224 300 300 295.48369592914236 300 300
        </DataArray>
        <DataArray type="Float64" Name="Density" format="ascii" RangeMin="0.5452756050095987" RangeMax="1.2324177721020768">
          1.0905512100191974 1.1092641870500155 1.115939116806339 1.0905512100191974 1.1154187684755619 1.1167438431807342
          1.1106928734503865 1.1171542386165711 1.1119983136719018 1.1101661467824624 1.1073779234889534 1.1119239849113527
          1.111720931266916 1.1101706329238177 1.1164293129907683 1.11138802146407 1.1119125581387803 1.0905512100191976
          1.1157053395459646 1.1115125485497173 1.1103793334275698 1.1119885185835645 1.1118610580316122 1.1164748427369162
          1.1111005426419407 1.1116417700766414 1.1076489856559828 1.1106358390025985 1.1134637694237297 1.1117336777452445
          1.1106851400587352 1.1152494305063694 1.1116767053070271 1.1152188601805848 1.1170739353195442 1.1107265343799475
          1.0905512100191972 1.1115085848077835 1.1160410926777862 1.111757984361441 1.111506030662426 1.0905512100191976
          1.1105940158158514 1.1134933432020935 1.1085681703656072 1.0905512100191974 1.1169725042884713 1.1117228858931314
          1.1111187276826742 1.1112806493878844 1.1131568763299693 1.1119051143814893 1.1123474853180082 1.0905512100191972
          1.1128964879235719 1.111746106694396 1.1115376732634692 1.110689355028236 1.1111527600320268 1.116308051717873
          1.0905512100191974 1.1142914468225344 1.111645585539098 1.1118409052682152 1.1106800287137153 1.1101230944134262
          1.0905512100191972 1.116345332519515 1.1173442494320094 1.1080793910441753 1.1090413808791493 1.1116522908514843
          1.1106315345556725 1.1118745564586787 1.115548651481833 1.110075767206445 1.1167864131311833 1.1116501262776162
          1.110517534775181 1.0905512100191974 1.1167992429334588 1.1118981067771485 1.0905512100191976 1.110154734947525
          1.1166131257662464 1.1095822778907152 1.1105426480451854 1.1159605989760784 1.1115763158672773 1.1118091100172751
          1.1086349269533318 1.1106437396885418 1.1154901128668284 1.1169886057721992 1.1106572899089404 1.1112434213559121
          1.0905512100191974 1.111573488772332 1.111712640042543 1.0905512100191974 1.1096522388512162 1.1141096290353603
          1.1160651362213998 1.111072814107174 1.109490592283496 1.1101224814840027 1.119099073141581 1.1170106349699254
          1.112163479322443 1.109405773768581 1.0998280302093448 1.0905512100191972 1.102040210143297 1.1190434867298507
          1.148818024644925 1.1103182530713562 1.0905512100191974 1.1108016067709219 1.0483358649613013 1.1077880826522808
          1.03027933742748 1.1061466935859363 1.151304401444184 1.1797700607225052 1.0584826391765072 1.1074321214371214
          0.8386417479658426 1.1102789326785267 0.751826685061757 1.0905512100191974 1.205715126811833 1.0991280038615092
          0.7598089381873986 1.111120926515642 0.5452756050095987 0.5452756050095988 1.0905512100191972 1.1088327175777521
          1.119509754615241 1.1586227482493832 0.5452756050095987 1.102451282082737 1.0311488550344705 0.5452756050095988
          0.5452756050095987 1.063667346433502 1.1131400103357043 1.1116736640466185 1.1133598945668652 1.2324177721020768
          1.0905512100191976 0.9756583892864326 1.1084222684554432 1.2276005086121797 1.1025092124112983 1.0880550186432585
          1.1127849119602582 1.0905512100191974 1.0905512100191974 1.10721967916705 1.0905512100191974 1.0905512100191974
        </DataArray>
        <DataArray type="Float64" Name="stream" format="ascii" RangeMin="-6.75287467044442" RangeMax="0.025273099706002222">
          0.025273099706002222 -0.6424457564210937 -1.3733673754827715 0.005584490220275118 -2.2362372646081905 -1.2608211154215663
          -2.1427209672230805 -1.1438272702026706 -3.0590780641281707 -2.0206165002607728 -0.5438652550387607 -2.917566011719114
          -4.009894770525165 -1.875751635858524 -1.013262153826868 -3.818515360286965 -2.7580516404174413 -0.007431782752831762
          -4.516609344880443 -3.6635482286948253 -1.7126300707812057 -4.743217300688192 -2.5554258524795403 -0.900885321338635
          -4.542566618027027 -3.4127664068907015 -0.4279738564772623 -4.3030154947885455 -5.669182614772564 -2.4000411027986215
          -1.5950793736364164 -5.466921967447844 -3.2435334419173727 -0.7964345312691984 -5.248344715613572 -4.131590571894669
          -0.014987528560768237 -2.2288401293961275 -5.047480046330325 -3.0186886733969107 -1.4322873450316846 -6.75287467044442
          -3.8802882842411104 -0.6783094565570634 -5.800557442725762 -6.5534069828763934 -4.8090379868994235 -2.863076495763925
          -2.0598136447862925 -3.654333455300792 -1.3105136427402069 -0.641998121378979 -4.564516002719543 -6.3385210469399365
          -5.527909713987821 -2.636300918695398 -3.416025067242119 -1.9182721164175767 -4.307726863566803 -1.1780825360782086
          -0.029628664184915898 -5.290581522733266 -3.199111365161444 -2.4740007418892525 -4.102720759727045 -1.7670139621988243
          -6.112503773492282 -5.0549643677475204 -1.1035035474943746 -0.5516838259545626 -5.552887099806576 -3.020584613106228
          -3.849865356458121 -2.3262400333037045 -4.856390133890385 -1.6903153547809746 -1.0305027945033498 -2.857157457049133
          -3.691705099222119 -0.055602833432963725 -4.585814355759401 -2.235675360532816 -5.835167929929265 -1.5645174793598269
          -0.9171421510248446 -5.189483278069648 -3.517245944084904 -4.408485403838811 -2.7215183150521103 -2.0805232024370643
          -0.4633614720881415 -1.4590626291037692 -0.82238430854371 -4.16938801307169 -3.2670988371665306 -2.5904555876679547
          -5.493647108842721 -2.0130690409880727 -1.3597977908269474 -0.07615954967771388 -4.781556091321389 -0.7123099016918965
          -3.9714553388631955 -3.17525756211865 -2.5252932149450995 -1.8482480988499492 -1.1041171463660546 -3.754477110658517
          -2.9161649442320416 -0.5833950612458104 -2.1885515454011295 -5.07456198807211 -1.553912445097261 -3.3685525461175527
          -1.032056395595375 -2.4790040628970353 -0.06935097213128161 -4.279949405242924 -1.953105132653347 -0.6185375007760764
          -1.4519180070643314 -3.8170877849555276 -2.9641881870148414 -1.1192255786576413 -2.152509304709241 -0.3611087354276745
          -1.69411697688475 -0.6532481454946638 -1.4631215827594002 -4.57101488646015 -2.547902838602225 -3.495906829862017
          -1.7191693363583658 -1.1512496630095335 -1.5696917180269194 -1.453893272548936 -0.08692328138859673 -3.9594282219246675
          -0.7384050536809834 -2.2467978084186297 -1.5989807117921429 -3.2281718333292595 -1.2220187550938448 -1.3828445241443734
          -1.5205714863527477 -1.9008904388824759 -0.7700824398118159 -0.4423177941747837 -2.7918915411670278 -1.1296094404512782
          -3.9363691284799076 -1.415776272122572 -0.526990965481482 -1.6528577427440994 -2.362571851868001 -1.3804304796342062
          -3.1222486394768785 -0.0913737220846191 -0.958490571435029 -2.477704672082385 -1.7749725048780711 -3.203155292793879
        </DataArray>
      </PointData>
      <CellData>
        <DataArray type="UInt8" Name="vtkGhostType" format="ascii" RangeMin="0" RangeMax="0">
          0 0 0 0 0 0
          0 0 0 0 0 0
          0 0 0 0 0 0
          0 0 0 0 0 0
          0 0 0 0 0 0
          0 0 0 0 0 0
          0 0 0 0 0 0
          0 0 0 0 0 0
          0 0 0 0 0 0
          0 0 0 0 0 0
          0 0 0 0 0 0
          0 0 0 0 0 0
          0 0 0 0 0 0
          0 0 0 0 0 0
          0 0 0 0 0 0
          0 0 0 0 0 0
          0 0 0 0 0 0
          0 0 0 0 0 0
          0 0 0 0 0 0
          0 0 0 0 0 0
          0 0 0 0 0 0
          0 0 0 0 0 0
          0 0 0 0 0 0
          0 0 0 0 0 0
          0 0 0 0 0 0
          0 0 0 0 0 0
          0 0 0 0 0 0
          0 0 0 0 0 0
          0 0 0 0 0 0
          0 0 0 0 0 0
          0 0 0 0 0 0
          0 0 0 0 0 0
          0 0 0 0 0 0
          0 0 0 0 0 0
          0 0 0 0 0 0
          0 0 0 0 0 0
          0 0 0 0 0 0
          0 0 0 0 0 0
          0 0 0 0 0 0
          0 0 0 0 0 0
          0 0 0 0 0 0
          0 0 0 0 0 0
          0 0 0 0 0 0
          0 0 0 0 0 0
          0 0 0 0 0 0
          0 0 0 0 0 0
          0 0 0 0 0 0
          0 0 0 0 0 0
          0 0 0 0 0 0
          0
        </DataArray>
      </CellData>
      <Points>
        <DataArray type="Float32" Name="Points" NumberOfComponents="3" format="ascii" RangeMin="0.22994902639587697" RangeMax="7.102112369882704">
          7 1.2000000476837158 0 6.599672794342041 0.9660372734069824 0
          6.6399030685424805 0.7036619186401367 0 6.222221851348877 1.2000000476837158 0
          7 0.4000000059604645 0 6.291684150695801 0.7389311790466309 0
          6.435248851776123 0.4197305142879486 0 5.9434661865234375 0.7742003798484802 0
          6.57881498336792 0.10052960366010666 0 6.08703088760376 0.45499980449676514 0
          5.801344871520996 0.9959174990653992 0 6.23059606552124 0.1357990950345993 0
          6.722381114959717 -0.21868319809436798 0 5.7388129234313965 0.49026909470558167 0
          5.5952467918396 0.8094696998596191 0 6.3741607666015625 -0.18340149521827698 0
          5.882378101348877 0.17106840014457703 0 5.444444179534912 1.2000000476837158 0
          7 -0.4000000059604645 0 6.025942802429199 -0.14813220500946045 0
          5.384244918823242 0.5261802077293396 0 6.51772403717041 -0.5026149749755859 0
          5.531583786010742 0.20377269387245178 0 5.236144065856934 0.8432719111442566 0
          6.169507026672363 -0.4673318862915039 0 5.674856185913086 -0.1111351028084755 0
          5.060293197631836 1.0298899412155151 0 5.821293830871582 -0.43206480145454407 0
          6.6612749099731445 -0.8218216896057129 0 5.183467864990234 0.23962560296058655 0
          5.035661220550537 0.5564131140708923 0 6.313057899475098 -0.7865372896194458 0
          5.326355934143066 -0.07969167828559875 0 4.893916130065918 0.8762899041175842 0
          5.964842796325684 -0.7512490749359131 0 5.473134994506836 -0.3970530033111572 0
          4.6666669845581055 1.2000000476837158 0 4.836434841156006 0.26916739344596863 0
          5.616653919219971 -0.7159011960029602 0 4.978854179382324 -0.04412427172064781 0
          4.688116073608398 0.5933424234390259 0 7 -1.2000000476837158 0
          5.12586784362793 -0.3661642074584961 0 4.545888900756836 0.9131073951721191 0
          5.81204080581665 -0.966787576675415 0 6.222221851348877 -1.2000000476837158 0
          5.268884181976318 -0.6795946955680847 0 4.630309104919434 -0.01361996028572321 0
          4.488448143005371 0.30607008934020996 0 4.777815818786621 -0.33047690987586975 0
          4.339453220367432 0.6220952272415161 0 4.286639213562012 0.9191486239433289 0
          4.920590877532959 -0.6494935750961304 0 5.444444179534912 -1.2000000476837158 0
          5.067508220672607 -0.9653593897819519 0 4.283215045928955 0.02286371961236 0
          4.43105411529541 -0.300768107175827 0 4.142016887664795 0.33384108543395996 0
          4.573105812072754 -0.6119378209114075 0 3.992300033569336 0.6605401039123535 0
          3.8888890743255615 1.2000000476837158 0 4.721052169799805 -0.9289693236351013 0
          4.083156108856201 -0.26410868763923645 0 3.9346089363098145 0.05202680081129074 0
          4.2248640060424805 -0.583368182182312 0 3.794219970703125 0.37224650382995605 0
          4.6666669845581055 -1.2000000476837158 0 4.372566223144531 -0.8980712890625 0
          3.6435329914093018 0.6871886849403381 0 3.4845330715179443 0.9496920704841614 0
          4.238772869110107 -1.0396209955215454 0 3.7371129989624023 -0.2360759973526001 0
          3.8777899742126465 -0.544031023979187 0 3.5880980491638184 0.08982273191213608 0
          4.026970863342285 -0.8604139089584351 0 3.4486160278320312 0.3975287973880768 0
          3.294600009918213 0.7115796804428101 0 3.3894379138946533 -0.1980305016040802 0
          3.5296289920806885 -0.5176354050636292 0 3.1111109256744385 1.2000000476837158 0
          3.678446054458618 -0.8306925892829895 0 3.2394111156463623 0.11707709729671478 0
          3.8888890743255615 -1.2000000476837158 0 3.1010890007019043 0.43808528780937195 0
          2.961361885070801 0.7589535117149353 0 3.503129005432129 -1.0054839849472046 0
          3.18314790725708 -0.47578510642051697 0 3.3340699672698975 -0.7912443280220032 0
          3.044409990310669 -0.17236250638961792 0 2.893527030944824 0.1568426936864853 0
          2.7548489570617676 0.9893125891685486 0 2.7534260749816895 0.4774535000324249 0
          2.6135880947113037 0.7982968091964722 0 2.9854938983917236 -0.7631890773773193 0
          2.8351199626922607 -0.4524492025375366 0 2.697058916091919 -0.13238230347633362 0
          3.1111109256744385 -1.2000000476837158 0 2.544728994369507 0.1811445951461792 0
          2.388031005859375 0.49400800466537476 0 2.3333330154418945 1.2000000476837158 0
          2.7681961059570312 -0.9710931181907654 0 2.2573049068450928 0.8266525864601135 0
          2.6428470611572266 -0.721183180809021 0 2.489516019821167 -0.40704599022865295 0
          2.353508949279785 -0.11029759794473648 0 2.1956899166107178 0.20170240104198456 0
          1.9920220375061035 0.5723655819892883 0 2.2942399978637695 -0.6953821182250977 0
          2.141784906387329 -0.3882349133491516 0 1.8683220148086548 0.8697000741958618 0
          2.0066850185394287 -0.0679963231086731 0 2.3333330154418945 -1.2000000476837158 0
          1.8129379749298096 0.2728925049304962 0 1.954548954963684 -0.6485614776611328 0
          1.6430920362472534 0.5740132927894592 0 1.7980589866638184 -0.3366861045360565 0
          1.555556058883667 1.2000000476837158 0 1.9700770378112793 -0.9401506781578064 0
          1.6666820049285889 -0.05719396844506264 0 1.4286249876022339 0.8451691269874573 0
          1.4677189588546753 0.2914707064628601 0 1.6918359994888306 -0.8584386110305786 0
          1.606449007987976 -0.6244480013847351 0 1.3151990175247192 0.5185866951942444 0
          1.4524099826812744 -0.32973089814186096 0 1.2210429906845093 1.0129400491714478 0
          1.3220579624176025 -0.01946846954524517 0 1.1222139596939087 0.8065894842147827 0
          1.1284430027008057 0.23862800002098083 0 1.555556058883667 -1.2000000476837158 0
          1.2835420370101929 -0.5449687838554382 0 1.3725509643554688 -0.8790327906608582 0
          1.1284430027008057 -0.23862800002098083 0 0.9798405170440674 0.4904909133911133 0
          1 0 0 0.861803412437439 0.19021129608154297 0
          0.7777777910232544 1.2000000476837158 0 1.1798269748687744 -1.0302430391311646 0
          0.729131281375885 0.7251076102256775 0 0.9428092837333679 -0.5025230050086975 0
          0.861803412437439 -0.19021129608154297 0 1.0134249925613403 -0.8419373035430908 0
          0.6745458245277405 0.38610830903053284 0 0.638196587562561 0.1175571009516716 0
          0.638196587562561 -0.1175571009516716 0 0.6745458245277405 -0.38610830903053284 0
          0.4659998118877411 0.650235116481781 0 0.44361230731010437 0.9165406823158264 0
          0.6880131959915161 -0.7223715782165527 0 0.3890891969203949 0.32260850071907043 0
          0.7777777910232544 -1.2000000476837158 0 0.39402180910110474 4.742348735931046e-10 0
          0.24515259265899658 0.8073607087135315 0 0.366202712059021 -0.29110780358314514 0
          0.4311263859272003 -0.628279983997345 0 0.22986270487308502 0.006300130859017372 0
          0.4553210139274597 -0.959943413734436 0 0 1.2000000476837158 0
          0 0.4000000059604645 0 0.2216119021177292 -0.7970559000968933 0
          0 -0.4000000059604645 0 0 -1.2000000476837158 0
          <InformationKey name="L2_NORM_RANGE" location="vtkDataArray" length="2">
            <Value index="0">
              0.2299490264
            </Value>