<?xml version="1.0"?>
<VTKFile type="UnstructuredGrid" version="0.1" byte_order="LittleEndian" header_type="UInt32" compressor="vtkZLibDataCompressor">
  <UnstructuredGrid>
    <Piece NumberOfPoints="25" NumberOfCells="15">
      <PointData>
        <DataArray type="Float64" Name="Velocity" NumberOfComponents="3" format="ascii" RangeMin="0" RangeMax="0.3622655745056154">
          0 0 0 2.7066331996912644e-17 -7.306657069475049e-17 0
          0 0 0 -0.2655331672474832 -0.10189936334817172 0
          0.20771368604461002 -0.1861713369251401 0 0 0 0
          0 0 0 3.724047593378104e-17 -1.7996270796197163e-17 0
          -0.23328300526383747 -0.27715588741168024 0 9.925820692460814e-18 5.572343487105736e-19 0
          0 0 0 -2.089554403506632e-17 -7.851008605675349e-17 0
          0 0 0 0 0 0
          -0.36084790018917645 -0.012049405873979319 0 -0.21054390492625075 0.005789556825743836 0
          -0.20549904148110332 -0.048781199318402316 0 -0.046224525649229256 -0.2479909476596356 0
          0.0036992030571611767 0.0856564229583632 0 0.07876443244049453 -0.1866454226260576 0
          1.599440864777419e-17 1.4281554227789573e-16 0 -2.1735742525756875e-17 -3.5198934271065146e-17 0
          0 0 0 -1.0611598884171637e-16 8.216383615552756e-17 0
          0 0 0
          <InformationKey name="L2_NORM_RANGE" location="vtkDataArray" length="2">
            <Value index="0">
              0
            </Value>
            <Value index="1">
              0.36226557451
            </Value>
          </InformationKey>
        </DataArray>
        <DataArray type="Float64" Name="Pressure" format="ascii" RangeMin="17.956049216867616" RangeMax="20.74815026044039">
          19.9391917262244 20.26044767950965 20.171931489346797 19.642297821852324 19.605719269149194 19.081887297415356
          19.068809041795497 18.53349460151668 20.574657793724185 18.79334828956183 20.03277442139801 20.64275091252682
          20.703607970301 19.63529178773735 20.143594171637677 20.525983331548893 20.74815026044039 20.668601724888862
          20.23626871910548 20.61576877592413 20.58246009142735 18.959300802799547 19.203687493884352 20.41435108167115
          17.956049216867616
        </DataArray>
        <DataArray type="Float64" Name="Temperature" format="ascii" RangeMin="240.00000000050932" RangeMax="960.0000000020403">
          960.000000002039 749.725346657364 960.0000000020393 443.63557395311 662.4531348817425 960.0000000020403
          285.9655359029674 240.00000000050966 510.6403989178851 335.54570411332446 292.3752308989367 240.00000000050971
          240.00000000050994 960.0000000020381 462.4669661575127 517.6947027992342 566.372375496386 627.6841859051132
          621.9474604848998 637.0546965484273 240.00000000050932 828.2067194116784 960.0000000020387 851.4389605118245
          240.00000000051006
        </DataArray>
        <DataArray type="Float64" Name="Density" format="ascii" RangeMin="0.33773024133517027" RangeMax="1.3509209653406853">
          0.3377302413351707 0.4324530751534355 0.3377302413351706 0.7308273968956354 0.48942485831896726 0.33773024133517027
          1.133776595346321 1.3509209653406833 0.6349302412608169 0.9662499853461177 1.108920994044546 1.350920965340683
          1.3509209653406817 0.33773024133517104 0.7010685203665451 0.6262784415783135 0.5724520575324589 0.5165352879090456
          0.52129971144134 0.5089375110788561 1.3509209653406853 0.39147355857335336 0.3377302413351708 0.3807918673201822
          1.350920965340681
        </DataArray>
      </PointData>
      <CellData>
        <DataArray type="UInt8" Name="vtkGhostType" format="ascii" RangeMin="0" RangeMax="1">
          1 1 1 1 1 1
          1 1 1 1 1 1
          1 0 1
        </DataArray>
      </CellData>
      <Points>
        <DataArray type="Float32" Name="Points" NumberOfComponents="3" format="ascii" RangeMin="0" RangeMax="1.4142135623730951">
          0 0.75 0 0.5 1 0
          0 0.5 0 0.25 0.25 0
          0.75 0.75 0 0 0 0
          0.25 0 0 1 0.75 0
          0.75 0.25 0 0.5 0 0
          0.75 0 0 1 0.25 0
          1 0 0 0 0.25 0
          0.5 0.25 0 0.25 0.5 0
          0.5 0.5 0 0.75 0.5 0
          0.25 0.75 0 0.5 0.75 0
          1 0.5 0 0.25 1 0
          0 1 0 0.75 1 0
          1 1 0
          <InformationKey name="L2_NORM_RANGE" location="vtkDataArray" length="2">
            <Value index="0">
              0
            </Value>
            <Value index="1">
              1.4142135624
            </Value>
          </InformationKey>
        </DataArray>
      </Points>
      <Cells>
        <DataArray type="Int64" Name="connectivity" format="ascii" RangeMin="0" RangeMax="24">
          6 3 13 5 9 14
          3 6 3 15 2 13
          14 16 15 3 8 17
          16 14 15 18 0 2
          17 4 19 16 20 7
          4 17 18 21 22 0
          19 1 21 18 4 23
          1 19 7 24 23 4
          10 8 14 9 12 11
          8 10 11 20 17 8
        </DataArray>
        <DataArray type="Int64" Name="offsets" format="ascii" RangeMin="4" RangeMax="60">
          4 8 12 16 20 24
          28 32 36 40 44 48
          52 56 60
        </DataArray>
        <DataArray type="UInt8" Name="types" format="ascii" RangeMin="9" RangeMax="9">
          9 9 9 9 9 9
          9 9 9 9 9 9
          9 9 9
        </DataArray>
      </Cells>
    </Piece>
  </UnstructuredGrid>
</VTKFile>
