<?xml version="1.0"?>
<VTKFile type="UnstructuredGrid" version="0.1" byte_order="LittleEndian" header_type="UInt32" compressor="vtkZLibDataCompressor">
  <UnstructuredGrid>
    <Piece NumberOfPoints="24" NumberOfCells="15">
      <PointData>
        <DataArray type="Float64" Name="Velocity" NumberOfComponents="3" format="ascii" RangeMin="0" RangeMax="1.6491199900695812">
          0 0 0 2.4656465806382803e-16 -5.256348140818927e-17 0
          -0.356289593043595 0.05000243704848392 0 -0.23719965935374648 0.09932133420549244 0
          -0.18157151901290597 -0.763644240455949 0 -0.2012990403656408 -0.19817098031071056 0
          -3.4301615594420887e-16 9.360819897788027e-16 0 0 0 0
          -0.3122868029972646 -0.17033491159839326 0 -0.06799222659477551 -0.10192009922448653 0
          0 0 0 4.058942539859384e-17 -1.3717589615691832e-16 0
          0 0 0 0.0847131693598702 0.33205279281766376 0
          0 0 0 5.996512338420776e-18 4.1307105377559886e-18 0
          0 0 0 -0.08087406008011516 -0.48041351845916314 0
          0 0 0 0.9132635522492225 -1.3731520038874891 0
          1.9018358184815069e-16 -2.2018064095867736e-16 0 -2.3985695883556426e-16 -3.2530776714921566e-16 0
          0 0 0 4.432213809393283e-18 -1.0966293980423554e-16 0
          <InformationKey name="L2_NORM_RANGE" location="vtkDataArray" length="2">
            <Value index="0">
              0
            </Value>
            <Value index="1">
              1.6491199901
            </Value>
          </InformationKey>
        </DataArray>
        <DataArray type="Float64" Name="Pressure" format="ascii" RangeMin="41.944604801120754" RangeMax="71.50998703921582">
          52.32404527569305 53.40412515338295 56.10005109241168 53.106574954995246 60.590632499981744 55.84981887651076
          71.50998703921582 44.98839845882282 50.26644949078914 55.500586788034155 61.801359237081726 54.52104857384187
          42.39419170078069 46.45405611148833 41.944604801120754 42.19941037206203 50.43297778206816 52.201270670511846
          53.33764735747141 56.69107587653784 50.84626347249379 64.00005962675078 46.90663328126534 52.103185976260704
        </DataArray>
        <DataArray type="Float64" Name="Temperature" format="ascii" RangeMin="240.00000000045205" RangeMax="960.0000000018202">
          960.0000000018131 749.1201050626586 632.0803606116159 494.54872211020273 668.0348521210777 577.4805207971363
          883.7361379891939 960.0000000018074 486.08356955841407 614.20955617568 240.00000000045415 240.00000000045205
          312.3879768927293 451.9964983177764 960.0000000018202 377.40270242453056 960.0000000018189 490.4739718732633
          960.0000000018103 719.448146102212 240.00000000045236 612.4308221637247 332.19765477482866 240.00000000045304
        </DataArray>
        <DataArray type="Float64" Name="Density" format="ascii" RangeMin="0.34250724730960425" RangeMax="1.3700289892384343">
          0.3425072473096068 0.43892421948859744 0.5201980284590431 0.664862616598924 0.49220030418150856 0.5693819022050624
          0.3720646279849926 0.34250724730960885 0.6764412088986066 0.5353335097309951 1.3700289892384223 1.3700289892384343
          1.0525595789198774 0.7274546564886784 0.34250724730960425 0.8712363618636124 0.34250724730960475 0.6703861494668795
          0.3425072473096078 0.4570266240857474 1.3700289892384325 0.536888323576147 0.9897931327682508 1.3700289892384285
        </DataArray>
      </PointData>
      <CellData>
        <DataArray type="UInt8" Name="vtkGhostType" format="ascii" RangeMin="0" RangeMax="0">
          0 0 0 0 0 0
          0 0 0 0 0 0
          0 0 0
        </DataArray>
      </CellData>
      <Points>
        <DataArray type="Float32" Name="Points" NumberOfComponents="3" format="ascii" RangeMin="0" RangeMax="1.4142135623730951">
          0 1 0 0.25 1 0
          0.25 0.75 0 0.25 0.5 0
          0.5 0.75 0 0.5 0.5 0
          0.75 1 0 0 0.25 0
          0.5 0.25 0 0.75 0.5 0
          1 1 0 1 0.5 0
          0.25 0 0 0.25 0.25 0
          0 0 0 0.5 0 0
          0 0.5 0 0.75 0.25 0
          0 0.75 0 0.75 0.75 0
          1 0.75 0 0.5 1 0
          0.75 0 0 1 0.25 0
          <InformationKey name="L2_NORM_RANGE" location="vtkDataArray" length="2">
            <Value index="0">
              0
            </Value>
            <Value index="1">
              1.4142135624
            </Value>
          </InformationKey>
        </DataArray>
      </Points>
      <Cells>
        <DataArray type="Int64" Name="connectivity" format="ascii" RangeMin="0" RangeMax="23">
          12 13 7 14 15 8
          13 12 13 3 16 7
          8 5 3 13 17 9
          5 8 3 2 18 16
          5 4 2 3 9 19
          4 5 11 20 19 9
          2 1 0 18 4 21
          1 2 19 6 21 4
          20 10 6 19 22 17
          8 15 23 11 9 17
        </DataArray>
        <DataArray type="Int64" Name="offsets" format="ascii" RangeMin="4" RangeMax="60">
          4 8 12 16 20 24
          28 32 36 40 44 48
          52 56 60
        </DataArray>
        <DataArray type="UInt8" Name="types" format="ascii" RangeMin="9" RangeMax="9">
          9 9 9 9 9 9
          9 9 9 9 9 9
          9 9 9
        </DataArray>
      </Cells>
    </Piece>
  </UnstructuredGrid>
</VTKFile>
