<?xml version="1.0"?>
<VTKFile type="UnstructuredGrid" version="0.1" byte_order="LittleEndian" header_type="UInt32" compressor="vtkZLibDataCompressor">
  <UnstructuredGrid>
    <Piece NumberOfPoints="25" NumberOfCells="15">
      <PointData>
        <DataArray type="Float64" Name="Velocity" NumberOfComponents="3" format="ascii" RangeMin="0" RangeMax="1.6491199900695812">
          0 0 0 -2.3985695883556426e-16 -3.2530776714921566e-16 0
          0 0 0 0.0847131693598702 0.33205279281766376 0
          0.9132635522492225 -1.3731520038874891 0 0 0 0
          0 0 0 1.9018358184815069e-16 -2.2018064095867736e-16 0
          -0.08087406008011516 -0.48041351845916314 0 5.996512338420776e-18 4.1307105377559886e-18 0
          0 0 0 4.432213809393283e-18 -1.0966293980423554e-16 0
          0 0 0 0 0 0
          -0.3122868029972646 -0.17033491159839326 0 -0.23719965935374648 0.09932133420549244 0
          -0.2012990403656408 -0.19817098031071056 0 -0.06799222659477551 -0.10192009922448653 0
          -0.356289593043595 0.05000243704848392 0 -0.18157151901290597 -0.763644240455949 0
          4.058942539859384e-17 -1.3717589615691832e-16 0 2.4656465806382803e-16 -5.256348140818927e-17 0
          0 0 0 -3.4301615594420887e-16 9.360819897788027e-16 0
          0 0 0
          <InformationKey name="L2_NORM_RANGE" location="vtkDataArray" length="2">
            <Value index="0">
              0
            </Value>
            <Value index="1">
              1.6491199901
            </Value>
          </InformationKey>
        </DataArray>
        <DataArray type="Float64" Name="Pressure" format="ascii" RangeMin="41.944604801120754" RangeMax="71.50998703921582">
          53.33764735747141 64.00005962675078 50.43297778206816 46.45405611148833 56.69107587653784 41.944604801120754
          42.39419170078069 50.84626347249379 52.201270670511846 42.19941037206203 46.90663328126534 52.103185976260704
          49.26331878555055 44.98839845882282 50.26644949078914 53.106574954995246 55.84981887651076 55.500586788034155
          56.10005109241168 60.590632499981744 54.52104857384187 53.40412515338295 52.32404527569305 71.50998703921582
          61.801359237081726
        </DataArray>
        <DataArray type="Float64" Name="Temperature" format="ascii" RangeMin="240.00000000045205" RangeMax="960.0000000018202">
          960.0000000018103 612.4308221637247 960.0000000018189 451.9964983177764 719.448146102212 960.0000000018202
          312.3879768927293 240.00000000045236 490.4739718732633 377.40270242453056 332.19765477482866 240.00000000045304
          240.00000000045438 960.0000000018074 486.08356955841407 494.54872211020273 577.4805207971363 614.20955617568
          632.0803606116159 668.0348521210777 240.00000000045205 749.1201050626586 960.0000000018131 883.7361379891939
          240.00000000045415
        </DataArray>
        <DataArray type="Float64" Name="Density" format="ascii" RangeMin="0.34250724730960425" RangeMax="1.3700289892384343">
          0.3425072473096078 0.536888323576147 0.34250724730960475 0.7274546564886784 0.4570266240857474 0.34250724730960425
          1.0525595789198774 1.3700289892384325 0.6703861494668795 0.8712363618636124 0.9897931327682508 1.3700289892384285
          1.370028989238421 0.34250724730960885 0.6764412088986066 0.664862616598924 0.5693819022050624 0.5353335097309951
          0.5201980284590431 0.49220030418150856 1.3700289892384343 0.43892421948859744 0.3425072473096068 0.3720646279849926
          1.3700289892384223
        </DataArray>
      </PointData>
      <CellData>
        <DataArray type="UInt8" Name="vtkGhostType" format="ascii" RangeMin="0" RangeMax="1">
          1 1 1 1 1 1
          1 1 1 1 1 1
          1 0 1
        </DataArray>
      </CellData>
      <Points>
        <DataArray type="Float32" Name="Points" NumberOfComponents="3" format="ascii" RangeMin="0" RangeMax="1.4142135623730951">
          0 0.75 0 0.5 1 0
          0 0.5 0 0.25 0.25 0
          0.75 0.75 0 0 0 0
          0.25 0 0 1 0.75 0
          0.75 0.25 0 0.5 0 0
          0.75 0 0 1 0.25 0
          1 0 0 0 0.25 0
          0.5 0.25 0 0.25 0.5 0
          0.5 0.5 0 0.75 0.5 0
          0.25 0.75 0 0.5 0.75 0
          1 0.5 0 0.25 1 0
          0 1 0 0.75 1 0
          1 1 0
          <InformationKey name="L2_NORM_RANGE" location="vtkDataArray" length="2">
            <Value index="0">
              0
            </Value>
            <Value index="1">
              1.4142135624
            </Value>
          </InformationKey>
        </DataArray>
      </Points>
      <Cells>
        <DataArray type="Int64" Name="connectivity" format="ascii" RangeMin="0" RangeMax="24">
          6 3 13 5 9 14
          3 6 3 15 2 13
          14 16 15 3 8 17
          16 14 15 18 0 2
          17 4 19 16 20 7
          4 17 18 21 22 0
          19 1 21 18 4 23
          1 19 7 24 23 4
          10 8 14 9 12 11
          8 10 11 20 17 8
        </DataArray>
        <DataArray type="Int64" Name="offsets" format="ascii" RangeMin="4" RangeMax="60">
          4 8 12 16 20 24
          28 32 36 40 44 48
          52 56 60
        </DataArray>
        <DataArray type="UInt8" Name="types" format="ascii" RangeMin="9" RangeMax="9">
          9 9 9 9 9 9
          9 9 9 9 9 9
          9 9 9
        </DataArray>
      </Cells>
    </Piece>
  </UnstructuredGrid>
</VTKFile>
