<?xml version="1.0"?>
<VTKFile type="UnstructuredGrid" version="0.1" byte_order="LittleEndian" header_type="UInt32" compressor="vtkZLibDataCompressor">
  <UnstructuredGrid>
    <Piece NumberOfPoints="44" NumberOfCells="66">
      <PointData>
        <DataArray type="Float64" Name="ale_BC" NumberOfComponents="3" format="ascii" RangeMin="0" RangeMax="0">
          0 0 0 0 0 0
          0 0 0 0 0 0
          0 0 0 0 0 0
          0 0 0 0 0 0
          0 0 0 0 0 0
          0 0 0 0 0 0
          0 0 0 0 0 0
          0 0 0 0 0 0
          0 0 0 0 0 0
          0 0 0 0 0 0
          0 0 0 0 0 0
          0 0 0 0 0 0
          0 0 0 0 0 0
          0 0 0 0 0 0
          0 0 0 0 0 0
          0 0 0 0 0 0
          0 0 0 0 0 0
          0 0 0 0 0 0
          0 0 0 0 0 0
          0 0 0 0 0 0
          0 0 0 0 0 0
          0 0 0 0 0 0
          <InformationKey name="L2_NORM_RANGE" location="vtkDataArray" length="2">
            <Value index="0">
              0
            </Value>
            <Value index="1">
              0
            </Value>
          </InformationKey>
        </DataArray>
        <DataArray type="Float64" Name="ale_FIXNO" NumberOfComponents="3" format="ascii" RangeMin="1" RangeMax="1.4142135623730951">
          1 1 0 0 1 0
          1 0 0 -1 -1 0
          -1 -1 0 0 1 0
          1 0 0 -1 -1 0
          -1 -1 0 -1 -1 0
          -1 -1 0 -1 -1 0
          0 1 0 1 0 0
          -1 -1 0 -1 -1 0
          -1 -1 0 -1 -1 0
          -1 -1 0 -1 -1 0
          0 1 0 1 0 0
          -1 -1 0 -1 -1 0
          -1 -1 0 -1 -1 0
          -1 -1 0 1 1 0
          1 1 0 -1 -1 0
          1 0 0 0 1 0
          -1 -1 0 1 0 0
          0 1 0 -1 -1 0
          -1 -1 0 -1 -1 0
          1 0 0 0 1 0
          -1 -1 0 1 0 0
          0 1 0 1 1 0
          <InformationKey name="L2_NORM_RANGE" location="vtkDataArray" length="2">
            <Value index="0">
              1
            </Value>
            <Value index="1">
              1.4142135624
            </Value>
          </InformationKey>
        </DataArray>
        <DataArray type="Float64" Name="nsi_BC" NumberOfComponents="3" format="ascii" RangeMin="0" RangeMax="0">
          0 0 0 0 0 0
          0 0 0 0 0 0
          0 0 0 0 0 0
          0 0 0 0 0 0
          0 0 0 0 0 0
          0 0 0 0 0 0
          0 0 0 0 0 0
          0 0 0 0 0 0
          0 0 0 0 0 0
          0 0 0 0 0 0
          0 0 0 0 0 0
          0 0 0 0 0 0
          0 0 0 0 0 0
          0 0 0 0 0 0
          0 0 0 0 0 0
          0 0 0 0 0 0
          0 0 0 0 0 0
          0 0 0 0 0 0
          0 0 0 0 0 0
          0 0 0 0 0 0
          0 0 0 0 0 0
          0 0 0 0 0 0
          <InformationKey name="L2_NORM_RANGE" location="vtkDataArray" length="2">
            <Value index="0">
              0
            </Value>
            <Value index="1">
              0
            </Value>
          </InformationKey>
        </DataArray>
        <DataArray type="Float64" Name="nsi_FIXNO" NumberOfComponents="3" format="ascii" RangeMin="1" RangeMax="1.4142135623730951">
          1 1 0 0 1 0
          1 0 0 -1 -1 0
          -1 -1 0 0 1 0
          1 0 0 -1 -1 0
          -1 -1 0 -1 -1 0
          -1 -1 0 -1 -1 0
          0 1 0 1 0 0
          -1 -1 0 -1 -1 0
          -1 -1 0 -1 -1 0
          -1 -1 0 -1 -1 0
          0 1 0 1 0 0
          -1 -1 0 -1 -1 0
          -1 -1 0 -1 -1 0
          -1 -1 0 1 1 0
          1 1 0 -1 -1 0
          1 0 0 0 1 0
          -1 -1 0 1 0 0
          0 1 0 -1 -1 0
          -1 -1 0 -1 -1 0
          1 0 0 0 1 0
          -1 -1 0 1 0 0
          0 1 0 1 1 0
          <InformationKey name="L2_NORM_RANGE" location="vtkDataArray" length="2">
            <Value index="0">
              1
            </Value>
            <Value index="1">
              1.4142135624
            </Value>
          </InformationKey>
        </DataArray>
        <DataArray type="Float64" Name="lev_BC" format="ascii" RangeMin="-0.5" RangeMax="0.5">
          -0.5 -0.3 -0.5 -0.32499 -0.35371 -0.25
          -0.5 -0.198092 -0.109713 -0.357575 -0.207421 -0.006945
          -0.25 -0.5 -0.059263 -0.216878 0.02803 -0.061131
          0.142998 -0.351371 -0.25 -0.5 0.030858 0.192875
          -0.104258 0.199684 0.083861 -0.5 -0.25 0.222426
          -0.048337 -0.280888 0.341722 0.153327 -0.061777 0.146545
          0.227286 0.363955 0.354826 0.155833 0.392298 0.5
          0.37 0.5
        </DataArray>
        <DataArray type="Float64" Name="lev_FIXNO" format="ascii" RangeMin="0" RangeMax="0">
          0 0 0 0 0 0
          0 0 0 0 0 0
          0 0 0 0 0 0
          0 0 0 0 0 0
          0 0 0 0 0 0
          0 0 0 0 0 0
          0 0 0 0 0 0
          0 0
        </DataArray>
        <DataArray type="Float64" Name="Velocity" NumberOfComponents="3" format="ascii" RangeMin="0" RangeMax="3.856594887618214">
          0 0 0 0.49187707745932496 0 0
          0 -0.4310958960842323 0 0.5897933070764334 -0.33352987656330385 0
          0.9402493541935261 -0.6571860122046884 0 0.6076250225172787 0 0
          0 -0.6284557276755031 0 1.2887494895799068 -0.618252499586492 0
          0.693828027021248 -0.2928197563383146 0 0.9645324349220958 -0.7881730266460151 0
          3.5862474029510762 -1.4185040331382934 0 0.6911320712453674 -0.4045133351123326 0
          0.3707296135318747 0 0 0 -0.6209081323673994 0
          0.24377539623434347 -0.7120261735277424 0 0.7732534974102045 -0.6553725610643776 0
          -0.08406891176498005 0.04558210013480516 0 0.44884782043655724 -0.4437785420875521 0
          -0.14265122224999008 -0.08276585572792189 0 -0.07148628172404457 -0.37108551239818904 0
          0.3059462956365419 0 0 0 -0.314869652674964 0
          -0.03927320551957698 -0.32833897577585386 0 -0.16441846898878823 -0.02856320224699869 0
          -1.6329505985907067 -0.17371250136045926 0 -0.04671743602753449 -0.050283947114536306 0
          -0.12537134200900796 0.03156762493883016 0 0 0 0
          0 0 0 -0.07352177198253557 0.0661943582462418 0
          0 -0.3536489768818495 0 -0.715554290986652 0 0
          -0.057319055707990306 0.01732643693035644 0 0 -0.02309156213868388 0
          -1.8784094723770195 0 0 -0.03835904901480466 0.1277113031558676 0
          -0.009369112868711003 0.09873630027631894 0 -0.02933895981384565 -0.02106893019013724 0
          0 -0.07522456568588683 0 -0.12350348096441417 0 0
          0.16082643202565772 0.00035342609659678873 0 0 -0.03286785907696889 0
          0.09084287017365943 0 0 0 0 0
          <InformationKey name="L2_NORM_RANGE" location="vtkDataArray" length="2">
            <Value index="0">
              0
            </Value>
            <Value index="1">
              3.8565948876
            </Value>
          </InformationKey>
        </DataArray>
        <DataArray type="Float64" Name="Pressure" format="ascii" RangeMin="-4433.894415911731" RangeMax="4691.655669751994">
          -4433.894415911731 -4335.963303975084 -2339.372249046487 -2787.523751306352 -1226.240062599815 -4006.387539988864
          -770.0437311367764 -1643.0138074763831 -2745.7443231608545 223.7204596246901 -507.70594718574694 -1238.707334406694
          -3353.3104984111815 753.3428040540309 -1807.4178099019402 1002.5505675858883 -1153.2712190509815 1174.3410046454887
          -52.15927984990013 2257.7073157755462 -1895.7549959204878 2598.033407421347 15.757410728197062 651.2813473974157
          2287.6413222040123 998.5626485552942 1381.653672482624 4495.182851459337 -1714.7020929658834 1952.3205637581934
          -573.0953069011216 4472.611828904534 2273.931131625145 1308.9388604420744 4595.890391837803 3242.580108149301
          3335.3952050610355 2757.5057722245733 2497.109541831431 4465.232635151275 3227.3531351151732 2542.0251029559217
          4691.655669751994 3613.813562630957
        </DataArray>
        <DataArray type="Float64" Name="Proj_residual_U" NumberOfComponents="3" format="ascii" RangeMin="4.549349569229975" RangeMax="220481.07085632166">
          384.78792810341963 384.7789065941746 0 -36559.91451152404 545.4948303836454 0
          418.0387476961486 -21890.255112622977 0 -48964.583405875484 -16020.451304813387 0
          -91792.40970550744 -35348.51579669263 0 -33927.04341782623 856.4115839167325 0
          -83.93914513845951 -33858.27207912684 0 -109917.37039583483 -29156.606009504067 0
          -38577.16274229396 -4111.354627426095 0 -103473.32538872783 -44342.193597056445 0
          -212619.30623205303 -58351.805656301614 0 14968.079648442348 -5044.457872719726 0
          -12342.843238873747 1907.434757092146 0 -619.1072366105587 -34415.98629858579 0
          4131.89143944724 16288.569341672373 0 -89384.30241675898 -36965.79475478534 0
          -1226.9762688264886 1589.608589115417 0 51928.148534732354 -12330.574850571757 0
          3008.816599403816 -6510.4103637187745 0 -25736.929667690416 -21153.048230512035 0
          -6476.800566960514 705.0931764635585 0 -119.73965721594548 -18026.720090765262 0
          779.0005186195791 -682.9756968271007 0 -9266.32133683708 -2981.5820608405897 0
          -9879.96402069018 -7133.366626823192 0 70.49937620235755 1368.8384483744467 0
          -2183.4441341738757 -2357.9628310289513 0 -97.99213994629638 86.66853305516187 0
          -4.143270797521048 -1.8787997768421891 0 -1789.1337439550762 2885.8494190168167 0
          44.21361461127996 2715.2766305673354 0 3902.396506439593 -584.3303729455273 0
          -2334.0162539273315 3214.708441702854 0 1895.50262413389 -1529.8349403369823 0
          2012.4295229185468 -1839.1955185771737 0 -9813.594974964964 -1014.0361408482997 0
          -2715.9413760578705 2559.512919327305 0 -3244.735622145031 -2350.9800392786697 0
          554.5077027303001 -4220.573245829523 0 -19721.262694253426 -2875.8879213379037 0
          10335.298884487485 -1401.873748628159 0 -2243.816699130081 -1791.309019217465 0
          6495.172981069452 -843.7585328141115 0 -4738.647540676057 2017.8389418019813 0
          <InformationKey name="L2_NORM_RANGE" location="vtkDataArray" length="2">
            <Value index="0">
              4.5493495692
            </Value>
            <Value index="1">
              220481.07086
            </Value>
          </InformationKey>
        </DataArray>
        <DataArray type="Float64" Name="Proj_residual_P" format="ascii" RangeMin="-6.280336970248776" RangeMax="9.466229792140057">
          4.920407613286991 3.2223805602631153 6.368911885976566 4.346552016134216 9.466229792140057 1.7844280337951235
          7.258915785433438 2.791586309534183 0.8182048832278022 6.681653589438765 3.3320144272967673 -2.4685374419066983
          2.086825788102629 2.424830776650955 -0.2825855316335317 -3.781418943653976 -1.790592582631101 -2.9631670802904635
          -3.216769880951121 -3.6551786468477094 0.9154198006635941 -2.0730443941689605 -0.7718212381386245 -0.16098738959241954
          -2.4122385990651707 -0.40386391641864106 0.7478092512480013 -3.8651243967557436 0.0024689487674094328 0.1083179651052912
          -0.45384356197190123 -6.280336970248776 0.2920730689694593 -0.6432273676242901 -1.7243630510841328 4.345076371639192
          0.42775576881214045 0.19563714859762918 0.3960303177378803 5.3069177057324675 -0.19108402171075042 -0.6866361489334484
          1.0301782315960208 -1.2611458929921815
        </DataArray>
        <DataArray type="Float64" Name="ALEdispl" NumberOfComponents="3" format="ascii" RangeMin="0" RangeMax="0">
          0 0 0 0 0 0
          0 0 0 0 0 0
          0 0 0 0 0 0
          0 0 0 0 0 0
          0 0 0 0 0 0
          0 0 0 0 0 0
          0 0 0 0 0 0
          0 0 0 0 0 0
          0 0 0 0 0 0
          0 0 0 0 0 0
          0 0 0 0 0 0
          0 0 0 0 0 0
          0 0 0 0 0 0
          0 0 0 0 0 0
          0 0 0 0 0 0
          0 0 0 0 0 0
          0 0 0 0 0 0
          0 0 0 0 0 0
          0 0 0 0 0 0
          0 0 0 0 0 0
          0 0 0 0 0 0
          0 0 0 0 0 0
          <InformationKey name="L2_NORM_RANGE" location="vtkDataArray" length="2">
            <Value index="0">
              0
            </Value>
            <Value index="1">
              0
            </Value>
          </InformationKey>
        </DataArray>
        <DataArray type="Float64" Name="ALEveloc" NumberOfComponents="3" format="ascii" RangeMin="0" RangeMax="2.9869602844878216">
          0 0 0 0.4093594968864448 0 0
          0 -0.14286471028298192 0 0.5006672708508222 -0.1245293565665017 0
          0.8043207858199821 -0.1986645056275342 0 0.4852239918937117 0 0
          0 -0.18251540927399934 0 1.113734593774298 -0.23149791067217868 0
          0.548418631906358 -0.2123740077835203 0 0.7680566035835659 -0.21394068571241287 0
          2.968302144415764 -0.3333378474826169 0 0.3985651910288841 -0.2768568827129549 0
          0.2958832596494527 0 0 0 -0.17176822499790004 0
          0.11451811267017564 -0.9605317018452397 0 0.16405822280185803 -0.17375101565922468 0
          0.16524063743883513 0.023660682383228753 0 -1.2329537913011666 -0.0854349666965491 0
          0.1434009324163734 0.025675173142681605 0 -0.3407447922633324 -0.1030653387241186 0
          0.421968191059733 0 0 0 -0.08748541149378448 0
          -0.0061292339101243955 -0.2592453713063552 0 0.2162955707546763 0.008736297111936908 0
          -1.93609690532302 -0.05522712012560934 0 0.09999191055180419 -0.049807697234360605 0
          0.4496482795548687 0.034231925566335523 0 0 0 0
          0 0 0 0.38110755416807407 0.027972733446705825 0
          0 -0.6683588145227617 0 -1.111694564421178 0 0
          0.15604661297498856 -0.001224114546288093 0 0 -0.010305002656911956 0
          -2.1177695556943394 0 0 0.8488162924229085 0.09656282114894127 0
          0.6993227364194324 0.0699171791354647 0 0.219363527817018 0.017314344543972474 0
          0 0.0008314455998897178 0 0.9937480974981542 0 0
          0.25500981706869685 0.017800774705481914 0 0 0.014860484475426266 0
          0.3554335621902803 0 0 0 0 0
          <InformationKey name="L2_NORM_RANGE" location="vtkDataArray" length="2">
            <Value index="0">
              0
            </Value>
            <Value index="1">
              2.9869602845
            </Value>
          </InformationKey>
        </DataArray>
        <DataArray type="Float64" Name="LEVEL" format="ascii" RangeMin="-0.5446778780839668" RangeMax="0.5527679298989624">
          -0.5446778780839668 -0.4480540845146225 -0.41310939676601593 -0.3234162885031171 -0.3220342125624109 -0.34627173813374607
          -0.49544535460713135 -0.17166381689051918 -0.22892499871396202 -0.38468952793860245 -0.2892357641979282 -0.018814481623582405
          -0.23922314825376476 -0.5037102291480944 -0.0719543007855721 -0.24459858228033754 0.009272400816340171 -0.06970582343630533
          0.1465288053011906 -0.35357296917244174 -0.24639393751674726 -0.49814322674488287 0.025119849365936323 0.2647964101128686
          -0.06691596544359753 0.28306593668253927 0.0873896876651111 -0.5016306988224921 -0.2485450739329075 0.2244406391698018
          -0.05552481458899536 -0.2615901797207676 0.41203671099618916 0.15605417681645242 -0.027544521908019634 0.14750250165186185
          0.22891522979005016 0.363922084337916 0.5527679298989624 0.15483995687802293 0.3894667432562105 0.500864523892693
          0.369243323758357 0.5002352502533989
        </DataArray>
      </PointData>
      <CellData>
        <DataArray type="UInt8" Name="vtkGhostType" format="ascii" RangeMin="0" RangeMax="0">
          0 0 0 0 0 0
          0 0 0 0 0 0
          0 0 0 0 0 0
          0 0 0 0 0 0
          0 0 0 0 0 0
          0 0 0 0 0 0
          0 0 0 0 0 0
          0 0 0 0 0 0
          0 0 0 0 0 0
          0 0 0 0 0 0
          0 0 0 0 0 0
        </DataArray>
        <DataArray type="Float64" Name="Residual_U" NumberOfComponents="3" format="ascii" RangeMin="1047.8895547303034" RangeMax="185457.4413704313">
          1231.857109592749 3403.140796937889 0 -4600.78092571383 -816.3661200589052 0
          68118.87550220428 -14530.656794009905 0 -33991.22241552292 -33460.80837261818 0
          -64097.554381647205 -33299.308825755616 0 -33781.42958322512 -37245.48641074332 0
          -42987.22625662966 -33019.41790730643 0 -167798.9010297518 -56533.212843392874 0
          -176930.77342012973 -55587.4444152786 0 -8161.801691692002 -24747.13378990139 0
          -8100.955974167916 -13230.708460114678 0 -71803.72776532687 -34383.19284228298 0
          -45522.02767381792 -22073.710806199764 0 10516.561388657798 -23502.23673042205 0
          -101117.69435843716 -49394.69217603718 0 -6881.46299288652 -7140.843779427771 0
          -9088.427994305 -8664.888116970971 0 566.3520333622746 -5928.785551254081 0
          -11799.142744151726 -9393.803955851565 0 -13015.902204102757 -11207.571984079426 0
          -7644.707162236737 239.18851285454025 0 -10896.824672359631 -11491.876484740042 0
          -1105.0741008621699 -2686.7170810773678 0 2237.7501880445798 103.17076285630537 0
          3671.699725350686 -3419.9348071625873 0 -2.8119351201726204 -1428.5795928500643 0
          -2976.4293014652317 274.92048709094877 0 444.44723980804065 2483.1185670513755 0
          -1698.653006282923 -1038.5711020333347 0 -1019.6785318103259 3958.8408155851625 0
          -1971.224320424256 -262.44641682624115 0 -2220.3985097262425 276.61782142899233 0
          -1906.173618065171 1216.1964848161526 0 -6441.144194811712 -173.63607333106415 0
          -519.8951830631238 -2286.942538497068 0 -854.8641209914911 694.1810426702473 0
          -704.468743886604 -775.7553143870198 0 -3445.974939422406 -2449.3436066535696 0
          674.8189042777229 -5122.886926924366 0 -2500.357413544465 54.78276906991323 0
          610.5465444817833 -1662.572664166935 0 7552.228713787496 16588.41236241396 0
          22571.50427063796 1286.0483349758815 0 -5924.262545213567 -702.6102226744756 0
          6192.886358394851 10858.328236794572 0 11179.130347243232 11300.891299876854 0
          -2702.0905367587593 6256.747902885827 0 -3949.229423103446 2405.116255398366 0
          -15918.419469003262 9553.708571623682 0 -43245.00063886703 -13901.376307161201 0
          64756.033125105445 -20722.719715421536 0 29290.693132545603 -19250.055717161147 0
          -65606.4547643874 -16233.724338406333 0 -130889.55260301408 -41357.81782522535 0
          -47039.332678628125 -24486.347112598047 0 -165603.30814484926 -51100.27908207252 0
          -84111.15485338855 -27371.91444423632 0 -41353.13617223152 -7187.109285040858 0
          -28624.406881212326 -5139.257194190523 0 -16330.780977755687 -13123.759302037066 0
          -1303.7918042349027 -1652.896366923124 0 -27985.056787535992 -1052.4599014199996 0
          -36451.40426607678 -1073.931092507775 0 -7851.084361743291 12269.162378769615 0
          291.4341329964601 20866.625528048848 0 -1686.414580033358 15155.490325429924 0
          <InformationKey name="L2_NORM_RANGE" location="vtkDataArray" length="2">
            <Value index="0">
              1047.8895547
            </Value>
            <Value index="1">
              185457.44137
            </Value>
          </InformationKey>
        </DataArray>
        <DataArray type="Float64" Name="Residual_P" format="ascii" RangeMin="-16.815857688446933" RangeMax="18.43076297769478">
          0.7262834919050339 -0.3609703716412219 2.9525667785178054 7.784319444149784 6.90595722952514 6.733512126717094
          2.7279722489958322 18.43076297769478 5.591414693897102 -2.050400360880426 -2.095688427457495 -0.1509168902882616
          -7.247905748132721 -5.46246011238157 -9.827226892825674 -4.888888199338618 7.1623895103990005 -6.209201760939891
          7.985967624540914 -7.627837384998534 2.107405121343737 6.973808074184443 -0.6957205219551147 -1.6602507305954552
          1.1795701054488839 -0.5658500899511525 0.0021219762277937537 0.651791729749183 -0.012419221744210226 0.462512671952349
          0.5561581165217755 -0.050243707759952794 0.2608264351468761 -0.05893422222159406 0.6208676878210442 0.4614732131582896
          -0.15140893554098084 0.5138613858835948 -0.9351480426571068 -0.9231289160098035 -1.4117390482581138 -3.723315186744639
          -5.968026675678841 -0.5173157958237786 0.07076640386247646 -7.549546886405322 -2.6201462959896533 -16.815857688446933
          1.669018207491772 -2.2010530589397312 -3.770023992141689 -15.436661089436978 3.176356297615747 -1.254352962741537
          5.8940244882788155 11.16951271009933 4.952714899052412 2.538342527741728 4.450224625839306 5.3295836204623885
          -0.36067543575327776 0.9028196486867288 2.6660364189035173 3.4091093757411084 -1.4505794523072155 1.942232789992532
        </DataArray>
      </CellData>
      <Points>
        <DataArray type="Float32" Name="Points" NumberOfComponents="3" format="ascii" RangeMin="0" RangeMax="1.4142135623730951">
          0 1 0 0.20000000298023224 1 0
          0 0.7799999713897705 0 0.17500990629196167 0.8324676752090454 0
          0.14628949761390686 0.6488438844680786 0 0.4000000059604645 1 0
          0 0.5849999785423279 0 0.30190789699554443 0.7062488794326782 0
          0.4018622040748596 0.8597133755683899 0 0.14242489635944366 0.45817598700523376 0
          0.29257911443710327 0.5176876783370972 0 0.49305540323257446 0.6697210073471069 0
          0.6000000238418579 1 0 0 0.38999998569488525 0
          0.6244276165962219 0.8092629909515381 0 0.2831222116947174 0.36456531286239624 0
          0.5280297994613647 0.49493080377578735 0 0.43886861205101013 0.3865315914154053 0
          0.659912109375 0.6070019006729126 0 0.14862869679927826 0.22861619293689728 0
          0.800000011920929 1 0 0 0.19499999284744263 0
          0.791735827922821 0.7191417813301086 0 0.6928746104240417 0.44221389293670654 0
          0.39574238657951355 0.1925719976425171 0 0.7972490191459656 0.5503162145614624 0
          0.5838605761528015 0.2565388083457947 0 0 0 0
          1 1 0 0.7224256992340088 0.28607040643692017 0
          1 0.7983365058898926 0 0.2191116064786911 0 0
          0.841722309589386 0.3865504860877991 0 1 0.5966730117797852 0
          0.4382232129573822 0 0 0.6465445160865784 0.11541219800710678 0
          0.7272865176200867 0.12795010209083557 0 0.8639553785324097 0.2512752115726471 0
          1 0.3951736092567444 0 0.6558331847190857 0 0
          0.8922978043556213 0.11509300023317337 0 1 0.19681400060653687 0
          0.8700000047683716 0 0 1 0 0
          <InformationKey name="L2_NORM_RANGE" location="vtkDataArray" length="2">
            <Value index="0">
              0
            </Value>
            <Value index="1">
              1.4142135624
            </Value>
          </InformationKey>
        </DataArray>
      </Points>
      <Cells>
        <DataArray type="Int64" Name="connectivity" format="ascii" RangeMin="0" RangeMax="43">
          42 36 35 35 36 26
          26 17 24 2 6 9
          4 2 9 9 6 13
          9 13 19 4 9 10
          10 9 15 19 13 21
          19 21 27 9 19 15
          15 19 24 15 24 17
          15 17 10 19 27 31
          39 24 34 34 24 31
          24 39 35 24 19 31
          42 35 39 35 26 24
          42 43 40 40 43 41
          42 40 36 40 41 37
          37 41 38 40 37 36
          36 37 29 29 37 32
          32 37 38 29 32 23
          36 29 26 26 29 23
          32 38 33 23 32 25
          25 32 33 23 25 18
          18 25 22 23 18 16
          22 25 33 18 22 14
          16 18 11 23 16 26
          14 22 20 18 14 11
          11 14 8 16 11 10
          8 14 12 11 8 7
          17 26 16 17 16 10
          7 8 3 11 7 10
          2 4 3 4 10 7
          4 7 3 3 8 1
          3 1 0 2 3 0
          28 20 22 12 5 8
          8 5 1 20 12 14
          33 30 22 22 30 28
        </DataArray>
        <DataArray type="Int64" Name="offsets" format="ascii" RangeMin="3" RangeMax="198">
          3 6 9 12 15 18
          21 24 27 30 33 36
          39 42 45 48 51 54
          57 60 63 66 69 72
          75 78 81 84 87 90
          93 96 99 102 105 108
          111 114 117 120 123 126
          129 132 135 138 141 144
          147 150 153 156 159 162
          165 168 171 174 177 180
          183 186 189 192 195 198
        </DataArray>
        <DataArray type="UInt8" Name="types" format="ascii" RangeMin="5" RangeMax="5">
          5 5 5 5 5 5
          5 5 5 5 5 5
          5 5 5 5 5 5
          5 5 5 5 5 5
          5 5 5 5 5 5
          5 5 5 5 5 5
          5 5 5 5 5 5
          5 5 5 5 5 5
          5 5 5 5 5 5
          5 5 5 5 5 5
          5 5 5 5 5 5
        </DataArray>
      </Cells>
    </Piece>
  </UnstructuredGrid>
</VTKFile>
