<?xml version="1.0"?>
<VTKFile type="UnstructuredGrid" version="0.1" byte_order="LittleEndian" header_type="UInt32" compressor="vtkZLibDataCompressor">
  <UnstructuredGrid>
    <Piece NumberOfPoints="44" NumberOfCells="66">
      <PointData>
        <DataArray type="Float64" Name="ale_BC" NumberOfComponents="3" format="ascii" RangeMin="0" RangeMax="0">
          0 0 0 0 0 0
          0 0 0 0 0 0
          0 0 0 0 0 0
          0 0 0 0 0 0
          0 0 0 0 0 0
          0 0 0 0 0 0
          0 0 0 0 0 0
          0 0 0 0 0 0
          0 0 0 0 0 0
          0 0 0 0 0 0
          0 0 0 0 0 0
          0 0 0 0 0 0
          0 0 0 0 0 0
          0 0 0 0 0 0
          0 0 0 0 0 0
          0 0 0 0 0 0
          0 0 0 0 0 0
          0 0 0 0 0 0
          0 0 0 0 0 0
          0 0 0 0 0 0
          0 0 0 0 0 0
          0 0 0 0 0 0
          <InformationKey name="L2_NORM_RANGE" location="vtkDataArray" length="2">
            <Value index="0">
              0
            </Value>
            <Value index="1">
              0
            </Value>
          </InformationKey>
        </DataArray>
        <DataArray type="Float64" Name="ale_FIXNO" NumberOfComponents="3" format="ascii" RangeMin="1" RangeMax="1.4142135623730951">
          1 1 0 0 1 0
          1 0 0 -1 -1 0
          -1 -1 0 0 1 0
          1 0 0 -1 -1 0
          -1 -1 0 -1 -1 0
          -1 -1 0 -1 -1 0
          0 1 0 1 0 0
          -1 -1 0 -1 -1 0
          -1 -1 0 -1 -1 0
          -1 -1 0 -1 -1 0
          0 1 0 1 0 0
          -1 -1 0 -1 -1 0
          -1 -1 0 -1 -1 0
          -1 -1 0 1 1 0
          1 1 0 -1 -1 0
          1 0 0 0 1 0
          -1 -1 0 1 0 0
          0 1 0 -1 -1 0
          -1 -1 0 -1 -1 0
          1 0 0 0 1 0
          -1 -1 0 1 0 0
          0 1 0 1 1 0
          <InformationKey name="L2_NORM_RANGE" location="vtkDataArray" length="2">
            <Value index="0">
              1
            </Value>
            <Value index="1">
              1.4142135624
            </Value>
          </InformationKey>
        </DataArray>
        <DataArray type="Float64" Name="nsi_BC" NumberOfComponents="3" format="ascii" RangeMin="0" RangeMax="0">
          0 0 0 0 0 0
          0 0 0 0 0 0
          0 0 0 0 0 0
          0 0 0 0 0 0
          0 0 0 0 0 0
          0 0 0 0 0 0
          0 0 0 0 0 0
          0 0 0 0 0 0
          0 0 0 0 0 0
          0 0 0 0 0 0
          0 0 0 0 0 0
          0 0 0 0 0 0
          0 0 0 0 0 0
          0 0 0 0 0 0
          0 0 0 0 0 0
          0 0 0 0 0 0
          0 0 0 0 0 0
          0 0 0 0 0 0
          0 0 0 0 0 0
          0 0 0 0 0 0
          0 0 0 0 0 0
          0 0 0 0 0 0
          <InformationKey name="L2_NORM_RANGE" location="vtkDataArray" length="2">
            <Value index="0">
              0
            </Value>
            <Value index="1">
              0
            </Value>
          </InformationKey>
        </DataArray>
        <DataArray type="Float64" Name="nsi_FIXNO" NumberOfComponents="3" format="ascii" RangeMin="1" RangeMax="1.4142135623730951">
          1 1 0 0 1 0
          1 0 0 -1 -1 0
          -1 -1 0 0 1 0
          1 0 0 -1 -1 0
          -1 -1 0 -1 -1 0
          -1 -1 0 -1 -1 0
          0 1 0 1 0 0
          -1 -1 0 -1 -1 0
          -1 -1 0 -1 -1 0
          -1 -1 0 -1 -1 0
          0 1 0 1 0 0
          -1 -1 0 -1 -1 0
          -1 -1 0 -1 -1 0
          -1 -1 0 1 1 0
          1 1 0 -1 -1 0
          1 0 0 0 1 0
          -1 -1 0 1 0 0
          0 1 0 -1 -1 0
          -1 -1 0 -1 -1 0
          1 0 0 0 1 0
          -1 -1 0 1 0 0
          0 1 0 1 1 0
          <InformationKey name="L2_NORM_RANGE" location="vtkDataArray" length="2">
            <Value index="0">
              1
            </Value>
            <Value index="1">
              1.4142135624
            </Value>
          </InformationKey>
        </DataArray>
        <DataArray type="Float64" Name="lev_BC" format="ascii" RangeMin="-0.5" RangeMax="0.5">
          -0.5 -0.3 -0.5 -0.32499 -0.35371 -0.25
          -0.5 -0.198092 -0.109713 -0.357575 -0.207421 -0.006945
          -0.25 -0.5 -0.059263 -0.216878 0.02803 -0.061131
          0.142998 -0.351371 -0.25 -0.5 0.030858 0.192875
          -0.104258 0.199684 0.083861 -0.5 -0.25 0.222426
          -0.048337 -0.280888 0.341722 0.153327 -0.061777 0.146545
          0.227286 0.363955 0.354826 0.155833 0.392298 0.5
          0.37 0.5
        </DataArray>
        <DataArray type="Float64" Name="lev_FIXNO" format="ascii" RangeMin="0" RangeMax="0">
          0 0 0 0 0 0
          0 0 0 0 0 0
          0 0 0 0 0 0
          0 0 0 0 0 0
          0 0 0 0 0 0
          0 0 0 0 0 0
          0 0 0 0 0 0
          0 0
        </DataArray>
        <DataArray type="Float64" Name="Velocity" NumberOfComponents="3" format="ascii" RangeMin="0" RangeMax="2.3130889198166757">
          0 0 0 0.3570476852446269 0 0
          0 -0.29010165804769483 0 0.40689672473466226 -0.23287478362009992 0
          0.5816551272194964 -0.4332173613505798 0 0.48701586483837367 0 0
          0 -0.4134429057778628 0 0.8751696244693664 -0.44233370198837674 0
          0.55423128739855 -0.24742950070795888 0 0.5580554405247431 -0.5127187844075185 0
          2.147660229739286 -0.8590319485181408 0 0.7200406732027863 -0.44811122378842944 0
          0.3435479076893629 0 0 0 -0.4122573826153277 0
          0.30379005661636077 -0.6569331252713461 0 0.3377279473147961 -0.46116603875512 0
          -0.1291876629250854 -0.10690176844388817 0 0.059060640847361796 -0.3868796701278071 0
          -0.08757793622351298 -0.22390764905796715 0 -0.14213548964292605 -0.26891645315090135 0
          0.21729495439703844 0 0 0 -0.2230490794507152 0
          -0.029039596639714758 -0.4759586606604591 0 -0.14488977522307117 -0.04389017791037268 0
          -1.3152934286094675 -0.23851994612196473 0 -0.05352824523055097 -0.10352973830154434 0
          -0.26098215917443274 -0.027497395081397636 0 0 0 0
          0 0 0 -0.0607650841328736 0.03689958355072312 0
          0 -0.5020758451314987 0 -0.6360071881957143 0 0
          -0.03658419007318472 -0.023208967658252536 0 0 -0.12271109633377797 0
          -1.6556005858886411 0 0 -0.156229063764796 0.1174819970121274 0
          -0.028016586173128074 0.0779130460143769 0 -0.0339633067983941 -0.03625917392273377 0
          0 -0.07924030745466032 0 -0.34277120577496184 0 0
          0.0962864253742483 -0.00006429692182663881 0 0 -0.016467909093420035 0
          0.09967558486835451 0 0 0 0 0
          <InformationKey name="L2_NORM_RANGE" location="vtkDataArray" length="2">
            <Value index="0">
              0
            </Value>
            <Value index="1">
              2.3130889198
            </Value>
          </InformationKey>
        </DataArray>
        <DataArray type="Float64" Name="Pressure" format="ascii" RangeMin="-4541.193065468689" RangeMax="4340.059472080531">
          -4541.193065468689 -4396.02428565116 -2534.4364939509737 -2889.9715661875666 -1556.526439317946 -3903.0606876739926
          -1196.1630501426816 -1635.0527942897265 -2607.3487503536776 -421.89331418632673 -851.7603326659279 -857.1217883027454
          -3152.7462174702723 17.475283270889808 -1227.3574937642627 -114.52472851847484 -214.606228854743 -877.0377170934651
          -472.50920439954837 1263.1802815656858 -2423.114806376194 1623.8162572806266 -776.8990325432104 293.6104677185538
          1050.8355084036123 -520.7075133542997 949.9451513949152 3486.2504845202484 -2009.654779099586 1201.7180157045168
          -812.3475586533872 3406.3452163665806 163.14080868546327 -753.9682122073286 3334.0760080246614 1918.2374814766606
          2079.768959064573 1376.9681555270615 102.89560366133787 3121.940410395233 2829.1230254906022 2120.9008047401207
          3718.012732871129 4340.059472080531
        </DataArray>
        <DataArray type="Float64" Name="Proj_residual_U" NumberOfComponents="3" format="ascii" RangeMin="17.42925328043176" RangeMax="90454.79181922565">
          713.7011180018951 699.4181122701513 0 -10949.186190901024 578.1201853676446 0
          428.9534789188751 15960.560163526095 0 -15730.101896189542 10969.081916344352 0
          -31377.219103637333 25076.60313215399 0 -8762.049246653283 615.0814812398448 0
          -390.2814784638735 24425.840664740255 0 -35941.16289935996 19997.14669193642 0
          -10448.437638608591 5183.076855040696 0 -38420.39468443011 30286.08199567268 0
          -82475.73172310769 37145.96936139128 0 3035.33216923584 -694.6602757802171 0
          727.997928020931 278.34292025350163 0 -180.9337196856224 23482.029185423755 0
          5420.278173758372 1860.4996405529519 0 -53217.12020675122 23956.074810656202 0
          -1281.4907460259299 -4298.295270676535 0 -20179.88573617331 4037.1483460384243 0
          4253.049775929258 -5136.103818287476 0 -9559.963555091175 11713.23550024111 0
          -1419.0613666243873 38.750723724619746 0 -414.748720125684 10420.785957482207 0
          339.0531976824142 -2629.5544745912316 0 1772.4456689786343 3249.6791599533335 0
          9019.254509701725 -5377.652640278126 0 -1937.744678462413 1303.0012418835684 0
          -8502.184708547746 -1249.7987387448095 0 -328.59530249543747 299.59999195788413 0
          4.027003838858345 -16.95765638274527 0 1594.8230741535385 607.0503781382203 0
          50.11834458987704 -1207.8588788771037 0 10529.329748551461 -609.5223391732613 0
          1008.0641422735725 -157.69860574551527 0 -242.28399187335742 -3110.1791942215414 0
          2938.4656692820654 -1987.1221465996064 0 -6696.3097243834045 -737.7207691771853 0
          760.8346429013725 446.8108592789479 0 507.9436217033559 -692.2595640950206 0
          437.5411925258788 1905.4327629061283 0 -10972.280695837982 -2506.2494650051653 0
          -3329.0353221507526 -57.9675318547101 0 1566.6166884330344 865.0843338353995 0
          4591.445095591763 585.1186603173904 0 3140.4578498501783 -379.1707328316641 0
          <InformationKey name="L2_NORM_RANGE" location="vtkDataArray" length="2">
            <Value index="0">
              17.42925328
            </Value>
            <Value index="1">
              90454.791819
            </Value>
          </InformationKey>
        </DataArray>
        <DataArray type="Float64" Name="Proj_residual_P" format="ascii" RangeMin="-5.249174551256845" RangeMax="5.917272132166955">
          3.4256989869620282 2.5619292365024138 4.071392764574514 3.09383445719383 5.917272132166955 1.7299934988302381
          4.231463319654374 2.3664333000769653 1.2528783192973758 3.914706346746842 2.1497020398435964 -1.2852496713437713
          2.11414583034298 1.088618376707299 0.07194165798570634 -2.6752486345895083 -1.1468069727541506 -1.8322721456908584
          -3.0506132425423935 -3.028852147065672 0.7556828686312604 -2.013382752029479 -0.8915827261439682 -0.09692990324627544
          -1.7826960205741298 -0.922380195851617 1.0230912926676163 -3.3536766611349034 0.0032231825579927117 0.4985757190368549
          -0.5367343009489041 -5.249174551256845 0.05990132175217455 -1.0059197862161593 -1.7538142924115194 3.814139390569535
          0.6468973247178267 0.03836370972745212 0.055661083362744196 4.481100410819172 -0.16899157248372842 -0.4505176546759898
          1.3982459963656804 -0.8906252718077704
        </DataArray>
        <DataArray type="Float64" Name="ALEdispl" NumberOfComponents="3" format="ascii" RangeMin="0" RangeMax="0">
          0 0 0 0 0 0
          0 0 0 0 0 0
          0 0 0 0 0 0
          0 0 0 0 0 0
          0 0 0 0 0 0
          0 0 0 0 0 0
          0 0 0 0 0 0
          0 0 0 0 0 0
          0 0 0 0 0 0
          0 0 0 0 0 0
          0 0 0 0 0 0
          0 0 0 0 0 0
          0 0 0 0 0 0
          0 0 0 0 0 0
          0 0 0 0 0 0
          0 0 0 0 0 0
          0 0 0 0 0 0
          0 0 0 0 0 0
          0 0 0 0 0 0
          0 0 0 0 0 0
          0 0 0 0 0 0
          0 0 0 0 0 0
          <InformationKey name="L2_NORM_RANGE" location="vtkDataArray" length="2">
            <Value index="0">
              0
            </Value>
            <Value index="1">
              0
            </Value>
          </InformationKey>
        </DataArray>
        <DataArray type="Float64" Name="ALEveloc" NumberOfComponents="3" format="ascii" RangeMin="0" RangeMax="1.748094941260018">
          0 0 0 0.22667746149458237 0 0
          0 -0.2146194116886501 0 0.24480938516954132 -0.17655284092052767 0
          0.2953091919285378 -0.3171196484995889 0 0.33814126977294556 0 0
          0 -0.3041708313875717 0 0.5209583452191432 -0.33540872428165514 0
          0.3863190561364838 -0.21487039094075472 0 0.24326145071704278 -0.37499305709353825 0
          1.0075050027826609 -0.5773726670762648 0 0.668264900603291 -0.3919593736404119 0
          0.2520993074443957 0 0 0 -0.3054554321795477 0
          0.20565808685087206 -0.6583012215088596 0 0.06211943533393282 -0.3733328096482289 0
          -0.05956049298202114 0.037674217246275045 0 0.39588972077810314 -0.4385778426555258 0
          -0.054463649753829134 -0.1452929725600913 0 -0.29510916250485697 -0.20793749513962226 0
          0.21989126994026267 0 0 0 -0.1702823105858587 0
          -0.030446331434502247 -0.32982238886689036 0 -0.03334079191181042 -0.040596148791607806 0
          -1.564628678322749 -0.1542299229401274 0 -0.02678491270630145 -0.12895654233385867 0
          -0.0405803203107061 0.024102015057786186 0 0 0 0
          0 0 0 -0.009663409642263183 0.004717806994822029 0
          0 -0.3338581208677111 0 -0.8581890642447356 0 0
          -0.011681516722154008 -0.04435866544570079 0 0 -0.0647426814637236 0
          -1.748094941260018 0 0 0.08078970027922971 0.11740376576047806 0
          0.052007593646234425 0.07013988975706052 0 0.0014112734261750599 -0.005620470706455711 0
          0 -0.03912472169349869 0 0.011076324423178492 0 0
          0.010231790796292916 0.009169372193689596 0 0 -0.002182653036466993 0
          0.006635883021599515 0 0 0 0 0
          <InformationKey name="L2_NORM_RANGE" location="vtkDataArray" length="2">
            <Value index="0">
              0
            </Value>
            <Value index="1">
              1.7480949413
            </Value>
          </InformationKey>
        </DataArray>
        <DataArray type="Float64" Name="LEVEL" format="ascii" RangeMin="-0.5444436413113588" RangeMax="0.5511914538128199">
          -0.5444436413113588 -0.4499251890020968 -0.41480843345350726 -0.327085167507048 -0.3258895235134449 -0.34861136090857286
          -0.4924729624671122 -0.178988778750703 -0.23385211687301094 -0.3878911485356249 -0.2988393762687849 -0.026054594630268026
          -0.2410379716914501 -0.5049756503286718 -0.07703033169605675 -0.251237843188622 0.006696724257886293 -0.07604855755970426
          0.14525513272723778 -0.3525137449554032 -0.2446656547365002 -0.4973986823220942 0.020827331726419093 0.2668434858892373
          -0.053084311159402556 0.2802024965283517 0.09347961152328882 -0.5030275897479436 -0.24783408526494902 0.22489390844065943
          -0.05877670835235465 -0.2510336939907225 0.41281589961890225 0.1551828216698383 -0.014744933956261438 0.14985513667853048
          0.22913474586211569 0.36504451231470725 0.5511914538128199 0.15810318595253092 0.38856101884919203 0.5011700574002224
          0.3674841492391607 0.5002904931575415
        </DataArray>
      </PointData>
      <CellData>
        <DataArray type="UInt8" Name="vtkGhostType" format="ascii" RangeMin="0" RangeMax="0">
          0 0 0 0 0 0
          0 0 0 0 0 0
          0 0 0 0 0 0
          0 0 0 0 0 0
          0 0 0 0 0 0
          0 0 0 0 0 0
          0 0 0 0 0 0
          0 0 0 0 0 0
          0 0 0 0 0 0
          0 0 0 0 0 0
          0 0 0 0 0 0
        </DataArray>
        <DataArray type="Float64" Name="Residual_U" NumberOfComponents="3" format="ascii" RangeMin="739.7055603857841" RangeMax="87563.9502164444">
          -731.7674286220774 -108.07750216154955 0 -6265.576953526717 1376.9290959559075 0
          -22719.616382132466 -42.096655735713796 0 -13263.799729531625 23526.57208574246 0
          -22150.82238139554 24546.12362574864 0 -12694.656839608038 26574.108254565515 0
          -15160.357928945541 22093.48167176307 0 -60533.43743271597 35645.92240046014 0
          -70862.74175426406 37778.92454788076 0 -3256.737886640294 15285.594326592465 0
          -2959.7016283731537 6987.367742995539 0 -35076.497225507315 22015.982908815087 0
          -15858.31955804195 9600.597459421451 0 -29901.500145021 7816.012754781782 0
          -81248.65796207903 32651.201461340508 0 771.6560404822254 3884.6878154086035 0
          10015.322791737082 -6874.166379181835 0 12403.004407292598 -4835.3910196707375 0
          13554.96113486123 -7073.6037458538285 0 4923.018080016154 550.6513330097105 0
          -8239.097904120632 -645.6740864833675 0 14174.409700130322 -3293.5208066206487 0
          2888.9936074030966 1144.174445232049 0 -192.44678689380544 -936.0514950239442 0
          1433.445467448415 610.1311823323671 0 -976.2387700833938 -551.3337040372683 0
          1239.012863015263 -452.0976186275102 0 851.1879238002439 -1275.837125767399 0
          -488.2208535364428 2109.1936510921378 0 -56.775419144265584 -2138.023786282382 0
          637.2242049102323 -1129.8340920215028 0 -1576.120837834356 538.08688909544 0
          -1919.6576239742526 646.1629944237285 0 -719.474852009811 1025.720495822943 0
          537.7272392884115 796.6486018983101 0 -1658.66315545057 1328.6552282929379 0
          268.5769732286142 -755.6128920123717 0 -337.2829570215424 -2131.20246364739 0
          741.0915030552464 -2923.2353242699483 0 2584.2704488447034 -4572.948278117232 0
          -823.2059998930827 -1650.1360106027323 0 4782.565523744152 2930.8809452357605 0
          717.2278632130736 -342.21170013225236 0 -3791.7834866339535 -2268.927516606932 0
          1724.0649619077594 -3184.7534417223333 0 4761.141528663997 4778.369429850134 0
          2154.6779293087416 3639.5354446273814 0 -1094.015734956317 -2788.0795757663973 0
          130.79742490810622 2403.21113713074 0 -14673.310687933128 7414.127428192209 0
          -19226.024270832222 6007.729250212151 0 -17915.814834144338 7164.124741050931 0
          -20755.41392971681 12094.99216797585 0 -51337.76168918169 26629.20485356869 0
          -16421.24652468371 17513.94025016372 0 -61317.970700126876 34551.14538912944 0
          -27007.267176834994 18053.63280734019 0 -12179.385414646447 4988.17354264477 0
          -9219.564544081455 3923.410229600262 0 -4992.794394483302 8423.780376899605 0
          2103.679083935063 -5429.852694136825 0 -5837.678174704506 1966.4272714825229 0
          -10233.046535276022 1949.3465669013244 0 1400.9701987207795 1158.3881555596233 0
          89.02224556632522 -5066.83581138209 0 2433.3503524349544 -11311.443686590033 0
          <InformationKey name="L2_NORM_RANGE" location="vtkDataArray" length="2">
            <Value index="0">
              739.70556039
            </Value>
            <Value index="1">
              87563.950216
            </Value>
          </InformationKey>
        </DataArray>
        <DataArray type="Float64" Name="Residual_P" format="ascii" RangeMin="-10.72083674458105" RangeMax="11.090227200130208">
          1.5387128874147016 0.4286521553235202 2.3591489946954787 4.550762732199766 4.443077096356496 3.9121639071089804
          1.3595065545150602 11.090227200130208 3.53226384629827 -1.9266115307830622 -2.1001539732758965 -0.5995225944940665
          -5.040999642443397 -3.7780373391534683 -6.137613136610566 -4.078942325342803 4.794344618752877 -5.891907727209075
          6.409573128573133 -5.8330055733831845 3.0838320787631863 4.628763345023841 -0.7672939201068157 -0.9776785623272986
          0.8294776949240568 -0.40225090459426815 -0.06680924977060902 0.31983221502339365 -0.13786022731344658 0.20438151568385937
          0.2680832397269581 0.03770620800777247 1.2358801493770544 1.086480255626855 0.015402690253305817 0.26290478815845175
          -0.21512966798382527 -0.5729113880510774 -1.8951195447505884 -1.0683286940814853 -1.9635813298465021 -3.2006641757019634
          -5.079191955262192 -0.1751331779626511 0.14367350074460017 -6.4429343444349065 -1.2903334721345505 -10.72083674458105
          2.19424585806098 0.06981704687216461 -1.8534109707586128 -9.154871535907294 2.400218374257896 0.10916997752338763
          3.829805317485847 6.710748456389011 3.5417489060312866 2.122841019944202 3.1752675944497986 3.643636513404176
          0.6081834600353049 1.046403156973344 2.4135838406871324 2.8129181936947503 -1.7417407194194157 2.629107718345571
        </DataArray>
      </CellData>
      <Points>
        <DataArray type="Float32" Name="Points" NumberOfComponents="3" format="ascii" RangeMin="0" RangeMax="1.4142135623730951">
          0 1 0 0.20000000298023224 1 0
          0 0.7799999713897705 0 0.17500990629196167 0.8324676752090454 0
          0.14628949761390686 0.6488438844680786 0 0.4000000059604645 1 0
          0 0.5849999785423279 0 0.30190789699554443 0.7062488794326782 0
          0.4018622040748596 0.8597133755683899 0 0.14242489635944366 0.45817598700523376 0
          0.29257911443710327 0.5176876783370972 0 0.49305540323257446 0.6697210073471069 0
          0.6000000238418579 1 0 0 0.38999998569488525 0
          0.6244276165962219 0.8092629909515381 0 0.2831222116947174 0.36456531286239624 0
          0.5280297994613647 0.49493080377578735 0 0.43886861205101013 0.3865315914154053 0
          0.659912109375 0.6070019006729126 0 0.14862869679927826 0.22861619293689728 0
          0.800000011920929 1 0 0 0.19499999284744263 0
          0.791735827922821 0.7191417813301086 0 0.6928746104240417 0.44221389293670654 0
          0.39574238657951355 0.1925719976425171 0 0.7972490191459656 0.5503162145614624 0
          0.5838605761528015 0.2565388083457947 0 0 0 0
          1 1 0 0.7224256992340088 0.28607040643692017 0
          1 0.7983365058898926 0 0.2191116064786911 0 0
          0.841722309589386 0.3865504860877991 0 1 0.5966730117797852 0
          0.4382232129573822 0 0 0.6465445160865784 0.11541219800710678 0
          0.7272865176200867 0.12795010209083557 0 0.8639553785324097 0.2512752115726471 0
          1 0.3951736092567444 0 0.6558331847190857 0 0
          0.8922978043556213 0.11509300023317337 0 1 0.19681400060653687 0
          0.8700000047683716 0 0 1 0 0
          <InformationKey name="L2_NORM_RANGE" location="vtkDataArray" length="2">
            <Value index="0">
              0
            </Value>
            <Value index="1">
              1.4142135624
            </Value>
          </InformationKey>
        </DataArray>
      </Points>
      <Cells>
        <DataArray type="Int64" Name="connectivity" format="ascii" RangeMin="0" RangeMax="43">
          42 36 35 35 36 26
          26 17 24 2 6 9
          4 2 9 9 6 13
          9 13 19 4 9 10
          10 9 15 19 13 21
          19 21 27 9 19 15
          15 19 24 15 24 17
          15 17 10 19 27 31
          39 24 34 34 24 31
          24 39 35 24 19 31
          42 35 39 35 26 24
          42 43 40 40 43 41
          42 40 36 40 41 37
          37 41 38 40 37 36
          36 37 29 29 37 32
          32 37 38 29 32 23
          36 29 26 26 29 23
          32 38 33 23 32 25
          25 32 33 23 25 18
          18 25 22 23 18 16
          22 25 33 18 22 14
          16 18 11 23 16 26
          14 22 20 18 14 11
          11 14 8 16 11 10
          8 14 12 11 8 7
          17 26 16 17 16 10
          7 8 3 11 7 10
          2 4 3 4 10 7
          4 7 3 3 8 1
          3 1 0 2 3 0
          28 20 22 12 5 8
          8 5 1 20 12 14
          33 30 22 22 30 28
        </DataArray>
        <DataArray type="Int64" Name="offsets" format="ascii" RangeMin="3" RangeMax="198">
          3 6 9 12 15 18
          21 24 27 30 33 36
          39 42 45 48 51 54
          57 60 63 66 69 72
          75 78 81 84 87 90
          93 96 99 102 105 108
          111 114 117 120 123 126
          129 132 135 138 141 144
          147 150 153 156 159 162
          165 168 171 174 177 180
          183 186 189 192 195 198
        </DataArray>
        <DataArray type="UInt8" Name="types" format="ascii" RangeMin="5" RangeMax="5">
          5 5 5 5 5 5
          5 5 5 5 5 5
          5 5 5 5 5 5
          5 5 5 5 5 5
          5 5 5 5 5 5
          5 5 5 5 5 5
          5 5 5 5 5 5
          5 5 5 5 5 5
          5 5 5 5 5 5
          5 5 5 5 5 5
          5 5 5 5 5 5
        </DataArray>
      </Cells>
    </Piece>
  </UnstructuredGrid>
</VTKFile>
