<?xml version="1.0"?>
<VTKFile type="UnstructuredGrid" version="0.1" byte_order="LittleEndian" header_type="UInt32" compressor="vtkZLibDataCompressor">
  <UnstructuredGrid>
    <Piece NumberOfPoints="69" NumberOfCells="107">
      <PointData>
        <DataArray type="Float64" Name="nsi_SBC" NumberOfComponents="3" format="ascii" RangeMin="0" RangeMax="0">
          0 0 0 0 0 0
          0 0 0 0 0 0
          0 0 0 0 0 0
          0 0 0 0 0 0
          0 0 0 0 0 0
          0 0 0 0 0 0
          0 0 0 0 0 0
          0 0 0 0 0 0
          0 0 0 0 0 0
          0 0 0 0 0 0
          0 0 0 0 0 0
          0 0 0 0 0 0
          0 0 0 0 0 0
          0 0 0 0 0 0
          0 0 0 0 0 0
          0 0 0 0 0 0
          0 0 0 0 0 0
          0 0 0 0 0 0
          0 0 0 0 0 0
          0 0 0 0 0 0
          0 0 0 0 0 0
          0 0 0 0 0 0
          0 0 0 0 0 0
          0 0 0 0 0 0
          0 0 0 0 0 0
          0 0 0 0 0 0
          0 0 0 0 0 0
          0 0 0 0 0 0
          0 0 0 0 0 0
          0 0 0 0 0 0
          0 0 0 0 0 0
          0 0 0 0 0 0
          0 0 0 0 0 0
          0 0 0 0 0 0
          0 0 0
          <InformationKey name="L2_NORM_RANGE" location="vtkDataArray" length="2">
            <Value index="0">
              0
            </Value>
            <Value index="1">
              0
            </Value>
          </InformationKey>
        </DataArray>
        <DataArray type="Float64" Name="nsi_SFIXNO" NumberOfComponents="3" format="ascii" RangeMin="0" RangeMax="1.7320508075688772">
          0 0 0 0 0 0
          0 0 0 0 0 0
          0 0 0 -1 -1 -1
          -1 -1 -1 -1 -1 -1
          0 0 0 0 0 0
          -1 -1 -1 -1 -1 -1
          -1 -1 -1 -1 -1 -1
          0 0 0 0 0 0
          -1 -1 -1 0 0 0
          0 0 0 -1 -1 -1
          -1 -1 -1 -1 -1 -1
          0 0 0 0 0 0
          -1 -1 -1 -1 -1 -1
          -1 -1 -1 -1 -1 -1
          -1 -1 -1 0 0 0
          -1 -1 -1 -1 -1 -1
          -1 -1 -1 0 0 0
          -1 -1 -1 -1 -1 -1
          -1 -1 -1 0 0 0
          0 0 0 -1 -1 -1
          -1 -1 -1 0 0 0
          0 0 0 0 0 0
          -1 -1 -1 -1 -1 -1
          0 0 0 0 0 0
          -1 -1 -1 -1 -1 -1
          -1 -1 -1 -1 -1 -1
          -1 -1 -1 0 0 0
          -1 -1 -1 -1 -1 -1
          0 0 0 -1 -1 -1
          -1 -1 -1 -1 -1 -1
          -1 -1 -1 -1 -1 -1
          0 0 0 0 0 0
          0 0 0 0 0 0
          0 0 0 0 0 0
          0 0 0
          <InformationKey name="L2_NORM_RANGE" location="vtkDataArray" length="2">
            <Value index="0">
              0
            </Value>
            <Value index="1">
              1.7320508076
            </Value>
          </InformationKey>
        </DataArray>
        <DataArray type="Float64" Name="nsi_UBC" NumberOfComponents="3" format="ascii" RangeMin="0" RangeMax="1">
          0 0 0 0 0 0
          0 0 0 0 0 0
          0 0 0 0 0 0
          0 0 0 0 0 0
          0 0 0 0 0 0
          0 0 0 0 0 0
          0 0 0 0 0 0
          0 0 0 0 0 0
          0 0 0 0 0 0
          0 0 0 0 0 0
          0 0 0 0 0 0
          0 0 0 0 0 0
          0 0 0 0 0 0
          0 0 0 0 0 0
          0 0 0 0 0 0
          0 0 0 0 0 0
          0 0 0 0 0 0
          0 0 0 0 0 0
          0 0 0 0 0 0
          0 0 0 0 0 0
          0 0 0 0 0 0
          0 0 0 0 0 0
          0 0 0 0 0 0
          0 0 0 0 0 0
          0 0 0 0 0 0
          0 0 0 0 0 0
          0 0 0 0 0 0
          0 0 0 0 0 0
          0 0 0 0 0 0
          0 0 0 0 0 0
          0 0 0 0 0 0
          1 0 0 1 0 0
          0 0 0 1 0 0
          1 0 0 1 0 0
          1 0 0
          <InformationKey name="L2_NORM_RANGE" location="vtkDataArray" length="2">
            <Value index="0">
              0
            </Value>
            <Value index="1">
              1
            </Value>
          </InformationKey>
        </DataArray>
        <DataArray type="Float64" Name="nsi_UFIXNO" NumberOfComponents="3" format="ascii" RangeMin="0" RangeMax="1.4142135623730951">
          0 1 0 0 0 0
          0 1 0 0 0 0
          0 1 0 -1 -1 0
          -1 -1 0 -1 -1 0
          0 0 0 0 1 0
          -1 -1 0 -1 -1 0
          -1 -1 0 -1 -1 0
          0 1 0 0 1 0
          -1 -1 0 0 1 0
          0 1 0 -1 -1 0
          -1 -1 0 -1 -1 0
          0 1 0 0 1 0
          -1 -1 0 -1 -1 0
          -1 -1 0 -1 -1 0
          -1 -1 0 0 1 0
          -1 -1 0 -1 -1 0
          -1 -1 0 0 1 0
          -1 -1 0 -1 -1 0
          -1 -1 0 1 1 0
          1 1 0 -1 -1 0
          -1 -1 0 1 1 0
          1 1 0 0 1 0
          -1 -1 0 -1 -1 0
          1 1 0 1 1 0
          -1 -1 0 -1 -1 0
          -1 -1 0 -1 -1 0
          -1 -1 0 0 1 0
          -1 -1 0 -1 -1 0
          0 1 0 -1 -1 0
          -1 -1 0 -1 -1 0
          -1 -1 0 -1 -1 0
          1 1 0 1 1 0
          0 1 0 1 1 0
          1 1 0 1 1 0
          1 1 0
          <InformationKey name="L2_NORM_RANGE" location="vtkDataArray" length="2">
            <Value index="0">
              0
            </Value>
            <Value index="1">
              1.4142135624
            </Value>
          </InformationKey>
        </DataArray>
        <DataArray type="Float64" Name="Velocity" NumberOfComponents="3" format="ascii" RangeMin="0" RangeMax="1.6253445844688197">
          1.0009858068709554 0 0 0.9996920838861619 -0.00042491420336627334 0
          1.0011466309569526 0 0 0.9998444809353724 0.0004564554964376559 0
          1.0013119848792265 0 0 0.9993547693541932 -0.0008870044675184413 0
          0.9998727936921437 0.00018116434726212781 0 0.9980867850585012 -0.0023691072233755304 0
          0.9998649981327185 -0.000059455037023437924 0 1.0061772900501198 0 0
          0.9994724019152309 0.0008822440332211119 0 0.9999405087584876 0.0006952458930841256 0
          0.9934917550464728 -0.005071140460510819 0 0.9990329767368594 0.0020060894875647078 0
          1.000210877697521 0 0 1.0055004995150123 0 0
          0.9998529287777255 0.0015675587118280684 0 1.0004138763413235 0 0
          1.0010679538425244 0 0 0.9897994583509698 0.007735350859083977 0
          1.0010884360322114 -0.02427109103667169 0 0.9989992162740837 0.008221639365978308 0
          1.0064776682684218 0 0 1.0419553490988316 0 0
          0.9739471939039911 0.011726139005622556 0 0.9242827812083505 -0.1217757486827907 0
          1.0136467750749876 0.022125751473499804 0 1.062976106427172 -0.0336530321703255 0
          0.7593919453900616 0.013366026327105469 0 1.0107671960016564 0 0
          0.9267586545025875 0.14420289265726288 0 1.223701670249632 -0.19026929145301424 0
          0.7913338171588521 -0.4425543902281336 0 1.0539650483978296 0 0
          1.0520521609449156 0.03231387822044213 0 0.7853896011932511 0.4653873094941228 0
          1.1087965471848753 -0.033443713986816136 0 0 0 0
          0 0 0 1.2261346051276034 0.19669755555709204 0
          1.577894259163179 0.1455240421230395 0 0 0 0
          0 0 0 1.0362440437063951 0 0
          1.6199335089700893 -0.1325158284054195 0 1.1661038403531139 0.1546500194409966 0
          0 0 0 0 0 0
          0.9347143996257155 0.43528680423814514 0 0.9682625335328654 0.10102205004827779 0
          1.1039072301521415 0.02823967845558838 0 0.9206476515185456 -0.37873720464452976 0
          1.153077622000431 -0.13101122999154896 0 1.1254817534193284 0 0
          0.8303957496027692 0.07506046313900695 0 0.8114847449453139 0.00954803003098188 0
          1.0918632489805045 0 0 0.9269137627047358 -0.08351910197841586 0
          0.9974463598449511 -0.06216284146302452 0 1.058587317449864 0.07888150378692688 0
          1.0908029214754964 -0.0335679338599993 0 1.1824710890319994 -0.04797289846633152 0
          1.0000000046625306 0 0 1.0000000046625306 0 0
          0.9649769280080881 0 0 1.0000000046625306 0 0
          1.0000000046625306 0 0 1.0000000046625306 0 0
          1.0000000046625306 0 0
          <InformationKey name="L2_NORM_RANGE" location="vtkDataArray" length="2">
            <Value index="0">
              0
            </Value>
            <Value index="1">
              1.6253445845
            </Value>
          </InformationKey>
        </DataArray>
        <DataArray type="Float64" Name="Pressure" format="ascii" RangeMin="-0.6434213752795831" RangeMax="1.695512720899467">
          0.0014189308712577715 -0.00008440338266162885 0.0066829230098038985 0.0004991499436683597 0.01853644738341608 -0.0051831112229778105
          -0.0005782755599360363 -0.013896333513305761 -0.0000346938596631402 0.01941436556176625 -0.0022466724088988192 -0.001099780843229599
          -0.014582311522689136 0.0003649858460711117 0.0008149008709745764 0.05085857277872461 -0.006040215258960515 0.0007650852892105173
          0.010259706782506052 0.0037581000505556624 -0.10157365740962077 -0.0038155091421754523 0.010740456721788234 0.03776460038541567
          0.11446800853302988 0.07930954739489099 -0.08691258585844207 0.012583407217364942 -0.028132631522682403 0.05904266242501911
          0.023613468952644375 -0.07355881558013398 -0.3587166510607211 -0.162245095409319 0.04207512725288696 -0.5328360271375532
          -0.022355631195996564 -0.4873861367334131 -0.6181123509131469 -0.07078526746753039 -0.5802914317546957 -0.6434213752795831
          0.18715097410998618 -0.0020838508446329083 -0.6224601046045662 0.06850161547965043 0.2520082063246171 1.106683058130757
          0.5205805285545171 0.22027368462427643 0.10440097574890718 0.39507460974852926 -0.02089880856681229 -0.6138742774351639
          0.2923200052455503 0.5763283943933641 -0.1286084837617186 0.07880821984058516 0.06633385871121926 0.2949156320286742
          0.08238231477746824 -0.13209243003417512 1.3751557491233612 1.561138004757069 0.14970689318528604 1.4523366168529575
          1.0872579423652982 1.695512720899467 1.1526698142477998
        </DataArray>
        <DataArray type="Float64" Name="Sigma" NumberOfComponents="6" format="ascii" RangeMin="7.258458739603385e-7" RangeMax="0.03252496339114906">
          0.0000016953062953461995 -0.000001612473660150826 0 0.0000010054236554424278 0 0
          5.490311871803044e-7 -2.278397470689697e-7 0 0.000002212778682508798 0 0
          -0.000006596470397690624 0.000005814262693526473 0 0.0000016500712379796667 0 0
          -9.423955060761102e-7 0.0000010192944488451872 0 -0.00000103197109746489 0 0
          -0.000010940377953572167 0.000012469222010480507 0 0.0000053315222722782885 0 0
          0.000006712418354481997 -0.000006875245139870145 0 0.0000024388264310837293 0 0
          -0.0000011298485147470672 0.0000014975129580818702 0 -9.89865781009236e-7 0 0
          0.00000846804206755536 -0.000008924831312873138 0 0.000008074215829267928 0 0
          3.4243748947559993e-7 -3.2933862303963224e-7 0 5.487484577848534e-7 0 0
          -0.000025409539861076524 0.00001973749564898597 0 0.0000011326234526654044 0 0
          0.00000227191350177236 -0.0000018876172347415121 0 -0.000003944479995410255 0 0
          0.000002091311224194925 -0.000002635223761426886 0 -0.0000027773213034931743 0 0
          0.00004430383117037806 -0.00004037283502511535 0 0.00001058104493259493 0 0
          0.000008213264790501995 -0.000006043960887325284 0 -0.00000823588875153991 0 0
          0.0000011109259290265072 -7.00683422394377e-7 0 -0.000001411244049398519 0 0
          -0.00006779836736470202 0.00007431455175677115 0 0.00006403351510975153 0 0
          -0.000001439300256755871 0.0000011263881383172247 0 -0.0000017463840623621607 0 0
          -0.0000031788652488096147 0.0000027377159650399108 0 -0.0000014273546622423083 0 0
          -0.00000942315467877819 0.000011679626799043774 0 -0.000006116445228077083 0 0
          0.000049946631486275095 -0.00005343799052148768 0 -0.000030726455380047923 0 0
          -0.000055521320074802816 0.00004147250486363774 0 0.00008721894875773906 0 0
          0.000011307193426013384 -0.000008670306772540215 0 -0.00005035580626089331 0 0
          -0.00003117520172568611 0.000024595380765379815 0 -0.000011209924850874575 0 0
          -0.00021007066058342794 0.0002052714691336277 0 -0.000009712179271231802 0 0
          0.0005265855076208581 -0.0004590051558395203 0 -0.00015650375879000533 0 0
          -0.00011790076451245746 0.00012152067614401574 0 0.001896621295832679 0 0
          -0.00012774517532121443 0.00010764319108291787 0 0.000004072551556578985 0 0
          -0.00004499462438189994 0.00009383744168367514 0 0.0002053424625114708 0 0
          0.0011451335157897091 -0.0015494485768319244 0 -0.00024467842256736816 0 0
          -0.00006907650531573495 0.00007891948133886828 0 -0.000041273056079760284 0 0
          -0.00023335593967166446 0.0002601412608327358 0 -0.002148854453240534 0 0
          -0.006028517644801612 0.005815893863303501 0 -0.004255622445836771 0 0
          0.0068053646994581385 -0.0047431081353355165 0 0.007494496429283348 0 0
          -0.00003203778273230817 0.00001656401916738659 0 -0.00021367807016003937 0 0
          -0.00009582122657558756 0.00014998402780852516 0 -0.0002147452738604505 0 0
          0.007484702125992726 -0.005207983765587176 0 -0.007752502075267231 0 0
          0.00009926327351195141 -0.00012094838576781619 0 -0.0006191897183788209 0 0
          0.016468340288144923 -0.012213628108298513 0 -0.0004847196720624697 0 0
          0.00013681511098484478 0.0032131304461446852 0 0.009246056883771558 0 0
          -0.006135632348208686 0.005893001660994823 0 0.0039333931748819495 0 0
          0.0036072435698586425 -0.0022808652783257166 0 0.0016681236893481555 0 0
          -0.00019366787379349049 0.003477235773230447 0 -0.008460568112481082 0 0
          0.0015021348628074804 0.0015933911828858172 0 0.008442847120551655 0 0
          -0.0002300805269583872 0.00022933423994286883 0 -0.000027290487250933304 0 0
          0.0029054407767348245 -0.0016454698536449985 0 -0.00153219442961261 0 0
          0.005028785690663895 -0.005254835893581111 0 -0.001949350466984301 0 0
          0.0027419770500247687 0.0005475141760191704 0 -0.009165716893186349 0 0
          -0.020068831077096894 0.02559451710865135 0 0.00018962270299221345 0 0
          -0.0019430885887850025 0.0032300278724584075 0 0.00709572670027081 0 0
          -0.000036406825720813885 0.00008236666808603132 0 0.00019058127413706938 0 0
          -0.000023913725222257654 0.000025833566741351177 0 0.0006885296702091592 0 0
          -0.002068451288073092 0.003320383609939359 0 -0.007456396037924806 0 0
          0.004540501524974427 -0.0047861845262842095 0 0.0020605237285184486 0 0
          0.0006441849158433932 -0.000523103231803157 0 0.00019852247465645956 0 0
          -0.0009944139976625355 0.0009881134564682093 0 0.0005578333442557426 0 0
          -0.0011107953553024519 0.0004333909824127957 0 0.0004130327712348336 0 0
          0.00020416484427521198 -0.0002367861646923597 0 0.0001769167174398012 0 0
          -0.0005430040488363375 0.0006619454285261561 0 -0.0007117830943204062 0 0
          -0.00011828484849929488 0.00015866587047552727 0 -0.00009202185770329496 0 0
          0.00018130635568436304 -0.00010238742205737061 0 0.0004672772769498401 0 0
          0.00004948994403175533 0.00020087210876873485 0 0.00019447109557146902 0 0
          0.0005831496846298023 -0.00045760516140247454 0 -0.0000928348779918875 0 0
          -0.0008404885260382411 0.0006845705276425917 0 0.0005891705286920068 0 0
          -0.00005381140417703989 -0.00010449003032819704 0 -0.00023958080995201136 0 0
          0.00018238698857864222 -0.00013131998063409256 0 0.00043834400430819986 0 0
          -0.00037922139021762113 0.00002889265031669197 0 -0.0003089186744548167 0 0
          -0.0001062309489041624 -0.00005409570478231984 0 -0.00007407477972398713 0 0
          0.00009854506078932346 -0.0004397315518100964 0 -0.00031321333372746896 0 0
          -0.00034869512978707995 0.00023664059951578054 0 0.0000026288229353771397 0 0
          <InformationKey name="L2_NORM_RANGE" location="vtkDataArray" length="2">
            <Value index="0">
              7.2584587396e-07
            </Value>
            <Value index="1">
              0.032524963391
            </Value>
          </InformationKey>
        </DataArray>
        <DataArray type="Float64" Name="Psi" NumberOfComponents="6" format="ascii" RangeMin="1.4516917496418664e-8" RangeMax="0.0006504459335912402">
          3.3906125182335955e-8 -3.224947366315439e-8 0 2.010847302844026e-8 0 0
          1.098062297105734e-8 -4.556795746376139e-9 0 4.425557346950699e-8 0 0
          -1.3192941711454339e-7 1.1628524645086602e-7 0 3.300142503446244e-8 0 0
          -1.884791064127468e-8 2.0385888443556782e-8 0 -2.063942195197266e-8 0 0
          -2.188075886241138e-7 2.493844032639002e-7 0 1.0663044378439795e-7 0 0
          1.3424835674676444e-7 -1.3750491364523337e-7 0 4.877652869338594e-8 0 0
          -2.259697077896293e-8 2.9950258629963155e-8 0 -1.9797315581505485e-8 0 0
          1.6936081397821012e-7 -1.7849665519129432e-7 0 1.6148431730340032e-7 0 0
          6.848749738982548e-9 -6.586772537992552e-9 0 1.0974969163663285e-8 0 0
          -5.081909267130238e-7 3.947498346206329e-7 0 2.2652470338092838e-8 0 0
          4.5438265790942705e-8 -3.7752348650772804e-8 0 -7.888959963706824e-8 0 0
          4.182622228845354e-8 -5.270447808279749e-8 0 -5.55464263895263e-8 0 0
          8.860762084592745e-7 -8.074570486883826e-7 0 2.1162089031913484e-7 0 0
          1.6426526858074272e-7 -1.208792389457976e-7 0 -1.6471777144535354e-7 0 0
          2.2218518348390148e-8 -1.401366860088894e-8 0 -2.8224880894136897e-8 0 0
          -0.0000013559690867376574 0.0000014862891105507507 0 0.0000012806702187371688 0 0
          -2.8786005836097506e-8 2.2527762122603822e-8 0 -3.492768132928329e-8 0 0
          -6.357730754485248e-8 5.4754317361574205e-8 0 -2.854709339582403e-8 0 0
          -1.8846311860434323e-7 2.3359250140849073e-7 0 -1.223289017417965e-7 0 0
          9.989319419499064e-7 -0.000001068760570573118 0 -6.145291290772942e-7 0 0
          -0.0000011104285395913993 8.294482317907428e-7 0 0.0000017443792202772233 0 0
          2.2614333587310395e-7 -1.7340665763740612e-7 0 -0.0000010071160986281787 0 0
          -6.235042539336955e-7 4.919074692107341e-7 0 -2.241985117236044e-7 0 0
          -0.000004201422056273799 0.00000410542093659712 0 -1.9424359474834396e-7 0 0
          0.000010531649795645574 -0.00000918015015275525 0 -0.0000031300730605906073 0 0
          -0.0000023587375057999324 0.0000024296911362354733 0 0.00003793242456183099 0 0
          -0.0000025549067734467283 0.0000021528615010571965 0 8.145104750219026e-8 0 0
          -8.999013258643477e-7 0.000001876738639206003 0 0.000004106847244257144 0 0
          0.00002290239608020817 -0.000030989463678727864 0 -0.000004893588238076728 0 0
          -0.0000013815314010592492 0.0000015783880405514515 0 -8.254610403539131e-7 0 0
          -0.000004668053202171 0.000005201888170441416 0 -0.000042977077580046254 0 0
          -0.00012058124445111665 0.00011630749107253468 0 -0.00008511263048998485 0 0
          0.00013608680006412202 -0.0000948778963034882 0 0.00014988683932323888 0 0
          -6.407649917789137e-7 3.3127119672969673e-7 0 -0.0000042735620644700055 0 0
          -0.000001916435591044835 0.0000029996668341261173 0 -0.000004294903150943701 0 0
          0.0001496708207908153 -0.0001041771210353268 0 -0.00015504651360791896 0 0
          0.00000198518682054357 -0.000002419047320296098 0 -0.000012383797053742194 0 0
          0.0003293125294465392 -0.00024430244856330456 0 -0.000009693981256372462 0 0
          0.0000027192013568547494 0.00006424344775208426 0 0.0001849149452915745 0 0
          -0.0001227232713562987 0.00011784999418886851 0 0.00007866805491213923 0 0
          0.00007214171259052002 -0.00004561890260172178 0 0.000033362031331171934 0 0
          -0.000003887680630484635 0.0000695279823904929 0 -0.00016920580795285042 0 0
          0.00003002799052316914 0.000031853060446528155 0 0.0001688517171669781 0 0
          -0.000004601621275578151 0.000004586674131085939 0 -5.458097491051343e-7 0 0
          0.00005810665778498904 -0.00003291040812543178 0 -0.000030643502523847734 0 0
          0.00010056989647033695 -0.00010510300096796663 0 -0.00003898709762730942 0 0
          0.000054821236645361356 0.000010933422352247924 0 -0.00018330831003569802 0 0
          -0.0004014572018914934 0.0005117593638170115 0 0.0000037922447758874243 0 0
          -0.000038872596869745384 0.00006458840166189308 0 0.00014191270875435545 0 0
          -7.281440437918774e-7 0.0000016473247405935952 0 0.0000038116237308873182 0 0
          -4.7836943360962e-7 5.16576386650219e-7 0 0.000013770593140702387 0 0
          -0.000041381001172870045 0.00006639434841598857 0 -0.00014912605505097208 0 0
          0.00009080505841517711 -0.00009572912153930994 0 0.000041210575960567475 0 0
          0.000012883607440686171 -0.00001046212724594385 0 0.000003970444685838282 0 0
          -0.00001988853996427468 0.000019762011623389064 0 0.000011156667589992897 0 0
          -0.00002221618800269715 0.000008667747963738714 0 0.000008260711383934006 0 0
          0.000004083282288780424 -0.000004735740767416546 0 0.0000035383355030781953 0 0
          -0.000010860241275578505 0.000013238719610803201 0 -0.000014235644955964911 0 0
          -0.0000023657014618924604 0.000003173310680752668 0 -0.0000018404364108296573 0 0
          0.000003626076869880808 -0.0000020477942075395405 0 0.000009345538163977967 0 0
          9.897908268225647e-7 0.0000040174265414716215 0 0.0000038894121738374644 0 0
          0.000011662923956594785 -0.000009152146832520733 0 -0.0000018566952289162226 0 0
          -0.00001680998123164338 0.000013691247402555748 0 0.000011783428947799185 0 0
          -0.0000010762401424987344 -0.000002089814270149475 0 -0.000004791623784315771 0 0
          0.000003647694689791758 -0.000002626441490586279 0 0.00000876687560950785 0 0
          -0.000007584475652736567 5.778337529014803e-7 0 -0.000006178395133871357 0 0
          -0.0000021246223327762134 -0.0000010819157784424996 0 -0.0000014814979697253307 0 0
          0.000001970879652845444 -0.000008794689330018767 0 -0.000006264288047641815 0 0
          -0.000006973926914729464 0.000004732800789385739 0 5.257651762222372e-8 0 0
          <InformationKey name="L2_NORM_RANGE" location="vtkDataArray" length="2">
            <Value index="0">
              1.4516917496e-08
            </Value>
            <Value index="1">
              0.00065044593359
            </Value>
          </InformationKey>
        </DataArray>
      </PointData>
      <CellData>
        <DataArray type="UInt8" Name="vtkGhostType" format="ascii" RangeMin="0" RangeMax="0">
          0 0 0 0 0 0
          0 0 0 0 0 0
          0 0 0 0 0 0
          0 0 0 0 0 0
          0 0 0 0 0 0
          0 0 0 0 0 0
          0 0 0 0 0 0
          0 0 0 0 0 0
          0 0 0 0 0 0
          0 0 0 0 0 0
          0 0 0 0 0 0
          0 0 0 0 0 0
          0 0 0 0 0 0
          0 0 0 0 0 0
          0 0 0 0 0 0
          0 0 0 0 0 0
          0 0 0 0 0 0
          0 0 0 0 0
        </DataArray>
        <DataArray type="Float64" Name="Velocity_SGS" NumberOfComponents="3" format="ascii" RangeMin="0" RangeMax="0.3561327859859763">
          6.9519845436427e-310 6.9519845436427e-310 4.6540790734435e-310 0.08841347132168798 0.10270442118258523 0
          0.06541461841737012 -0.2787399486763137 0 0.3500576901817225 -0.0654994259422964 0
          0.34839604361000853 0.0666300557859029 0 0.06535980341628192 0.2711322781992208 0
          0.08244396049484962 -0.10180404659391415 0 -0.20673063244971224 0.0019396290294713958 0
          -0.1863258368786971 -0.013674572782147319 0 -0.03258909529224088 0.11248787689307 0
          -0.11119095917333079 -0.003846776041615957 0 -0.03761157911857271 -0.11486387710330012 0
          -0.25285697366073856 -0.012813718458927287 0 0.1952161352871426 0.05770845329071266 0
          -0.05262467864717799 -0.03377682752213528 0 -0.017956488382117004 0.13257854869113767 0
          0.06087089891930472 0.1091889640051448 0 -0.050256915745676 -0.09111208973811623 0
          -0.04813566467362049 0.09122981209705167 0 0.07702571632293156 -0.11036129010570032 0
          -0.05136354965875053 -0.09899768382442317 0 -0.0404046898294763 0.08201075758284068 0
          0.22724107143484668 -0.04044463663215499 0 -0.00962295651062975 -0.14332602101885256 0
          -0.05346803607522319 0.022472323801150666 0 -0.030528701348334387 -0.007300744156058991 0
          -0.054452085236308526 -0.11919957761894354 0 -0.06294672869103554 0.14322395933837662 0
          -0.0369987956132616 -0.00771605190289808 0 -0.10665320797538608 -0.05023177612713428 0
          -0.09038651224626404 0.053753252129731095 0 0.03506819425474364 -0.005246816217399074 0
          0.015493371711325777 0.04504380738310588 0 0.04942287103840717 -0.0006668457026665752 0
          -0.03443438821575783 0.02901774549178232 0 -0.004087087983962286 -0.05192025541753839 0
          0.025694880940623378 0.007532121623660846 0 0.022620862879025636 -0.029363468712166794 0
          0.03262880510012999 -0.05726089737354889 0 0.02966469362655899 0.026216932434633206 0
          -0.02738527810923367 -0.00622665243284078 0 0.02965009144943166 -0.0026498303809766085 0
          0.02313951786731573 0.06261044247911046 0 -0.004874562939305121 -0.041311055586533155 0
          -0.00489802510553944 -0.010910878465418994 0 0.024842893657823453 -0.0030850918418520233 0
          0.005293597120088216 0.004812327623458285 0 0.017306462179728054 0.004960864041149203 0
          -0.0042562746486116635 0.03571254117226505 0 0.001154274767363156 -0.0038758012057210837 0
          -0.004995882385789994 0.0015275311757392378 0 0.003154134384453601 -0.009850791393448747 0
          0.0033106608386419007 0.0031684193938333882 0 -0.003628856322736598 0.0024944671292171806 0
          -0.007127787574220482 -0.014274321864696595 0 0.012088971836175246 -0.006784705364762434 0
          -0.00004587809765232466 -0.012730922034078067 0 -0.003820504503622098 0.03125235213237614 0
          -0.004044668771777013 0.012643247280736618 0 -0.005680280149996193 -0.0010541329765172743 0
          0.006522008308694132 -0.01192848890721366 0 -0.007979621962849234 -0.040111268309367426 0
          -0.0008295391396365686 0.0034015422041629184 0 0.0074053521341169055 -0.005412918462515696 0
          -0.010132634567032055 0.03958055663457397 0 0.00042612343531304693 -0.0025312396197607317 0
          -0.01359035704537148 0.015054641209032703 0 0.00228318992065777 -0.0067483437945375455 0
          0.03648610350463393 -0.016074115126068756 0 0.01198196503290256 -0.03012947567189193 0
          -0.0019563549669100546 -0.011805745110776257 0 0.0014327553648260279 0.001979188411053041 0
          -0.007919012125809186 0.012641596807528407 0 -0.016242149305346166 0.01924699023383835 0
          -0.017299979459471884 0.006053632976691793 0 -0.000014675080278294284 -0.000014308425838381524 0
          0.006162817948618307 -0.0006631947700044387 0 0.002346964890252928 -0.0006913430884441916 0
          -0.0008820143604418176 0.00018223051356351433 0 -0.005172839400515467 0.0011212474697128232 0
          0.0002427291481956399 -0.000008893544818222923 0 0.0007409658683573343 -0.0007313602720646029 0
          -0.0004383052157497948 -0.0005014994693216253 0 0.0016618826359253284 -0.00021671521488431664 0
          0.00006746106718090711 -0.0003369621776552396 0 0.00003369854606356264 0.0004064278693088436 0
          0.00012980437727255322 0.0016325464921595105 0 -0.0012389310559787006 -0.0011867439902060817 0
          0.0009274254835122014 0.004295020027957558 0 -0.00033808585209132975 0.00026197230554299256 0
          0.0003643373391825246 -0.000053184526648584915 0 -0.00012127038291322509 0.000016791039679723234 0
          -0.000002298293191975727 -0.00011133780285076472 0 -0.0001677819842358978 0.0008210437650302108 0
          0.00003154053714284343 -0.000024877204943573958 0 0.00012472511845968969 0.00012271363892891996 0
          -0.0006795459875578338 -0.0004814116009929036 0 -0.0000031168671372892214 0.0000637078765092088 0
          0.00005586954990282857 0.00013374679828209 0 -0.000036528777210211594 0.00015366841606939826 0
          0.0005428580145457366 -0.000034649753134216436 0 0.00003437310931003095 -0.0001686891010862376 0
          0.0005513321972328338 0.00010013831617483417 0 0.004087113866224299 -0.00019259085876128352 0
          0.003202231334599904 0.0014035064335165607 0 -0.007744671649937924 -0.0022468215245372595 0
          -0.000007109235704235924 0.0001691332087950054 0 -0.00015268095262046516 -0.0001956474899108308 0
          <InformationKey name="L2_NORM_RANGE" location="vtkDataArray" length="2">
            <Value index="0">
              0
            </Value>
            <Value index="1">
              0.35613278599
            </Value>
          </InformationKey>
        </DataArray>
      </CellData>
      <Points>
        <DataArray type="Float32" Name="Points" NumberOfComponents="3" format="ascii" RangeMin="0.6401596069335938" RangeMax="16.492422502470642">
          16 4 0 16 2 0
          14 4 0 16 0 0
          12 4 0 13.100448608398438 1.0234922170639038 0
          14.128195762634277 -0.9082307815551758 0 11.106392860412598 0.9618632793426514 0
          16 -2 0 10 4 0
          12.141532897949219 -0.7259466052055359 0 12.96286678314209 -2.5275094509124756 0
          9.244563102722168 0.9050053954124451 0 10.224861145019531 -0.8110210299491882 0
          16 -4 0 8 4 0
          11 -2.267949104309082 0 14 -4 0
          12 -4 0 8.321724891662598 -0.842593252658844 0
          7.003559112548828 1.5986402034759521 0 9 -2.267949104309082 0
          10 -4 0 6 4 0
          6.700018405914307 -0.3363054394721985 0 5.699848175048828 0.9579375386238098 0
          7.0567946434021 -2.078122138977051 0 5.2515764236450195 2.311429023742676 0
          5.549822807312012 -0.06726108491420746 0 8 -4 0