<?xml version="1.0"?>
<VTKFile type="UnstructuredGrid" version="0.1" byte_order="LittleEndian" header_type="UInt32" compressor="vtkZLibDataCompressor">
  <UnstructuredGrid>
    <Piece NumberOfPoints="44" NumberOfCells="60">
      <PointData>
        <DataArray type="Float64" Name="Density" format="ascii" RangeMin="0.9937770647554426" RangeMax="1.7">
          1.7 1.2159341179401069 1.7 1.238871468457518 1.000750622708431 1.014051879762626
          1.7 1.2349857992044708 0.9937770647554426 1.0140497382341267 1.000728310664407 1.7
          1.2355574514865622 1.0001093357892976 1.0138461486584343 0.9998065052627991 1.7 1.2353572471010643
          1.0138736819023795 0.9997937141416682 1.7 1.2353544367050286 1.0138683450972552 0.9997961614257698
          1.7 1.2352428548239007 1.0138635370931546 0.999794727901773 1.7 1.234285330051947
          1.0137939717879938 0.9997928760684156 1.7 1.2260797447543383 1.0132212931294136 0.9997811586249518
          1.7 1.1776281407985254 1.0092783109368775 0.9997191404099075 1 1
          1 1
        </DataArray>
        <DataArray type="Float64" Name="Momentum" NumberOfComponents="3" format="ascii" RangeMin="2.8793007601241505" RangeMax="4.535233026008696">
          4.4528099999999995 -0.86071 0 3.479666093055923 -0.18579651843724884 0
          4.4528099999999995 -0.86071 0 3.5415119403411945 -0.2068169105179264 0
          2.9019473175854364 0.0015247367844291484 0 2.9406783037412083 -0.009235690492248594 0
          4.4528099999999995 -0.86071 0 3.5281316398957503 -0.20508024422431667 0
          2.87929860567428 0.003522302323445907 0 2.940581026016429 -0.009701275524885544 0
          2.902362419591164 0 0 4.4528099999999995 -0.86071 0
          3.53008316353888 -0.2054583976749336 0 2.9004105821193664 0 0
          2.94006089595637 -0.009398689368847923 0 2.8994533078824194 0 0
          4.4528099999999995 -0.86071 0 3.5294163841366313 -0.20533907164753862 0
          2.940141656608316 -0.009420128897342568 0 2.899403402106943 0 0
          4.4528099999999995 -0.86071 0 3.5294063704642813 -0.2053364547170537 0
          2.9401248861103433 -0.009414962524671068 0 2.8994094257909815 0 0
          4.4528099999999995 -0.86071 0 3.529029425777416 -0.20525394675783054 0
          2.9401104121392803 -0.00941107058965544 0 2.8994047845504274 0 0
          4.4528099999999995 -0.86071 0 3.525883709390341 -0.20444326533045767 0
          2.9398967470498736 -0.009361887301644837 0 2.8993997371059397 0 0
          4.4528099999999995 -0.86071 0 3.500264514503012 -0.19677880976799522 0
          2.9381522880915196 -0.008966828998911047 0 2.8993693155608184 0 0
          4.4528099999999995 -0.86071 0 3.3620942744342655 -0.1504485492392017 0
          2.926395818840824 -0.006139000493198149 0 2.899202093830967 0 0
          2.9 0 0 2.9 0 0
          2.9 0 0 2.9 0 0
          <InformationKey name="L2_NORM_RANGE" location="vtkDataArray" length="2">
            <Value index="0">
              2.8793007601
            </Value>
            <Value index="1">
              4.535233026
            </Value>
          </InformationKey>
        </DataArray>
        <DataArray type="Float64" Name="Energy" format="ascii" RangeMin="4.882427532419909" RangeMax="7.585636452999999">
          7.585636452999999 5.993750841763989 7.585636452999999 6.113250074572514 4.9213331704447665 4.996784721347259
          7.585636452999999 6.08673383696435 4.882427532419909 4.996551504912653 4.927821860961826 7.585636452999999
          6.090728640415295 4.923943649416814 4.99556936270563 4.9220443863073005 7.585636452999999 6.089400280195398
          4.995708597370522 4.9219276873197035 7.585636452999999 6.089378412228177 4.9956753310210935 4.921935689799683
          7.585636452999999 6.088604289955699 4.995648230971889 4.921926676574086 7.585636452999999 6.082182442508088
          4.9952448485123 4.921918171498579 7.585636452999999 6.0308316417234415 4.991958560140525 4.921869284212527
          7.585636452999999 5.764969865887553 4.969976828300302 4.921592887325335 4.923 4.923
          4.923 4.923
        </DataArray>
      </PointData>
      <CellData>
        <DataArray type="UInt8" Name="vtkGhostType" format="ascii" RangeMin="0" RangeMax="0">
          0 0 0 0 0 0
          0 0 0 0 0 0
          0 0 0 0 0 0
          0 0 0 0 0 0
          0 0 0 0 0 0
          0 0 0 0 0 0
          0 0 0 0 0 0
          0 0 0 0 0 0
          0 0 0 0 0 0
          0 0 0 0 0 0
        </DataArray>
      </CellData>
      <Points>
        <DataArray type="Float32" Name="Points" NumberOfComponents="3" format="ascii" RangeMin="0" RangeMax="4.2201894765504395">
          4.099999904632568 1 0 4.099999904632568 0.6666666865348816 0
          3.690000057220459 1 0 3.690000057220459 0.6666666865348816 0
          4.099999904632568 0.3333333134651184 0 3.690000057220459 0.3333333134651184 0
          3.2799999713897705 1 0 3.2799999713897705 0.6666666865348816 0
          4.099999904632568 0 0 3.2799999713897705 0.3333333134651184 0
          3.690000057220459 0 0 2.869999885559082 1 0
          2.869999885559082 0.6666666865348816 0 3.2799999713897705 0 0
          2.869999885559082 0.3333333134651184 0 2.869999885559082 0 0
          2.4600000381469727 1 0 2.4600000381469727 0.6666666865348816 0
          2.4600000381469727 0.3333333134651184 0 2.4600000381469727 0 0
          2.049999952316284 1 0 2.049999952316284 0.6666666865348816 0
          2.049999952316284 0.3333333134651184 0 2.049999952316284 0 0
          1.6399999856948853 1 0 1.6399999856948853 0.6666666865348816 0
          1.6399999856948853 0.3333333134651184 0 1.6399999856948853 0 0
          1.2300000190734863 1 0 1.2300000190734863 0.6666666865348816 0
          1.2300000190734863 0.3333333134651184 0 1.2300000190734863 0 0
          0.8199999928474426 1 0 0.8199999928474426 0.6666666865348816 0
          0.8199999928474426 0.3333333134651184 0 0.8199999928474426 0 0
          0.4099999964237213 1 0 0.4099999964237213 0.6666666865348816 0
          0.4099999964237213 0.3333333134651184 0 0.4099999964237213 0 0
          0 1 0 0 0.6666666865348816 0
          0 0.3333333134651184 0 0 0 0
          <InformationKey name="L2_NORM_RANGE" location="vtkDataArray" length="2">
            <Value index="0">
              0
            </Value>
            <Value index="1">
              4.2201894766
            </Value>
          </InformationKey>
        </DataArray>
      </Points>
      <Cells>
        <DataArray type="Int64" Name="connectivity" format="ascii" RangeMin="0" RangeMax="43">
          39 38 43 38 42 43
          35 34 39 34 38 39
          31 30 35 30 34 35
          27 26 31 26 30 31
          23 22 27 22 26 27
          19 18 23 18 22 23
          15 14 19 14 18 19
          13 9 15 9 14 15
          10 5 13 5 9 13
          8 4 10 4 5 10
          38 37 42 37 41 42
          34 33 38 33 37 38
          30 29 34 29 33 34
          26 25 30 25 29 30
          22 21 26 21 25 26
          18 17 22 17 21 22
          14 12 18 12 17 18
          9 7 14 7 12 14
          5 3 9 3 7 9
          4 1 5 1 3 5
          37 36 41 36 40 41
          33 32 37 32 36 37
          29 28 33 28 32 33
          25 24 29 24 28 29
          21 20 25 20 24 25
          17 16 21 16 20 21
          12 11 17 11 16 17
          7 6 12 6 11 12
          3 2 7 2 6 7
          1 0 3 0 2 3
        </DataArray>
        <DataArray type="Int64" Name="offsets" format="ascii" RangeMin="3" RangeMax="180">
          3 6 9 12 15 18
          21 24 27 30 33 36
          39 42 45 48 51 54
          57 60 63 66 69 72
          75 78 81 84 87 90
          93 96 99 102 105 108
          111 114 117 120 123 126
          129 132 135 138 141 144
          147 150 153 156 159 162
          165 168 171 174 177 180
        </DataArray>
        <DataArray type="UInt8" Name="types" format="ascii" RangeMin="5" RangeMax="5">
          5 5 5 5 5 5
          5 5 5 5 5 5
          5 5 5 5 5 5
          5 5 5 5 5 5
          5 5 5 5 5 5
          5 5 5 5 5 5
          5 5 5 5 5 5
          5 5 5 5 5 5
          5 5 5 5 5 5
          5 5 5 5 5 5
        </DataArray>
      </Cells>
    </Piece>
  </UnstructuredGrid>
</VTKFile>
