<?xml version="1.0"?>
<VTKFile type="UnstructuredGrid" version="0.1" byte_order="LittleEndian" header_type="UInt32" compressor="vtkZLibDataCompressor">
  <UnstructuredGrid>
    <Piece NumberOfPoints="44" NumberOfCells="60">
      <PointData>
        <DataArray type="Float64" Name="Density" format="ascii" RangeMin="0.9223491777725198" RangeMax="1.752010922084772">
          1.7 1.7515935294453424 1.7 1.752010922084772 1.3188585321800022 1.3571468959025972
          1.7 1.7429902307701657 0.9223491777725198 1.3439539799863822 1.2112056587148392 1.7
          1.7407269000458487 1.1491525511184029 1.343499011647576 1.1535372220183677 1.7 1.7336503495622628
          1.336248938162399 1.1485664552437624 1.7 1.717421077765028 1.318072117801817 1.137503336949351
          1.7 1.6828379373262201 1.2794087483010026 1.1117895320532776 1.7 1.6150918243998535
          1.2128226996423341 1.0661608711387094 1.7 1.4907149721649566 1.1225965903561896 1.0102143155590353
          1.7 1.2854369446160818 1.0353946464155497 0.9784237924112089 1 1
          1 1
        </DataArray>
        <DataArray type="Float64" Name="Momentum" NumberOfComponents="3" format="ascii" RangeMin="2.559254215566084" RangeMax="4.911464883703022">
          4.4528099999999995 -0.86071 0 4.853973112926544 -0.7012770834303418 0
          4.4528099999999995 -0.86071 0 4.862517615139576 -0.691671704138073 0
          3.789351049668315 -0.27866895381197226 0 3.9148103772858165 -0.2980447747908964 0
          4.4528099999999995 -0.86071 0 4.834246588394923 -0.6840254953803911 0
          2.5564289127373536 0.12022210284835785 0 3.8709223037080074 -0.29120675697486587 0
          3.5373390844258217 0 0 4.4528099999999995 -0.86071 0
          4.82633038949535 -0.6823703780473737 0 3.3299600827264983 0 0
          3.869444675002967 -0.29041354614132087 0 3.344681060078531 0 0
          4.4528099999999995 -0.86071 0 4.802181643481359 -0.6765632760501471 0
          3.8454892245806858 -0.28526762881092144 0 3.328056203667756 0 0
          4.4528099999999995 -0.86071 0 4.748707713618855 -0.6610237136987032 0
          3.7873138443644 -0.27119009992337806 0 3.2930344728403944 0 0
          4.4528099999999995 -0.86071 0 4.64122569889712 -0.6234168887280441 0
          3.6686939728258294 -0.23876791413868884 0 3.2142060173990794 0 0
          4.4528099999999995 -0.86071 0 4.446863650674192 -0.5462479180875985 0
          3.4754992708865693 -0.17871842867080545 0 3.080154341761786 0 0
          4.4528099999999995 -0.86071 0 4.117541322941075 -0.41406629051178045 0
          3.228934782456541 -0.09471473132825659 0 2.9235880215445667 0 0
          4.4528099999999995 -0.86071 0 3.602335212141929 -0.22625652465887283 0
          2.999692434721042 -0.018632626319834585 0 2.8397090529668776 0 0
          2.9 0 0 2.9 0 0
          2.9 0 0 2.9 0 0
          <InformationKey name="L2_NORM_RANGE" location="vtkDataArray" length="2">
            <Value index="0">
              2.5592542156
            </Value>
            <Value index="1">
              4.9114648837
            </Value>
          </InformationKey>
        </DataArray>
        <DataArray type="Float64" Name="Energy" format="ascii" RangeMin="4.135605465536983" RangeMax="8.568805102867413">
          7.585636452999999 8.548900750651503 7.585636452999999 8.568805102867413 6.5825890797878515 6.833328682623535
          7.585636452999999 8.511538054508646 4.135605465536983 6.74485648907698 6.121469109157389 7.585636452999999
          8.49490401983199 5.707516880588494 6.74169626276158 5.736199830415512 7.585636452999999 8.444348164278498
          6.692664951151503 5.702987657175206 7.585636452999999 8.333390746451386 6.5748587792627635 5.634421093806799
          7.585636452999999 8.114539222014457 6.338740743558633 5.482826946567441 7.585636452999999 7.731289669072924
          5.964190981873133 5.231995344872287 7.585636452999999 7.108434616163603 5.503382543815836 4.950319142295414
          7.585636452999999 6.170347121779588 5.09318005701948 4.810126021033054 4.923 4.923
          4.923 4.923
        </DataArray>
      </PointData>
      <CellData>
        <DataArray type="UInt8" Name="vtkGhostType" format="ascii" RangeMin="0" RangeMax="0">
          0 0 0 0 0 0
          0 0 0 0 0 0
          0 0 0 0 0 0
          0 0 0 0 0 0
          0 0 0 0 0 0
          0 0 0 0 0 0
          0 0 0 0 0 0
          0 0 0 0 0 0
          0 0 0 0 0 0
          0 0 0 0 0 0
        </DataArray>
      </CellData>
      <Points>
        <DataArray type="Float32" Name="Points" NumberOfComponents="3" format="ascii" RangeMin="0" RangeMax="4.2201894765504395">
          4.099999904632568 1 0 4.099999904632568 0.6666666865348816 0
          3.690000057220459 1 0 3.690000057220459 0.6666666865348816 0
          4.099999904632568 0.3333333134651184 0 3.690000057220459 0.3333333134651184 0
          3.2799999713897705 1 0 3.2799999713897705 0.6666666865348816 0
          4.099999904632568 0 0 3.2799999713897705 0.3333333134651184 0
          3.690000057220459 0 0 2.869999885559082 1 0
          2.869999885559082 0.6666666865348816 0 3.2799999713897705 0 0
          2.869999885559082 0.3333333134651184 0 2.869999885559082 0 0
          2.4600000381469727 1 0 2.4600000381469727 0.6666666865348816 0
          2.4600000381469727 0.3333333134651184 0 2.4600000381469727 0 0
          2.049999952316284 1 0 2.049999952316284 0.6666666865348816 0
          2.049999952316284 0.3333333134651184 0 2.049999952316284 0 0
          1.6399999856948853 1 0 1.6399999856948853 0.6666666865348816 0
          1.6399999856948853 0.3333333134651184 0 1.6399999856948853 0 0
          1.2300000190734863 1 0 1.2300000190734863 0.6666666865348816 0
          1.2300000190734863 0.3333333134651184 0 1.2300000190734863 0 0
          0.8199999928474426 1 0 0.8199999928474426 0.6666666865348816 0
          0.8199999928474426 0.3333333134651184 0 0.8199999928474426 0 0
          0.4099999964237213 1 0 0.4099999964237213 0.6666666865348816 0
          0.4099999964237213 0.3333333134651184 0 0.4099999964237213 0 0
          0 1 0 0 0.6666666865348816 0
          0 0.3333333134651184 0 0 0 0
          <InformationKey name="L2_NORM_RANGE" location="vtkDataArray" length="2">
            <Value index="0">
              0
            </Value>
            <Value index="1">
              4.2201894766
            </Value>
          </InformationKey>
        </DataArray>
      </Points>
      <Cells>
        <DataArray type="Int64" Name="connectivity" format="ascii" RangeMin="0" RangeMax="43">
          39 38 43 38 42 43
          35 34 39 34 38 39
          31 30 35 30 34 35
          27 26 31 26 30 31
          23 22 27 22 26 27
          19 18 23 18 22 23
          15 14 19 14 18 19
          13 9 15 9 14 15
          10 5 13 5 9 13
          8 4 10 4 5 10
          38 37 42 37 41 42
          34 33 38 33 37 38
          30 29 34 29 33 34
          26 25 30 25 29 30
          22 21 26 21 25 26
          18 17 22 17 21 22
          14 12 18 12 17 18
          9 7 14 7 12 14
          5 3 9 3 7 9
          4 1 5 1 3 5
          37 36 41 36 40 41
          33 32 37 32 36 37
          29 28 33 28 32 33
          25 24 29 24 28 29
          21 20 25 20 24 25
          17 16 21 16 20 21
          12 11 17 11 16 17
          7 6 12 6 11 12
          3 2 7 2 6 7
          1 0 3 0 2 3
        </DataArray>
        <DataArray type="Int64" Name="offsets" format="ascii" RangeMin="3" RangeMax="180">
          3 6 9 12 15 18
          21 24 27 30 33 36
          39 42 45 48 51 54
          57 60 63 66 69 72
          75 78 81 84 87 90
          93 96 99 102 105 108
          111 114 117 120 123 126
          129 132 135 138 141 144
          147 150 153 156 159 162
          165 168 171 174 177 180
        </DataArray>
        <DataArray type="UInt8" Name="types" format="ascii" RangeMin="5" RangeMax="5">
          5 5 5 5 5 5
          5 5 5 5 5 5
          5 5 5 5 5 5
          5 5 5 5 5 5
          5 5 5 5 5 5
          5 5 5 5 5 5
          5 5 5 5 5 5
          5 5 5 5 5 5
          5 5 5 5 5 5
          5 5 5 5 5 5
        </DataArray>
      </Cells>
    </Piece>
  </UnstructuredGrid>
</VTKFile>
