<?xml version="1.0"?>
<VTKFile type="UnstructuredGrid" version="0.1" byte_order="LittleEndian" header_type="UInt32" compressor="vtkZLibDataCompressor">
  <UnstructuredGrid>
    <Piece NumberOfPoints="44" NumberOfCells="60">
      <PointData>
        <DataArray type="Float64" Name="Density" format="ascii" RangeMin="0.971495678179636" RangeMax="1.7">
          1.7 1.4314217302754821 1.7 1.4494865653891376 1.060054866910125 1.086086500252245
          1.7 1.4415248120078619 0.971495678179636 1.082505222051671 1.018770472612572 1.7
          1.4420845647879879 1.0102786357537492 1.0827921350520933 1.0099721414155347 1.7 1.4416171377671785
          1.0827844725067082 1.009914046794481 1.7 1.4409106980291022 1.0826105456596908 1.009898687694161
          1.7 1.437205915141799 1.081548768053352 1.0097422076659084 1.7 1.4220971667659874
          1.0766209265558577 1.0088946242947971 1.7 1.373000032661693 1.0603535874127008 1.0055959724351269
          1.7 1.2465775950504032 1.0266518307062467 0.9989530259432182 1 1
          1 1
        </DataArray>
        <DataArray type="Float64" Name="Momentum" NumberOfComponents="3" format="ascii" RangeMin="2.802276447442309" RangeMax="4.535233026008696">
          4.4528099999999995 -0.86071 0 4.048153563039298 -0.3859424275657105 0
          4.4528099999999995 -0.86071 0 4.097111303940312 -0.40055008700302114 0
          3.0711546455507137 -0.045288307265377796 0 3.147269982411056 -0.06499658673916867 0
          4.4528099999999995 -0.86071 0 4.071391566421693 -0.3951414033103212 0
          2.8022084727939918 0.01951827070850767 0 3.1361231688993207 -0.06334577932905491 0
          2.9569768341663036 0 0 4.4528099999999995 -0.86071 0
          4.073375963758984 -0.39551872232657653 0 2.9298642330816875 0 0
          3.137392408527695 -0.06306587272685452 0 2.9290269361706502 0 0
          4.4528099999999995 -0.86071 0 4.071801658115558 -0.3952022217905158 0
          3.137339816148681 -0.0630732018933367 0 2.928753797358844 0 0
          4.4528099999999995 -0.86071 0 4.069404635114402 -0.39464457064966485 0
          3.136776193264166 -0.06294264284087529 0 2.928701680294998 0 0
          4.4528099999999995 -0.86071 0 4.057163471752064 -0.3914030521718796 0
          3.133364801989359 -0.06214893121676786 0 2.928218136907799 0 0
          4.4528099999999995 -0.86071 0 4.009465410746174 -0.376738416184895 0
          3.1179315339920715 -0.05827186519265766 0 2.9256180959803673 0 0
          4.4528099999999995 -0.86071 0 3.865091478355321 -0.32663744245736726 0
          3.0690986817296704 -0.044847642202602296 0 2.9156956207248856 0 0
          4.4528099999999995 -0.86071 0 3.5234935598264805 -0.20436484458466556 0
          2.9734388356803927 -0.017156200049421515 0 2.8964726456265377 0 0
          2.9 0 0 2.9 0 0
          2.9 0 0 2.9 0 0
          <InformationKey name="L2_NORM_RANGE" location="vtkDataArray" length="2">
            <Value index="0">
              2.8022764474
            </Value>
            <Value index="1">
              4.535233026
            </Value>
          </InformationKey>
        </DataArray>
        <DataArray type="Float64" Name="Energy" format="ascii" RangeMin="4.726371181908068" RangeMax="7.585636452999999">
          7.585636452999999 7.053848217115915 7.585636452999999 7.149880461429473 5.231152979906785 5.379306244245035
          7.585636452999999 7.098730902396624 4.726371181908068 5.357321471149702 5.030350313006846 7.585636452999999
          7.102888621001015 4.977066526789583 5.359869860303384 4.975382544697696 7.585636452999999 7.099684537834477
          5.359730075297495 4.974790572744118 7.585636452999999 7.094706409004292 5.358609446901428 4.974693807623375
          7.585636452999999 7.069484813753795 5.351853334214094 4.973789309895408 7.585636452999999 6.972716707758595
          5.321590472529851 4.968928540930703 7.585636452999999 6.6883761127245265 5.227742179275688 4.950533433403386
          7.585636452999999 6.044769683114008 5.050427007084039 4.915688564134853 4.923 4.923
          4.923 4.923
        </DataArray>
      </PointData>
      <CellData>
        <DataArray type="UInt8" Name="vtkGhostType" format="ascii" RangeMin="0" RangeMax="0">
          0 0 0 0 0 0
          0 0 0 0 0 0
          0 0 0 0 0 0
          0 0 0 0 0 0
          0 0 0 0 0 0
          0 0 0 0 0 0
          0 0 0 0 0 0
          0 0 0 0 0 0
          0 0 0 0 0 0
          0 0 0 0 0 0
        </DataArray>
      </CellData>
      <Points>
        <DataArray type="Float32" Name="Points" NumberOfComponents="3" format="ascii" RangeMin="0" RangeMax="4.2201894765504395">
          4.099999904632568 1 0 4.099999904632568 0.6666666865348816 0
          3.690000057220459 1 0 3.690000057220459 0.6666666865348816 0
          4.099999904632568 0.3333333134651184 0 3.690000057220459 0.3333333134651184 0
          3.2799999713897705 1 0 3.2799999713897705 0.6666666865348816 0
          4.099999904632568 0 0 3.2799999713897705 0.3333333134651184 0
          3.690000057220459 0 0 2.869999885559082 1 0
          2.869999885559082 0.6666666865348816 0 3.2799999713897705 0 0
          2.869999885559082 0.3333333134651184 0 2.869999885559082 0 0
          2.4600000381469727 1 0 2.4600000381469727 0.6666666865348816 0
          2.4600000381469727 0.3333333134651184 0 2.4600000381469727 0 0
          2.049999952316284 1 0 2.049999952316284 0.6666666865348816 0
          2.049999952316284 0.3333333134651184 0 2.049999952316284 0 0
          1.6399999856948853 1 0 1.6399999856948853 0.6666666865348816 0
          1.6399999856948853 0.3333333134651184 0 1.6399999856948853 0 0
          1.2300000190734863 1 0 1.2300000190734863 0.6666666865348816 0
          1.2300000190734863 0.3333333134651184 0 1.2300000190734863 0 0
          0.8199999928474426 1 0 0.8199999928474426 0.6666666865348816 0
          0.8199999928474426 0.3333333134651184 0 0.8199999928474426 0 0
          0.4099999964237213 1 0 0.4099999964237213 0.6666666865348816 0
          0.4099999964237213 0.3333333134651184 0 0.4099999964237213 0 0
          0 1 0 0 0.6666666865348816 0
          0 0.3333333134651184 0 0 0 0
          <InformationKey name="L2_NORM_RANGE" location="vtkDataArray" length="2">
            <Value index="0">
              0
            </Value>
            <Value index="1">
              4.2201894766
            </Value>
          </InformationKey>
        </DataArray>
      </Points>
      <Cells>
        <DataArray type="Int64" Name="connectivity" format="ascii" RangeMin="0" RangeMax="43">
          39 38 43 38 42 43
          35 34 39 34 38 39
          31 30 35 30 34 35
          27 26 31 26 30 31
          23 22 27 22 26 27
          19 18 23 18 22 23
          15 14 19 14 18 19
          13 9 15 9 14 15
          10 5 13 5 9 13
          8 4 10 4 5 10
          38 37 42 37 41 42
          34 33 38 33 37 38
          30 29 34 29 33 34
          26 25 30 25 29 30
          22 21 26 21 25 26
          18 17 22 17 21 22
          14 12 18 12 17 18
          9 7 14 7 12 14
          5 3 9 3 7 9
          4 1 5 1 3 5
          37 36 41 36 40 41
          33 32 37 32 36 37
          29 28 33 28 32 33
          25 24 29 24 28 29
          21 20 25 20 24 25
          17 16 21 16 20 21
          12 11 17 11 16 17
          7 6 12 6 11 12
          3 2 7 2 6 7
          1 0 3 0 2 3
        </DataArray>
        <DataArray type="Int64" Name="offsets" format="ascii" RangeMin="3" RangeMax="180">
          3 6 9 12 15 18
          21 24 27 30 33 36
          39 42 45 48 51 54
          57 60 63 66 69 72
          75 78 81 84 87 90
          93 96 99 102 105 108
          111 114 117 120 123 126
          129 132 135 138 141 144
          147 150 153 156 159 162
          165 168 171 174 177 180
        </DataArray>
        <DataArray type="UInt8" Name="types" format="ascii" RangeMin="5" RangeMax="5">
          5 5 5 5 5 5
          5 5 5 5 5 5
          5 5 5 5 5 5
          5 5 5 5 5 5
          5 5 5 5 5 5
          5 5 5 5 5 5
          5 5 5 5 5 5
          5 5 5 5 5 5
          5 5 5 5 5 5
          5 5 5 5 5 5
        </DataArray>
      </Cells>
    </Piece>
  </UnstructuredGrid>
</VTKFile>
