<?xml version="1.0"?>
<VTKFile type="UnstructuredGrid" version="0.1" byte_order="LittleEndian" header_type="UInt32" compressor="vtkZLibDataCompressor">
  <UnstructuredGrid>
    <Piece NumberOfPoints="10" NumberOfCells="7">
      <PointData>
        <DataArray type="Float64" Name="Velocity" NumberOfComponents="3" format="ascii" RangeMin="0" RangeMax="0.16107935152920702">
          0.05800899786658931 0.0509084970866078 0 0 0 0
          0 0 0 0.12534650541704934 0.044445371301664094 0
          0.10023990062519295 -0.02809015358614321 0 0.15896150065837666 -0.026034569278303152 0
          0.15266445707855003 0.01499274080496621 0 0.0977261153110705 -0.019866307087458186 0
          0.10188678437279086 0.010234294345168954 0 0.05342288520564825 -0.06822759605987974 0
          <InformationKey name="L2_NORM_RANGE" location="vtkDataArray" length="2">
            <Value index="0">
              0
            </Value>
            <Value index="1">
              0.16107935153
            </Value>
          </InformationKey>
        </DataArray>
        <DataArray type="Float64" Name="Pressure" format="ascii" RangeMin="-3.4627129423453127" RangeMax="-2.4272797240818056">
          -2.7424520074656042 -2.7181182037422134 -2.4272797240818056 -3.042171925179421 -2.853696653927102 -3.164196426811805
          -3.320217158015381 -3.4627129423453127 -2.999156837356962 -3.1288624320332397
        </DataArray>
        <DataArray type="Float64" Name="Temperature" format="ascii" RangeMin="562.306707242919" RangeMax="959.9999999740504">
          661.4103605082402 959.9999999740503 959.9999999740504 659.9297384214188 586.351588250082 585.4865651529881
          600.7257079621353 568.98374667914 599.0317821022303 562.306707242919
        </DataArray>
        <DataArray type="Float64" Name="Density" format="ascii" RangeMin="0.3653208570475806" RangeMax="0.6236952507214004">
          0.5302427111766239 0.36532085704758066 0.3653208570475806 0.5314323667169577 0.5981189951285996 0.5990026819224403
          0.5838072486458381 0.6163761703266506 0.5854581229821056 0.6236952507214004
        </DataArray>
        <DataArray type="Float64" Name="stream" format="ascii" RangeMin="-0.027317801463941943" RangeMax="0.009866034473049075">
          -0.021694899849257918 -0.01756860774422115 -0.027317801463941943 0.0003087106323042682 -0.018481936080910547 0.0047000209088934805
          0.009866034473049075 0.008187727800713682 -0.012401467198269681 -0.007434692041564654
        </DataArray>
      </PointData>
      <CellData>
        <DataArray type="UInt8" Name="vtkGhostType" format="ascii" RangeMin="1" RangeMax="1">
          1 1 1 1 1 1
          1
        </DataArray>
        <DataArray type="Float64" Name="blocks" format="ascii" RangeMin="0" RangeMax="0.3333333333333334">
          0.3333333333333333 0 0.3333333333333334 0 0.3333333333333333 0.3333333333333333
          0.3333333333333333
        </DataArray>
      </CellData>
      <Points>
        <DataArray type="Float32" Name="Points" NumberOfComponents="3" format="ascii" RangeMin="0.4000000059604645" RangeMax="1.1313708667572155">
          0.20000000298023224 0.6000000238418579 0 0 0.6000000238418579 0
          0 0.4000000059604645 0 0.20000000298023224 0.800000011920929 0
          0.4000000059604645 0.6000000238418579 0 0.4000000059604645 0.800000011920929 0
          0.6000000238418579 0.800000011920929 0 0.800000011920929 0.800000011920929 0
          0.6000000238418579 0.6000000238418579 0 0.800000011920929 0.6000000238418579 0
          <InformationKey name="L2_NORM_RANGE" location="vtkDataArray" length="2">
            <Value index="0">
              0.40000000596
            </Value>
            <Value index="1">
              1.1313708668
            </Value>
          </InformationKey>
        </DataArray>
      </Points>
      <Cells>
        <DataArray type="Int64" Name="connectivity" format="ascii" RangeMin="0" RangeMax="9">
          0 1 2 0 3 1
          4 5 0 5 3 0
          6 5 4 7 6 8
          9 7 8
        </DataArray>
        <DataArray type="Int64" Name="offsets" format="ascii" RangeMin="3" RangeMax="21">
          3 6 9 12 15 18
          21
        </DataArray>
        <DataArray type="UInt8" Name="types" format="ascii" RangeMin="5" RangeMax="5">
          5 5 5 5 5 5
          5
        </DataArray>
      </Cells>
    </Piece>
  </UnstructuredGrid>
</VTKFile>
