<?xml version="1.0"?>
<VTKFile type="UnstructuredGrid" version="0.1" byte_order="LittleEndian" header_type="UInt32" compressor="vtkZLibDataCompressor">
  <UnstructuredGrid>
    <Piece NumberOfPoints="15" NumberOfCells="12">
      <PointData>
        <DataArray type="Float64" Name="Velocity" NumberOfComponents="3" format="ascii" RangeMin="0" RangeMax="0.16107935152920702">
          0.05800899786658931 0.0509084970866078 0 0 0 0
          0 0 0 0.12534650541704934 0.044445371301664094 0
          0 0 0 0.10023990062519295 -0.02809015358614321 0
          0.15896150065837666 -0.026034569278303152 0 0.10188678437279086 0.010234294345168954 0
          0.15266445707855003 0.01499274080496621 0 0 0 0
          0 0 0 0 0 0
          0.05342288520564825 -0.06822759605987974 0 0.0977261153110705 -0.019866307087458186 0
          0 0 0
          <InformationKey name="L2_NORM_RANGE" location="vtkDataArray" length="2">
            <Value index="0">
              0
            </Value>
            <Value index="1">
              0.16107935153
            </Value>
          </InformationKey>
        </DataArray>
        <DataArray type="Float64" Name="Pressure" format="ascii" RangeMin="-3.508757590303902" RangeMax="-2.4272797240818056">
          -2.7424520074656042 -2.7181182037422134 -2.4272797240818056 -3.042171925179421 -3.008294316335644 -2.853696653927102
          -3.164196426811805 -2.999156837356962 -3.320217158015381 -3.323964665179981 -3.2529289640285994 -3.4567452906100846
          -3.1288624320332397 -3.4627129423453127 -3.508757590303902
        </DataArray>
        <DataArray type="Float64" Name="Temperature" format="ascii" RangeMin="239.99999999351252" RangeMax="959.9999999740504">
          661.4103605082402 959.9999999740503 959.9999999740504 659.9297384214188 959.9999999740503 586.351588250082
          585.4865651529881 599.0317821022303 600.7257079621353 689.0653010748637 959.9999999740501 569.4793696866781
          562.306707242919 568.98374667914 239.99999999351252
        </DataArray>
        <DataArray type="Float64" Name="Density" format="ascii" RangeMin="0.3653208570475806" RangeMax="1.461283428190323">
          0.5302427111766239 0.36532085704758066 0.3653208570475806 0.5314323667169577 0.36532085704758066 0.5981189951285996
          0.5990026819224403 0.5854581229821056 0.5838072486458381 0.5089619549977814 0.36532085704758077 0.6158397326125327
          0.6236952507214004 0.6163761703266506 1.461283428190323
        </DataArray>
        <DataArray type="Float64" Name="stream" format="ascii" RangeMin="-0.019833725515068398" RangeMax="0.013817473094727117">
          -0.01321532857448663 -0.006524625560009288 -0.006524625560009288 0.0021096926966391737 -0.0006741761176282099 -0.019833725515068398
          0.003275267876284475 -0.017946923345151376 0.00470229095689514 0.0032377204466753347 0 0.013817473094727117
          -0.011586847107159015 0.0019312601009298606 0.0022480459145347324
        </DataArray>
      </PointData>
      <CellData>
        <DataArray type="UInt8" Name="vtkGhostType" format="ascii" RangeMin="0" RangeMax="0">
          0 0 0 0 0 0
          0 0 0 0 0 0
        </DataArray>
        <DataArray type="Float64" Name="blocks" format="ascii" RangeMin="0" RangeMax="0.3333333333333334">
          0 0 0 0.3333333333333333 0.3333333333333334 0.3333333333333333
          0 0 0.3333333333333334 0 0.3333333333333333 0.3333333333333333
        </DataArray>
      </CellData>
      <Points>
        <DataArray type="Float32" Name="Points" NumberOfComponents="3" format="ascii" RangeMin="0.4000000059604645" RangeMax="1.280624854933515">
          0.20000000298023224 0.6000000238418579 0 0 0.6000000238418579 0
          0 0.4000000059604645 0 0.20000000298023224 0.800000011920929 0
          0 0.800000011920929 0 0.4000000059604645 0.6000000238418579 0
          0.4000000059604645 0.800000011920929 0 0.6000000238418579 0.6000000238418579 0
          0.6000000238418579 0.800000011920929 0 0.20000000298023224 1 0
          0 1 0 0.4000000059604645 1 0
          0.800000011920929 0.6000000238418579 0 0.800000011920929 0.800000011920929 0
          1 0.800000011920929 0
          <InformationKey name="L2_NORM_RANGE" location="vtkDataArray" length="2">
            <Value index="0">
              0.40000000596
            </Value>
            <Value index="1">
              1.2806248549
            </Value>
          </InformationKey>
        </DataArray>
      </Points>
      <Cells>
        <DataArray type="Int64" Name="connectivity" format="ascii" RangeMin="0" RangeMax="14">
          0 1 2 0 3 1
          3 4 1 5 6 0
          6 3 0 7 8 5
          3 9 4 9 10 4
          6 11 3 11 9 3
          12 13 7 14 13 12
        </DataArray>
        <DataArray type="Int64" Name="offsets" format="ascii" RangeMin="3" RangeMax="36">
          3 6 9 12 15 18
          21 24 27 30 33 36
        </DataArray>
        <DataArray type="UInt8" Name="types" format="ascii" RangeMin="5" RangeMax="5">
          5 5 5 5 5 5
          5 5 5 5 5 5
        </DataArray>
      </Cells>
    </Piece>
  </UnstructuredGrid>
</VTKFile>
