<?xml version="1.0"?>
<VTKFile type="UnstructuredGrid" version="0.1" byte_order="LittleEndian" header_type="UInt32" compressor="vtkZLibDataCompressor">
  <UnstructuredGrid>
    <Piece NumberOfPoints="8" NumberOfCells="4">
      <PointData>
        <DataArray type="Float64" Name="Velocity" NumberOfComponents="3" format="ascii" RangeMin="0" RangeMax="0.0866545412993802">
          0 0 0 0.05342288520564825 -0.06822759605987974 0
          0.04308583143885942 -0.07459940693119946 0 0 0 0
          0 0 0 0.07076209570939312 0.01078100911899229 0
          0 0 0 0.02655759951376717 -0.06920057035164247 0
          <InformationKey name="L2_NORM_RANGE" location="vtkDataArray" length="2">
            <Value index="0">
              0
            </Value>
            <Value index="1">
              0.086654541299
            </Value>
          </InformationKey>
        </DataArray>
        <DataArray type="Float64" Name="Pressure" format="ascii" RangeMin="-3.508757590303902" RangeMax="-1.9552907458548296">
          -3.1615578836617635 -3.1288624320332397 -2.7869672864970236 -3.508757590303902 -2.043029360914134 -2.348015169822433
          -1.9552907458548296 -2.431887519785551
        </DataArray>
        <DataArray type="Float64" Name="Temperature" format="ascii" RangeMin="239.99999999351252" RangeMax="602.9612533952669">
          239.99999999351252 562.306707242919 559.5864796603823 239.99999999351252 601.1818187028719 597.3627917888965
          602.9612533952669 555.4679994166399
        </DataArray>
        <DataArray type="Float64" Name="Density" format="ascii" RangeMin="0.5816427188005285" RangeMax="1.461283428190323">
          1.461283428190323 0.6236952507214004 0.6267271199422921 1.461283428190323 0.583364319820742 0.5870938524743855
          0.5816427188005285 0.631373946158043
        </DataArray>
        <DataArray type="Float64" Name="stream" format="ascii" RangeMin="-0.037789669664872794" RangeMax="0.006303924859065407">
          -0.0014432558139394133 -0.0020063588299343354 -0.014195933601020894 0.006303924859065407 -0.03626127747554504 -0.030567976248250642
          -0.037789669664872794 -0.02889901690754258
        </DataArray>
      </PointData>
      <CellData>
        <DataArray type="UInt8" Name="vtkGhostType" format="ascii" RangeMin="0" RangeMax="0">
          0 0 0 0
        </DataArray>
        <DataArray type="Float64" Name="blocks" format="ascii" RangeMin="2.3333333333333335" RangeMax="2.3333333333333335">
          2.3333333333333335 2.3333333333333335 2.3333333333333335 2.3333333333333335
        </DataArray>
      </CellData>
      <Points>
        <DataArray type="Float32" Name="Points" NumberOfComponents="3" format="ascii" RangeMin="0.4000000059604645" RangeMax="1.280624854933515">
          1 0.6000000238418579 0 0.800000011920929 0.6000000238418579 0
          0.800000011920929 0.4000000059604645 0 1 0.800000011920929 0
          0.6000000238418579 0 0 0.6000000238418579 0.20000000298023224 0
          0.4000000059604645 0 0 0.800000011920929 0.20000000298023224 0
          <InformationKey name="L2_NORM_RANGE" location="vtkDataArray" length="2">
            <Value index="0">
              0.40000000596
            </Value>
            <Value index="1">
              1.2806248549
            </Value>
          </InformationKey>
        </DataArray>
      </Points>
      <Cells>
        <DataArray type="Int64" Name="connectivity" format="ascii" RangeMin="0" RangeMax="7">
          0 1 2 0 3 1
          4 5 6 7 2 5
        </DataArray>
        <DataArray type="Int64" Name="offsets" format="ascii" RangeMin="3" RangeMax="12">
          3 6 9 12
        </DataArray>
        <DataArray type="UInt8" Name="types" format="ascii" RangeMin="5" RangeMax="5">
          5 5 5 5
        </DataArray>
      </Cells>
    </Piece>
  </UnstructuredGrid>
</VTKFile>
