<?xml version="1.0"?>
<VTKFile type="UnstructuredGrid" version="0.1" byte_order="LittleEndian" header_type="UInt32" compressor="vtkZLibDataCompressor">
  <UnstructuredGrid>
    <Piece NumberOfPoints="10" NumberOfCells="8">
      <PointData>
        <DataArray type="Float64" Name="Velocity" NumberOfComponents="3" format="ascii" RangeMin="0" RangeMax="0.16107935152920702">
          0.15266445707855003 0.01499274080496621 0 0.15896150065837666 -0.026034569278303152 0
          0.10023990062519295 -0.02809015358614321 0 0.0977261153110705 -0.019866307087458186 0
          0.10188678437279086 0.010234294345168954 0 0 0 0
          0 0 0 0 0 0
          0 0 0 0 0 0
          <InformationKey name="L2_NORM_RANGE" location="vtkDataArray" length="2">
            <Value index="0">
              0
            </Value>
            <Value index="1">
              0.16107935153
            </Value>
          </InformationKey>
        </DataArray>
        <DataArray type="Float64" Name="Pressure" format="ascii" RangeMin="-3.9035046341098156" RangeMax="-2.853696653927102">
          -3.320217158015381 -3.164196426811805 -2.853696653927102 -3.4627129423453127 -2.999156837356962 -3.6238302418446366
          -3.4567452906100846 -3.7978272981627974 -3.508757590303902 -3.9035046341098156
        </DataArray>
        <DataArray type="Float64" Name="Temperature" format="ascii" RangeMin="239.99999999351252" RangeMax="600.7257079621353">
          600.7257079621353 585.4865651529881 586.351588250082 568.98374667914 599.0317821022303 600.1881212412418
          569.4793696866781 556.2975552982059 239.99999999351252 239.99999999351257
        </DataArray>
        <DataArray type="Float64" Name="Density" format="ascii" RangeMin="0.5838072486458381" RangeMax="1.461283428190323">
          0.5838072486458381 0.5990026819224403 0.5981189951285996 0.6163761703266506 0.5854581229821056 0.5843301630677102
          0.6158397326125327 0.63043243569208 1.461283428190323 1.4612834281903226
        </DataArray>
        <DataArray type="Float64" Name="stream" format="ascii" RangeMin="-0.019833725515068398" RangeMax="0.020272101292482705">
          0.00470229095689514 0.003275267876284475 -0.019833725515068398 0.0019312601009298606 -0.017946923345151376 0.020272101292482705
          0.013817473094727117 0.015897834738591285 0.0022480459145347324 0.008400036490647491
        </DataArray>
      </PointData>
      <CellData>
        <DataArray type="UInt8" Name="vtkGhostType" format="ascii" RangeMin="0" RangeMax="0">
          0 0 0 0 0 0
          0 0
        </DataArray>
        <DataArray type="Float64" Name="blocks" format="ascii" RangeMin="0.6666666666666667" RangeMax="1.3333333333333335">
          0.6666666666666667 0.6666666666666667 1 0.6666666666666667 1 1
          1 1.3333333333333335
        </DataArray>
      </CellData>
      <Points>
        <DataArray type="Float32" Name="Points" NumberOfComponents="3" format="ascii" RangeMin="0.7211102782366936" RangeMax="1.4142135623730951">
          0.6000000238418579 0.800000011920929 0 0.4000000059604645 0.800000011920929 0
          0.4000000059604645 0.6000000238418579 0 0.800000011920929 0.800000011920929 0
          0.6000000238418579 0.6000000238418579 0 0.6000000238418579 1 0
          0.4000000059604645 1 0 0.800000011920929 1 0
          1 0.800000011920929 0 1 1 0
          <InformationKey name="L2_NORM_RANGE" location="vtkDataArray" length="2">
            <Value index="0">
              0.72111027824
            </Value>
            <Value index="1">
              1.4142135624
            </Value>
          </InformationKey>
        </DataArray>
      </Points>
      <Cells>
        <DataArray type="Int64" Name="connectivity" format="ascii" RangeMin="0" RangeMax="9">
          0 1 2 3 0 4
          0 5 1 5 6 1
          3 7 0 7 5 0
          8 9 3 9 7 3
        </DataArray>
        <DataArray type="Int64" Name="offsets" format="ascii" RangeMin="3" RangeMax="24">
          3 6 9 12 15 18
          21 24
        </DataArray>
        <DataArray type="UInt8" Name="types" format="ascii" RangeMin="5" RangeMax="5">
          5 5 5 5 5 5
          5 5
        </DataArray>
      </Cells>
    </Piece>
  </UnstructuredGrid>
</VTKFile>
