<?xml version="1.0"?>
<VTKFile type="UnstructuredGrid" version="0.1" byte_order="LittleEndian" header_type="UInt32" compressor="vtkZLibDataCompressor">
  <UnstructuredGrid>
    <Piece NumberOfPoints="17" NumberOfCells="17">
      <PointData>
        <DataArray type="Float64" Name="Velocity" NumberOfComponents="3" format="ascii" RangeMin="0" RangeMax="0.153398887648944">
          0.04068884099779807 0.0366590822673768 0 0 0 0
          0 0 0 0.05800899786658931 0.0509084970866078 0
          0.08377616393225873 -0.02208660706862392 0 0.10023990062519295 -0.02809015358614321 0
          0.10188678437279086 0.010234294345168954 0 0.15266445707855003 0.01499274080496621 0
          0.0038962421824200247 0.001767776487374778 0 0 0 0
          0 0 0 0.05411681793064049 -0.01666426488334044 0
          0 0 0 0.07076209570939312 0.01078100911899229 0
          0.08539768088355237 0.00989779725287724 0 0.04308583143885942 -0.07459940693119946 0
          0.05342288520564825 -0.06822759605987974 0
          <InformationKey name="L2_NORM_RANGE" location="vtkDataArray" length="2">
            <Value index="0">
              0
            </Value>
            <Value index="1">
              0.15339888765
            </Value>
          </InformationKey>
        </DataArray>
        <DataArray type="Float64" Name="Pressure" format="ascii" RangeMin="-3.320217158015381" RangeMax="-1.8969999586645998">
          -2.4439878253138834 -2.4272797240818056 -2.1524079061918338 -2.7424520074656042 -2.541899133706552 -2.853696653927102
          -2.999156837356962 -3.320217158015381 -2.1598882813506637 -1.9110847716389245 -1.9552907458548296 -2.2393920480520375
          -1.8969999586645998 -2.348015169822433 -2.672772722805534 -2.7869672864970236 -3.1288624320332397
        </DataArray>
        <DataArray type="Float64" Name="Temperature" format="ascii" RangeMin="559.5864796603823" RangeMax="959.9999999740504">
          664.1657886311781 959.9999999740504 959.9999999740501 661.4103605082402 589.7170126038866 586.351588250082
          599.0317821022303 600.7257079621353 657.0658465893775 959.99999997405 602.9612533952669 593.1332522944721
          655.6223423992601 597.3627917888965 598.7407775369763 559.5864796603823 562.306707242919
        </DataArray>
        <DataArray type="Float64" Name="Density" format="ascii" RangeMin="0.3653208570475806" RangeMax="0.6267271199422921">
          0.5280428904340198 0.3653208570475806 0.36532085704758077 0.5302427111766239 0.5947056219518774 0.5981189951285996
          0.5854581229821056 0.5838072486458381 0.5337486715777614 0.36532085704758077 0.5816427188005285 0.5912803259630467
          0.5349238427000155 0.5870938524743855 0.5857426718101538 0.6267271199422921 0.6236952507214004
        </DataArray>
        <DataArray type="Float64" Name="stream" format="ascii" RangeMin="-0.0382386103838284" RangeMax="0.009866034473049075">
          -0.03190928864068031 -0.027317801463941943 -0.03136072664244006 -0.021694899849257918 -0.02867353676013669 -0.018481936080910547
          -0.012401467198269681 0.009866034473049075 -0.03563225111821944 -0.0334093588028755 -0.0382386103838284 -0.034668976089948705
          -0.037085847496688584 -0.03552509885999453 -0.024988503765418855 -0.018138404580767598 -0.007434692041564654
        </DataArray>
      </PointData>
      <CellData>
        <DataArray type="UInt8" Name="vtkGhostType" format="ascii" RangeMin="0" RangeMax="1">
          0 0 0 0 0 1
          0 0 0 0 0 0
          0 0 0 0 0
        </DataArray>
        <DataArray type="Float64" Name="blocks" format="ascii" RangeMin="0.6666666666666666" RangeMax="1.3333333333333335">
          1 0.6666666666666667 1 0.6666666666666667 1 0.6666666666666667
          1.3333333333333335 1.3333333333333333 0.6666666666666666 1 1.3333333333333335 1
          1.3333333333333333 0.6666666666666666 1.3333333333333335 0.6666666666666666 1
        </DataArray>
      </CellData>
      <Points>
        <DataArray type="Float32" Name="Points" NumberOfComponents="3" format="ascii" RangeMin="0" RangeMax="1.000000023841858">
          0.20000000298023224 0.4000000059604645 0 0 0.4000000059604645 0
          0 0.20000000298023224 0 0.20000000298023224 0.6000000238418579 0
          0.4000000059604645 0.4000000059604645 0 0.4000000059604645 0.6000000238418579 0
          0.6000000238418579 0.6000000238418579 0 0.6000000238418579 0.800000011920929 0
          0.20000000298023224 0.20000000298023224 0 0 0 0
          0.4000000059604645 0 0 0.4000000059604645 0.20000000298023224 0
          0.20000000298023224 0 0 0.6000000238418579 0.20000000298023224 0
          0.6000000238418579 0.4000000059604645 0 0.800000011920929 0.4000000059604645 0
          0.800000011920929 0.6000000238418579 0
          <InformationKey name="L2_NORM_RANGE" location="vtkDataArray" length="2">
            <Value index="0">
              0
            </Value>
            <Value index="1">
              1.0000000238
            </Value>
          </InformationKey>
        </DataArray>
      </Points>
      <Cells>
        <DataArray type="Int64" Name="connectivity" format="ascii" RangeMin="0" RangeMax="16">
          0 1 2 0 3 1
          4 5 0 5 3 0
          6 5 4 6 7 5
          8 2 9 10 11 12
          13 11 10 8 0 2
          11 4 8 4 0 8
          13 14 11 15 14 13
          14 6 4 15 16 14
          16 6 14
        </DataArray>
        <DataArray type="Int64" Name="offsets" format="ascii" RangeMin="3" RangeMax="51">
          3 6 9 12 15 18
          21 24 27 30 33 36
          39 42 45 48 51
        </DataArray>
        <DataArray type="UInt8" Name="types" format="ascii" RangeMin="5" RangeMax="5">
          5 5 5 5 5 5
          5 5 5 5 5 5
          5 5 5 5 5
        </DataArray>
      </Cells>
    </Piece>
  </UnstructuredGrid>
</VTKFile>
