<?xml version="1.0"?>
<VTKFile type="UnstructuredGrid" version="0.1" byte_order="LittleEndian" header_type="UInt32" compressor="vtkZLibDataCompressor">
  <UnstructuredGrid>
    <Piece NumberOfPoints="11" NumberOfCells="9">
      <PointData>
        <DataArray type="Float64" Name="Velocity" NumberOfComponents="3" format="ascii" RangeMin="0" RangeMax="0.10239950005039643">
          0 0 0 0.05411681793064049 -0.01666426488334044 0
          0 0 0 0.07076209570939312 0.01078100911899229 0
          0.08539768088355237 0.00989779725287724 0 0.04308583143885942 -0.07459940693119946 0
          0.05342288520564825 -0.06822759605987974 0 0.10188678437279086 0.010234294345168954 0
          0.0977261153110705 -0.019866307087458186 0 0 0 0
          0 0 0
          <InformationKey name="L2_NORM_RANGE" location="vtkDataArray" length="2">
            <Value index="0">
              0
            </Value>
            <Value index="1">
              0.10239950005
            </Value>
          </InformationKey>
        </DataArray>
        <DataArray type="Float64" Name="Pressure" format="ascii" RangeMin="-3.9035046341098156" RangeMax="-1.8969999586645998">
          -1.9552907458548296 -2.2393920480520375 -1.8969999586645998 -2.348015169822433 -2.672772722805534 -2.7869672864970236
          -3.1288624320332397 -2.999156837356962 -3.4627129423453127 -3.508757590303902 -3.9035046341098156
        </DataArray>
        <DataArray type="Float64" Name="Temperature" format="ascii" RangeMin="239.99999999351252" RangeMax="655.6223423992601">
          602.9612533952669 593.1332522944721 655.6223423992601 597.3627917888965 598.7407775369763 559.5864796603823
          562.306707242919 599.0317821022303 568.98374667914 239.99999999351252 239.99999999351257
        </DataArray>
        <DataArray type="Float64" Name="Density" format="ascii" RangeMin="0.5349238427000155" RangeMax="1.461283428190323">
          0.5816427188005285 0.5912803259630467 0.5349238427000155 0.5870938524743855 0.5857426718101538 0.6267271199422921
          0.6236952507214004 0.5854581229821056 0.6163761703266506 1.461283428190323 1.4612834281903226
        </DataArray>
        <DataArray type="Float64" Name="stream" format="ascii" RangeMin="-0.038909956369562834" RangeMax="0.00659384727687305">
          -0.037789669664872794 -0.03183184808816475 -0.038909956369562834 -0.030567976248250642 -0.017264868792394934 -0.014195933601020894
          -0.0020063588299343354 -0.004663643741616846 0.0037374493147043016 0.006303924859065407 0.00659384727687305
        </DataArray>
      </PointData>
      <CellData>
        <DataArray type="UInt8" Name="vtkGhostType" format="ascii" RangeMin="1" RangeMax="1">
          1 1 1 1 1 1
          1 1 1
        </DataArray>
        <DataArray type="Float64" Name="blocks" format="ascii" RangeMin="0.6666666666666669" RangeMax="1.3333333333333335">
          0.6666666666666669 1.3333333333333335 0.6666666666666669 1.3333333333333335 1.3333333333333335 0.6666666666666669
          0.6666666666666669 1.3333333333333335 0.6666666666666669
        </DataArray>
      </CellData>
      <Points>
        <DataArray type="Float32" Name="Points" NumberOfComponents="3" format="ascii" RangeMin="0.20000000298023224" RangeMax="1.4142135623730951">
          0.4000000059604645 0 0 0.4000000059604645 0.20000000298023224 0
          0.20000000298023224 0 0 0.6000000238418579 0.20000000298023224 0
          0.6000000238418579 0.4000000059604645 0 0.800000011920929 0.4000000059604645 0
          0.800000011920929 0.6000000238418579 0 0.6000000238418579 0.6000000238418579 0
          0.800000011920929 0.800000011920929 0 1 0.800000011920929 0
          1 1 0
          <InformationKey name="L2_NORM_RANGE" location="vtkDataArray" length="2">
            <Value index="0">
              0.20000000298
            </Value>
            <Value index="1">
              1.4142135624
            </Value>
          </InformationKey>
        </DataArray>
      </Points>
      <Cells>
        <DataArray type="Int64" Name="connectivity" format="ascii" RangeMin="0" RangeMax="10">
          0 1 2 3 1 0
          3 4 1 5 4 3
          5 6 4 6 7 4
          6 8 7 9 8 6
          9 10 8
        </DataArray>
        <DataArray type="Int64" Name="offsets" format="ascii" RangeMin="3" RangeMax="27">
          3 6 9 12 15 18
          21 24 27
        </DataArray>
        <DataArray type="UInt8" Name="types" format="ascii" RangeMin="5" RangeMax="5">
          5 5 5 5 5 5
          5 5 5
        </DataArray>
      </Cells>
    </Piece>
  </UnstructuredGrid>
</VTKFile>
