<?xml version="1.0"?>
<VTKFile type="UnstructuredGrid" version="0.1" byte_order="LittleEndian" header_type="UInt32" compressor="vtkZLibDataCompressor">
  <UnstructuredGrid>
    <Piece NumberOfPoints="9" NumberOfCells="7">
      <PointData>
        <DataArray type="Float64" Name="Velocity" NumberOfComponents="3" format="ascii" RangeMin="0" RangeMax="0.08614789832180758">
          0 0 0 0.02655759951376717 -0.06920057035164247 0
          0 0 0 0.07076209570939312 0.01078100911899229 0
          0 0 0 0 0 0
          0 0 0 0.04308583143885942 -0.07459940693119946 0
          0 0 0
          <InformationKey name="L2_NORM_RANGE" location="vtkDataArray" length="2">
            <Value index="0">
              0
            </Value>
            <Value index="1">
              0.086147898322
            </Value>
          </InformationKey>
        </DataArray>
        <DataArray type="Float64" Name="Pressure" format="ascii" RangeMin="-3.1615578836617635" RangeMax="-2.028234306269264">
          -2.086873273411181 -2.431887519785551 -2.043029360914134 -2.348015169822433 -2.028234306269264 -2.4094002420963503
          -2.8105385000250407 -2.7869672864970236 -3.1615578836617635
        </DataArray>
        <DataArray type="Float64" Name="Temperature" format="ascii" RangeMin="239.9999999935125" RangeMax="601.1818187028719">
          546.3939668293528 555.4679994166399 601.1818187028719 597.3627917888965 239.99999999351255 239.9999999935126
          239.9999999935125 559.5864796603823 239.99999999351252
        </DataArray>
        <DataArray type="Float64" Name="Density" format="ascii" RangeMin="0.583364319820742" RangeMax="1.461283428190323">
          0.6418592518349108 0.631373946158043 0.583364319820742 0.5870938524743855 1.4612834281903229 1.4612834281903224
          1.461283428190323 0.6267271199422921 1.461283428190323
        </DataArray>
        <DataArray type="Float64" Name="stream" format="ascii" RangeMin="-0.03626127747554504" RangeMax="-0.0014432558139394133">
          -0.030983636765915614 -0.02889901690754258 -0.03626127747554504 -0.030567976248250642 -0.030983636765915614 -0.028582389594305677
          -0.01750522782962958 -0.014195933601020894 -0.0014432558139394133
        </DataArray>
      </PointData>
      <CellData>
        <DataArray type="UInt8" Name="vtkGhostType" format="ascii" RangeMin="0" RangeMax="0">
          0 0 0 0 0 0
          0
        </DataArray>
        <DataArray type="Float64" Name="blocks" format="ascii" RangeMin="2.6666666666666665" RangeMax="3">
          3 2.666666666666667 3 3 3 2.666666666666667
          2.6666666666666665
        </DataArray>
      </CellData>
      <Points>
        <DataArray type="Float32" Name="Points" NumberOfComponents="3" format="ascii" RangeMin="0.6000000238418579" RangeMax="1.1661903912355949">
          0.800000011920929 0 0 0.800000011920929 0.20000000298023224 0
          0.6000000238418579 0 0 0.6000000238418579 0.20000000298023224 0
          1 0 0 1 0.20000000298023224 0
          1 0.4000000059604645 0 0.800000011920929 0.4000000059604645 0
          1 0.6000000238418579 0
          <InformationKey name="L2_NORM_RANGE" location="vtkDataArray" length="2">
            <Value index="0">
              0.60000002384
            </Value>
            <Value index="1">
              1.1661903912
            </Value>
          </InformationKey>
        </DataArray>
      </Points>
      <Cells>
        <DataArray type="Int64" Name="connectivity" format="ascii" RangeMin="0" RangeMax="8">
          0 1 2 1 3 2
          4 5 0 5 1 0
          5 6 1 6 7 1
          6 8 7
        </DataArray>
        <DataArray type="Int64" Name="offsets" format="ascii" RangeMin="3" RangeMax="21">
          3 6 9 12 15 18
          21
        </DataArray>
        <DataArray type="UInt8" Name="types" format="ascii" RangeMin="5" RangeMax="5">
          5 5 5 5 5 5
          5
        </DataArray>
      </Cells>
    </Piece>
  </UnstructuredGrid>
</VTKFile>
