<?xml version="1.0"?>
<VTKFile type="UnstructuredGrid" version="0.1" byte_order="LittleEndian" header_type="UInt32" compressor="vtkZLibDataCompressor">
  <UnstructuredGrid>
    <Piece NumberOfPoints="6" NumberOfCells="3">
      <PointData>
        <DataArray type="Float64" Name="Velocity" NumberOfComponents="3" format="ascii" RangeMin="0" RangeMax="0.08663869721439997">
          0 0 0 0.0038962421824200247 0.001767776487374778 0
          0 0 0 0.05411681793064049 -0.01666426488334044 0
          0.08539768088355237 0.00989779725287724 0 0.08377616393225873 -0.02208660706862392 0
          <InformationKey name="L2_NORM_RANGE" location="vtkDataArray" length="2">
            <Value index="0">
              0
            </Value>
            <Value index="1">
              0.086638697214
            </Value>
          </InformationKey>
        </DataArray>
        <DataArray type="Float64" Name="Pressure" format="ascii" RangeMin="-2.672772722805534" RangeMax="-1.8969999586645998">
          -1.8969999586645998 -2.1598882813506637 -1.9110847716389245 -2.2393920480520375 -2.672772722805534 -2.541899133706552
        </DataArray>
        <DataArray type="Float64" Name="Temperature" format="ascii" RangeMin="589.7170126038866" RangeMax="959.99999997405">
          655.6223423992601 657.0658465893775 959.99999997405 593.1332522944721 598.7407775369763 589.7170126038866
        </DataArray>
        <DataArray type="Float64" Name="Density" format="ascii" RangeMin="0.36532085704758077" RangeMax="0.5947056219518774">
          0.5349238427000155 0.5337486715777614 0.36532085704758077 0.5912803259630467 0.5857426718101538 0.5947056219518774
        </DataArray>
        <DataArray type="Float64" Name="stream" format="ascii" RangeMin="-0.037085847496688584" RangeMax="-0.024988503765418855">
          -0.037085847496688584 -0.03563225111821944 -0.0334093588028755 -0.034668976089948705 -0.024988503765418855 -0.02867353676013669
        </DataArray>
      </PointData>
      <CellData>
        <DataArray type="UInt8" Name="vtkGhostType" format="ascii" RangeMin="0" RangeMax="0">
          0 0 0
        </DataArray>
        <DataArray type="Float64" Name="blocks" format="ascii" RangeMin="1.666666666666667" RangeMax="1.666666666666667">
          1.666666666666667 1.666666666666667 1.666666666666667
        </DataArray>
      </CellData>
      <Points>
        <DataArray type="Float32" Name="Points" NumberOfComponents="3" format="ascii" RangeMin="0" RangeMax="0.7211102782366936">
          0.20000000298023224 0 0 0.20000000298023224 0.20000000298023224 0
          0 0 0 0.4000000059604645 0.20000000298023224 0
          0.6000000238418579 0.4000000059604645 0 0.4000000059604645 0.4000000059604645 0
          <InformationKey name="L2_NORM_RANGE" location="vtkDataArray" length="2">
            <Value index="0">
              0
            </Value>
            <Value index="1">
              0.72111027824
            </Value>
          </InformationKey>
        </DataArray>
      </Points>
      <Cells>
        <DataArray type="Int64" Name="connectivity" format="ascii" RangeMin="0" RangeMax="5">
          0 1 2 3 1 0
          4 5 3
        </DataArray>
        <DataArray type="Int64" Name="offsets" format="ascii" RangeMin="3" RangeMax="9">
          3 6 9
        </DataArray>
        <DataArray type="UInt8" Name="types" format="ascii" RangeMin="5" RangeMax="5">
          5 5 5
        </DataArray>
      </Cells>
    </Piece>
  </UnstructuredGrid>
</VTKFile>
