<?xml version="1.0"?>
<VTKFile type="UnstructuredGrid" version="0.1" byte_order="LittleEndian" header_type="UInt32" compressor="vtkZLibDataCompressor">
  <UnstructuredGrid>
    <Piece NumberOfPoints="121" NumberOfCells="100">
      <PointData>
        <DataArray type="Float64" Name="tem_BC" format="ascii" RangeMin="0" RangeMax="0">
          0 0 0 0 0 0
          0 0 0 0 0 0
          0 0 0 0 0 0
          0 0 0 0 0 0
          0 0 0 0 0 0
          0 0 0 0 0 0
          0 0 0 0 0 0
          0 0 0 0 0 0
          0 0 0 0 0 0
          0 0 0 0 0 0
          0 0 0 0 0 0
          0 0 0 0 0 0
          0 0 0 0 0 0
          0 0 0 0 0 0
          0 0 0 0 0 0
          0 0 0 0 0 0
          0 0 0 0 0 0
          0 0 0 0 0 0
          0 0 0 0 0 0
          0 0 0 0 0 0
          0
        </DataArray>
        <DataArray type="Float64" Name="tem_FIXNO" format="ascii" RangeMin="-1" RangeMax="1">
          1 1 1 1 1 1
          1 1 1 1 -1 -1
          -1 -1 -1 -1 -1 -1
          -1 1 -1 -1 -1 -1
          -1 -1 -1 -1 -1 1
          -1 -1 -1 -1 -1 -1
          -1 -1 -1 1 -1 -1
          -1 -1 -1 -1 -1 -1
          -1 1 -1 -1 -1 -1
          -1 -1 -1 -1 -1 1
          -1 -1 -1 -1 -1 -1
          -1 -1 -1 1 -1 -1
          -1 -1 -1 -1 -1 -1
          -1 1 -1 -1 -1 -1
          -1 -1 -1 -1 -1 1
          -1 -1 -1 -1 -1 -1
          -1 -1 -1 1 1 -1
          -1 -1 -1 -1 -1 -1
          -1 -1 -1 -1 -1 -1
          -1 -1 -1 -1 -1 1
          -1
        </DataArray>
      </PointData>
      <CellData>
        <DataArray type="UInt8" Name="vtkGhostType" format="ascii" RangeMin="0" RangeMax="1">
          0 0 0 0 0 0
          0 0 0 0 0 0
          0 0 0 0 0 0
          0 0 0 0 0 0
          0 0 0 0 0 0
          0 0 0 0 0 0
          0 0 0 0 0 0
          0 0 0 0 0 0
          0 0 0 0 0 0
          0 0 0 0 0 0
          0 0 0 0 0 0
          0 0 0 0 0 0
          0 0 0 0 0 0
          0 0 0 1 1 1
          1 1 1 1 1 1
          0 0 0 0 0 0
          0 0 0 1
        </DataArray>
      </CellData>
      <Points>
        <DataArray type="Float32" Name="Points" NumberOfComponents="3" format="ascii" RangeMin="5.551115123125783e-17" RangeMax="0.7443229541838491">
          0 0.4736842215061188 0 0 0.42105263471603394 0
          0 0.3684210479259491 0 0 0.31578946113586426 0
          0 0.2631579041481018 0 0 0.21052631735801697 0
          0 0.15789473056793213 0 0 0.10526315867900848 0
          0 0.05263157933950424 0 0 5.551115123125783e-17 0
          0.05263157933950424 0.4736842215061188 0 0.05263157933950424 0.42105263471603394 0
          0.05263157933950424 0.3684210479259491 0 0.05263157933950424 0.31578946113586426 0
          0.05263157933950424 0.2631579041481018 0 0.05263157933950424 0.21052631735801697 0
          0.05263157933950424 0.15789473056793213 0 0.05263157933950424 0.10526315867900848 0
          0.05263157933950424 0.05263157933950424 0 0.05263157933950424 5.551115123125783e-17 0
          0.10526315867900848 0.4736842215061188 0 0.10526315867900848 0.42105263471603394 0
          0.10526315867900848 0.3684210479259491 0 0.10526315867900848 0.31578946113586426 0
          0.10526315867900848 0.2631579041481018 0 0.10526315867900848 0.21052631735801697 0
          0.10526315867900848 0.15789473056793213 0 0.10526315867900848 0.10526315867900848 0
          0.10526315867900848 0.05263157933950424 0 0.10526315867900848 5.551115123125783e-17 0
          0.15789473056793213 0.4736842215061188 0 0.15789473056793213 0.42105263471603394 0
          0.15789473056793213 0.3684210479259491 0 0.15789473056793213 0.31578946113586426 0
          0.15789473056793213 0.2631579041481018 0 0.15789473056793213 0.21052631735801697 0
          0.15789473056793213 0.15789473056793213 0 0.15789473056793213 0.10526315867900848 0
          0.15789473056793213 0.05263157933950424 0 0.15789473056793213 5.551115123125783e-17 0
          0.21052631735801697 0.4736842215061188 0 0.21052631735801697 0.42105263471603394 0
          0.21052631735801697 0.3684210479259491 0 0.21052631735801697 0.31578946113586426 0
          0.21052631735801697 0.2631579041481018 0 0.21052631735801697 0.21052631735801697 0
          0.21052631735801697 0.15789473056793213 0 0.21052631735801697 0.10526315867900848 0
          0.21052631735801697 0.05263157933950424 0 0.21052631735801697 5.551115123125783e-17 0
          0.2631579041481018 0.4736842215061188 0 0.2631579041481018 0.42105263471603394 0
          0.2631579041481018 0.3684210479259491 0 0.2631579041481018 0.31578946113586426 0
          0.2631579041481018 0.2631579041481018 0 0.2631579041481018 0.21052631735801697 0
          0.2631579041481018 0.15789473056793213 0 0.2631579041481018 0.10526315867900848 0
          0.2631579041481018 0.05263157933950424 0 0.2631579041481018 5.551115123125783e-17 0
          0.31578946113586426 0.4736842215061188 0 0.31578946113586426 0.42105263471603394 0
          0.31578946113586426 0.3684210479259491 0 0.31578946113586426 0.31578946113586426 0
          0.31578946113586426 0.2631579041481018 0 0.31578946113586426 0.21052631735801697 0
          0.31578946113586426 0.15789473056793213 0 0.31578946113586426 0.10526315867900848 0
          0.31578946113586426 0.05263157933950424 0 0.31578946113586426 5.551115123125783e-17 0
          0.3684210479259491 0.4736842215061188 0 0.3684210479259491 0.42105263471603394 0
          0.3684210479259491 0.3684210479259491 0 0.3684210479259491 0.31578946113586426 0
          0.3684210479259491 0.2631579041481018 0 0.3684210479259491 0.21052631735801697 0
          0.3684210479259491 0.15789473056793213 0 0.3684210479259491 0.10526315867900848 0
          0.3684210479259491 0.05263157933950424 0 0.3684210479259491 5.551115123125783e-17 0
          0.42105263471603394 0.4736842215061188 0 0.42105263471603394 0.42105263471603394 0
          0.42105263471603394 0.3684210479259491 0 0.42105263471603394 0.31578946113586426 0
          0.42105263471603394 0.2631579041481018 0 0.42105263471603394 0.21052631735801697 0
          0.42105263471603394 0.15789473056793213 0 0.42105263471603394 0.10526315867900848 0
          0.42105263471603394 0.05263157933950424 0 0.42105263471603394 5.551115123125783e-17 0
          0.4736842215061188 0.4736842215061188 0 0.4736842215061188 0.42105263471603394 0
          0.4736842215061188 0.3684210479259491 0 0.4736842215061188 0.31578946113586426 0
          0.4736842215061188 0.2631579041481018 0 0.4736842215061188 0.21052631735801697 0
          0.4736842215061188 0.15789473056793213 0 0.4736842215061188 0.10526315867900848 0
          0.4736842215061188 0.05263157933950424 0 0.4736842215061188 5.551115123125783e-17 0
          0 0.5263158082962036 0 0.05263157933950424 0.5263158082962036 0
          0.10526315867900848 0.5263158082962036 0 0.15789473056793213 0.5263158082962036 0
          0.21052631735801697 0.5263158082962036 0 0.2631579041481018 0.5263158082962036 0
          0.31578946113586426 0.5263158082962036 0 0.3684210479259491 0.5263158082962036 0
          0.42105263471603394 0.5263158082962036 0 0.4736842215061188 0.5263158082962036 0
          0.5263158082962036 0.4736842215061188 0 0.5263158082962036 0.42105263471603394 0
          0.5263158082962036 0.3684210479259491 0 0.5263158082962036 0.31578946113586426 0
          0.5263158082962036 0.2631579041481018 0 0.5263158082962036 0.21052631735801697 0
          0.5263158082962036 0.15789473056793213 0 0.5263158082962036 0.10526315867900848 0
          0.5263158082962036 0.05263157933950424 0 0.5263158082962036 5.551115123125783e-17 0
          0.5263158082962036 0.5263158082962036 0
          <InformationKey name="L2_NORM_RANGE" location="vtkDataArray" length="2">
            <Value index="0">
              5.5511151231e-17
            </Value>
            <Value index="1">
              0.74432295418
            </Value>
          </InformationKey>
        </DataArray>
      </Points>
      <Cells>
        <DataArray type="Int64" Name="connectivity" format="ascii" RangeMin="0" RangeMax="120">
          11 10 0 1 12 11
          1 2 13 12 2 3
          14 13 3 4 15 14
          4 5 16 15 5 6
          17 16 6 7 18 17
          7 8 19 18 8 9
          21 20 10 11 22 21
          11 12 23 22 12 13
          24 23 13 14 25 24
          14 15 26 25 15 16
          27 26 16 17 28 27
          17 18 29 28 18 19
          31 30 20 21 32 31
          21 22 33 32 22 23
          34 33 23 24 35 34
          24 25 36 35 25 26
          37 36 26 27 38 37
          27 28 39 38 28 29
          41 40 30 31 42 41
          31 32 43 42 32 33
          44 43 33 34 45 44
          34 35 46 45 35 36
          47 46 36 37 48 47
          37 38 49 48 38 39
          51 50 40 41 52 51
          41 42 53 52 42 43
          54 53 43 44 55 54
          44 45 56 55 45 46
          57 56 46 47 58 57
          47 48 59 58 48 49
          61 60 50 51 62 61
          51 52 63 62 52 53
          64 63 53 54 65 64
          54 55 66 65 55 56
          67 66 56 57 68 67
          57 58 69 68 58 59
          71 70 60 61 72 71
          61 62 73 72 62 63
          74 73 63 64 75 74
          64 65 76 75 65 66
          77 76 66 67 78 77
          67 68 79 78 68 69
          81 80 70 71 82 81
          71 72 83 82 72 73
          84 83 73 74 85 84
          74 75 86 85 75 76
          87 86 76 77 88 87
          77 78 89 88 78 79
          91 90 80 81 92 91
          81 82 93 92 82 83
          94 93 83 84 95 94
          84 85 96 95 85 86
          97 96 86 87 98 97
          87 88 99 98 88 89
          10 101 100 0 20 102
          101 10 30 103 102 20
          40 104 103 30 50 105
          104 40 60 106 105 50
          70 107 106 60 80 108
          107 70 90 109 108 80
          111 110 90 91 112 111
          91 92 113 112 92 93
          114 113 93 94 115 114
          94 95 116 115 95 96
          117 116 96 97 118 117
          97 98 119 118 98 99
          110 120 109 90
        </DataArray>
        <DataArray type="Int64" Name="offsets" format="ascii" RangeMin="4" RangeMax="400">
          4 8 12 16 20 24
          28 32 36 40 44 48
          52 56 60 64 68 72
          76 80 84 88 92 96
          100 104 108 112 116 120
          124 128 132 136 140 144
          148 152 156 160 164 168
          172 176 180 184 188 192
          196 200 204 208 212 216
          220 224 228 232 236 240
          244 248 252 256 260 264
          268 272 276 280 284 288
          292 296 300 304 308 312
          316 320 324 328 332 336
          340 344 348 352 356 360
          364 368 372 376 380 384
          388 392 396 400
        </DataArray>
        <DataArray type="UInt8" Name="types" format="ascii" RangeMin="9" RangeMax="9">
          9 9 9 9 9 9
          9 9 9 9 9 9
          9 9 9 9 9 9
          9 9 9 9 9 9
          9 9 9 9 9 9
          9 9 9 9 9 9
          9 9 9 9 9 9
          9 9 9 9 9 9
          9 9 9 9 9 9
          9 9 9 9 9 9
          9 9 9 9 9 9
          9 9 9 9 9 9
          9 9 9 9 9 9
          9 9 9 9 9 9
          9 9 9 9 9 9
          9 9 9 9 9 9
          9 9 9 9
        </DataArray>
      </Cells>
    </Piece>
  </UnstructuredGrid>
</VTKFile>
