<?xml version="1.0"?>
<VTKFile type="UnstructuredGrid" version="0.1" byte_order="LittleEndian" header_type="UInt32" compressor="vtkZLibDataCompressor">
  <UnstructuredGrid>
    <Piece NumberOfPoints="121" NumberOfCells="100">
      <PointData>
        <DataArray type="Float64" Name="tem_BC" format="ascii" RangeMin="0" RangeMax="0">
          0 0 0 0 0 0
          0 0 0 0 0 0
          0 0 0 0 0 0
          0 0 0 0 0 0
          0 0 0 0 0 0
          0 0 0 0 0 0
          0 0 0 0 0 0
          0 0 0 0 0 0
          0 0 0 0 0 0
          0 0 0 0 0 0
          0 0 0 0 0 0
          0 0 0 0 0 0
          0 0 0 0 0 0
          0 0 0 0 0 0
          0 0 0 0 0 0
          0 0 0 0 0 0
          0 0 0 0 0 0
          0 0 0 0 0 0
          0 0 0 0 0 0
          0 0 0 0 0 0
          0
        </DataArray>
        <DataArray type="Float64" Name="tem_FIXNO" format="ascii" RangeMin="-1" RangeMax="1">
          1 -1 -1 -1 -1 -1
          -1 -1 -1 -1 1 -1
          -1 -1 -1 -1 -1 -1
          -1 -1 1 -1 -1 -1
          -1 -1 -1 -1 -1 -1
          1 -1 -1 -1 -1 -1
          -1 -1 -1 -1 1 -1
          -1 -1 -1 -1 -1 -1
          -1 -1 1 -1 -1 -1
          -1 -1 -1 -1 -1 -1
          1 -1 -1 -1 -1 -1
          -1 -1 -1 -1 1 -1
          -1 -1 -1 -1 -1 -1
          -1 -1 1 -1 -1 -1
          -1 -1 -1 -1 -1 -1
          1 1 1 1 1 1
          1 1 1 1 -1 -1
          -1 -1 -1 -1 -1 -1
          -1 1 1 -1 -1 -1
          -1 -1 -1 -1 -1 -1
          -1
        </DataArray>
        <DataArray type="Float64" Name="Temperature" format="ascii" RangeMin="0" RangeMax="0.07348614299531413">
          0 0.016428660203844953 0.03032755800391302 0.0419283300503681 0.05144606301905399 0.059072855155774755
          0.06497308054560909 0.06928029309925922 0.07209546430302625 0.07348614297706808 0 0.016185344911429506
          0.02984991121263453 0.041233420109751215 0.05055748770828867 0.058018913630269564 0.06378504835028476 0.06799105606228315
          0.07073860832816932 0.07209546432167543 0 0.015689398876294603 0.028876981689651825 0.03981934655308439
          0.04875143333990999 0.05587929050225251 0.061375801106980814 0.06537884737989558 0.0679910560694681 0.06928029312784868
          0 0.014921081566627938 0.027371622323015314 0.03763547866148516 0.04596818808203391 0.052589092172192084
          0.05767811031947406 0.06137580111622805 0.06378504836406926 0.06497308057926356 0 0.01384758821832725
          0.025272812117292015 0.034600041597226766 0.04211315429162935 0.048047418239260786 0.05258909218544313 0.05587929052258669
          0.05801891365047435 0.059072855191824786 0 0.012417724405583183 0.02248721602316726 0.03059149483567672
          0.03705011714315635 0.04211315430200465 0.045968188105030214 0.04875143336796704 0.050557487732862956 0.051446063055276395
          0 0.010550944330618478 0.018872985242183466 0.025433888128232305 0.030591494839696164 0.0346000416109681
          0.03763547868693906 0.03981934658259609 0.04123342013431835 0.041928330082680286 0 0.00811203329114633
          0.014207346368836315 0.018872985242304945 0.022487216026316287 0.025272812128231844 0.027371622343745645 0.0288769817138415
          0.0298499112321212 0.03032755802779567 0 0.00484270778290593 0.008112033290868985 0.010550944330116161
          0.012417724406483163 0.01384758822361097 0.0149210815780862 0.015689398890224544 0.016185344922111336 0.016428660216401134
          0 0 0 0 0 0
          0 0 0 0 0.07348614299531413 0.07209546434522834
          0.06928029315780528 0.0649730806129535 0.059072855227505466 0.051446063090183375 0.04192833011331638 0.030327558050317328
          0.01642866022824771 0 0 0.016428660203114804 0.03032755800288263 0.041928330048344564
          0.051446063014084505 0.0590728551470032 0.06497308053741235 0.06928029310007697 0.07209546431508938 0.0734861429874453
          0.07348614297605713
        </DataArray>
      </PointData>
      <CellData>
        <DataArray type="UInt8" Name="vtkGhostType" format="ascii" RangeMin="0" RangeMax="1">
          0 0 0 0 0 0
          0 0 0 0 0 0
          0 0 0 0 0 0
          0 0 0 0 0 0
          0 0 0 0 0 0
          0 0 0 0 0 0
          0 0 0 0 0 0
          0 0 0 0 0 0
          0 0 0 0 0 0
          0 0 0 0 0 0
          0 0 0 0 0 0
          0 0 0 0 0 0
          0 0 0 0 0 0
          0 0 0 0 0 0
          0 0 0 0 0 0
          1 1 1 1 1 1
          1 1 1 1
        </DataArray>
      </CellData>
      <Points>
        <DataArray type="Float32" Name="Points" NumberOfComponents="3" format="ascii" RangeMin="0.6698906503360945" RangeMax="1.4142135623730951">
          0.5263158082962036 1 0 0.5263158082962036 0.9473684430122375 0
          0.5263158082962036 0.8947368264198303 0 0.5263158082962036 0.8421052694320679 0
          0.5263158082962036 0.7894737124443054 0 0.5263158082962036 0.7368420958518982 0
          0.5263158082962036 0.6842105388641357 0 0.5263158082962036 0.6315789222717285 0
          0.5263158082962036 0.5789473652839661 0 0.5263158082962036 0.5263158082962036 0
          0.5789473652839661 1 0 0.5789473652839661 0.9473684430122375 0
          0.5789473652839661 0.8947368264198303 0 0.5789473652839661 0.8421052694320679 0
          0.5789473652839661 0.7894737124443054 0 0.5789473652839661 0.7368420958518982 0
          0.5789473652839661 0.6842105388641357 0 0.5789473652839661 0.6315789222717285 0
          0.5789473652839661 0.5789473652839661 0 0.5789473652839661 0.5263158082962036 0
          0.6315789222717285 1 0 0.6315789222717285 0.9473684430122375 0
          0.6315789222717285 0.8947368264198303 0 0.6315789222717285 0.8421052694320679 0
          0.6315789222717285 0.7894737124443054 0 0.6315789222717285 0.7368420958518982 0
          0.6315789222717285 0.6842105388641357 0 0.6315789222717285 0.6315789222717285 0
          0.6315789222717285 0.5789473652839661 0 0.6315789222717285 0.5263158082962036 0
          0.6842105388641357 1 0 0.6842105388641357 0.9473684430122375 0
          0.6842105388641357 0.8947368264198303 0 0.6842105388641357 0.8421052694320679 0
          0.6842105388641357 0.7894737124443054 0 0.6842105388641357 0.7368420958518982 0
          0.6842105388641357 0.6842105388641357 0 0.6842105388641357 0.6315789222717285 0
          0.6842105388641357 0.5789473652839661 0 0.6842105388641357 0.5263158082962036 0
          0.7368420958518982 1 0 0.7368420958518982 0.9473684430122375 0
          0.7368420958518982 0.8947368264198303 0 0.7368420958518982 0.8421052694320679 0
          0.7368420958518982 0.7894737124443054 0 0.7368420958518982 0.7368420958518982 0
          0.7368420958518982 0.6842105388641357 0 0.7368420958518982 0.6315789222717285 0
          0.7368420958518982 0.5789473652839661 0 0.7368420958518982 0.5263158082962036 0
          0.7894737124443054 1 0 0.7894737124443054 0.9473684430122375 0
          0.7894737124443054 0.8947368264198303 0 0.7894737124443054 0.8421052694320679 0
          0.7894737124443054 0.7894737124443054 0 0.7894737124443054 0.7368420958518982 0
          0.7894737124443054 0.6842105388641357 0 0.7894737124443054 0.6315789222717285 0
          0.7894737124443054 0.5789473652839661 0 0.7894737124443054 0.5263158082962036 0
          0.8421052694320679 1 0 0.8421052694320679 0.9473684430122375 0
          0.8421052694320679 0.8947368264198303 0 0.8421052694320679 0.8421052694320679 0
          0.8421052694320679 0.7894737124443054 0 0.8421052694320679 0.7368420958518982 0
          0.8421052694320679 0.6842105388641357 0 0.8421052694320679 0.6315789222717285 0
          0.8421052694320679 0.5789473652839661 0 0.8421052694320679 0.5263158082962036 0
          0.8947368264198303 1 0 0.8947368264198303 0.9473684430122375 0
          0.8947368264198303 0.8947368264198303 0 0.8947368264198303 0.8421052694320679 0
          0.8947368264198303 0.7894737124443054 0 0.8947368264198303 0.7368420958518982 0
          0.8947368264198303 0.6842105388641357 0 0.8947368264198303 0.6315789222717285 0
          0.8947368264198303 0.5789473652839661 0 0.8947368264198303 0.5263158082962036 0
          0.9473684430122375 1 0 0.9473684430122375 0.9473684430122375 0
          0.9473684430122375 0.8947368264198303 0 0.9473684430122375 0.8421052694320679 0
          0.9473684430122375 0.7894737124443054 0 0.9473684430122375 0.7368420958518982 0
          0.9473684430122375 0.6842105388641357 0 0.9473684430122375 0.6315789222717285 0
          0.9473684430122375 0.5789473652839661 0 0.9473684430122375 0.5263158082962036 0
          1 1 0 1 0.9473684430122375 0
          1 0.8947368264198303 0 1 0.8421052694320679 0
          1 0.7894737124443054 0 1 0.7368420958518982 0
          1 0.6842105388641357 0 1 0.6315789222717285 0
          1 0.5789473652839661 0 1 0.5263158082962036 0
          0.5263158082962036 0.4736842215061188 0 0.5789473652839661 0.4736842215061188 0
          0.6315789222717285 0.4736842215061188 0 0.6842105388641357 0.4736842215061188 0
          0.7368420958518982 0.4736842215061188 0 0.7894737124443054 0.4736842215061188 0
          0.8421052694320679 0.4736842215061188 0 0.8947368264198303 0.4736842215061188 0
          0.9473684430122375 0.4736842215061188 0 1 0.4736842215061188 0
          0.4736842215061188 1 0 0.4736842215061188 0.9473684430122375 0
          0.4736842215061188 0.8947368264198303 0 0.4736842215061188 0.8421052694320679 0
          0.4736842215061188 0.7894737124443054 0 0.4736842215061188 0.7368420958518982 0
          0.4736842215061188 0.6842105388641357 0 0.4736842215061188 0.6315789222717285 0
          0.4736842215061188 0.5789473652839661 0 0.4736842215061188 0.5263158082962036 0
          0.4736842215061188 0.4736842215061188 0
          <InformationKey name="L2_NORM_RANGE" location="vtkDataArray" length="2">
            <Value index="0">
              0.66989065034
            </Value>
            <Value index="1">
              1.4142135624
            </Value>
          </InformationKey>
        </DataArray>
      </Points>
      <Cells>
        <DataArray type="Int64" Name="connectivity" format="ascii" RangeMin="0" RangeMax="120">
          11 10 0 1 12 11
          1 2 13 12 2 3
          14 13 3 4 15 14
          4 5 16 15 5 6
          17 16 6 7 18 17
          7 8 19 18 8 9
          21 20 10 11 22 21
          11 12 23 22 12 13
          24 23 13 14 25 24
          14 15 26 25 15 16
          27 26 16 17 28 27
          17 18 29 28 18 19
          31 30 20 21 32 31
          21 22 33 32 22 23
          34 33 23 24 35 34
          24 25 36 35 25 26
          37 36 26 27 38 37
          27 28 39 38 28 29
          41 40 30 31 42 41
          31 32 43 42 32 33
          44 43 33 34 45 44
          34 35 46 45 35 36
          47 46 36 37 48 47
          37 38 49 48 38 39
          51 50 40 41 52 51
          41 42 53 52 42 43
          54 53 43 44 55 54
          44 45 56 55 45 46
          57 56 46 47 58 57
          47 48 59 58 48 49
          61 60 50 51 62 61
          51 52 63 62 52 53
          64 63 53 54 65 64
          54 55 66 65 55 56
          67 66 56 57 68 67
          57 58 69 68 58 59
          71 70 60 61 72 71
          61 62 73 72 62 63
          74 73 63 64 75 74
          64 65 76 75 65 66
          77 76 66 67 78 77
          67 68 79 78 68 69
          81 80 70 71 82 81
          71 72 83 82 72 73
          84 83 73 74 85 84
          74 75 86 85 75 76
          87 86 76 77 88 87
          77 78 89 88 78 79
          91 90 80 81 92 91
          81 82 93 92 82 83
          94 93 83 84 95 94
          84 85 96 95 85 86
          97 96 86 87 98 97
          87 88 99 98 88 89
          101 19 9 100 102 29
          19 101 103 39 29 102
          104 49 39 103 105 59
          49 104 106 69 59 105
          107 79 69 106 108 89
          79 107 109 99 89 108
          1 0 110 111 2 1
          111 112 3 2 112 113
          4 3 113 114 5 4
          114 115 6 5 115 116
          7 6 116 117 8 7
          117 118 9 8 118 119
          100 9 119 120
        </DataArray>
        <DataArray type="Int64" Name="offsets" format="ascii" RangeMin="4" RangeMax="400">
          4 8 12 16 20 24
          28 32 36 40 44 48
          52 56 60 64 68 72
          76 80 84 88 92 96
          100 104 108 112 116 120
          124 128 132 136 140 144
          148 152 156 160 164 168
          172 176 180 184 188 192
          196 200 204 208 212 216
          220 224 228 232 236 240
          244 248 252 256 260 264
          268 272 276 280 284 288
          292 296 300 304 308 312
          316 320 324 328 332 336
          340 344 348 352 356 360
          364 368 372 376 380 384
          388 392 396 400
        </DataArray>
        <DataArray type="UInt8" Name="types" format="ascii" RangeMin="9" RangeMax="9">
          9 9 9 9 9 9
          9 9 9 9 9 9
          9 9 9 9 9 9
          9 9 9 9 9 9
          9 9 9 9 9 9
          9 9 9 9 9 9
          9 9 9 9 9 9
          9 9 9 9 9 9
          9 9 9 9 9 9
          9 9 9 9 9 9
          9 9 9 9 9 9
          9 9 9 9 9 9
          9 9 9 9 9 9
          9 9 9 9 9 9
          9 9 9 9 9 9
          9 9 9 9 9 9
          9 9 9 9
        </DataArray>
      </Cells>
    </Piece>
  </UnstructuredGrid>
</VTKFile>
