<?xml version="1.0"?>
<VTKFile type="UnstructuredGrid" version="0.1" byte_order="LittleEndian" header_type="UInt32" compressor="vtkZLibDataCompressor">
  <UnstructuredGrid>
    <Piece NumberOfPoints="16" NumberOfCells="9">
      <PointData>
        <DataArray type="Float64" Name="Velocity" NumberOfComponents="3" format="ascii" RangeMin="0" RangeMax="0.23959729966292417">
          0 0 0 0 0 0
          0 0 0 0.09178203751477446 0.2213208611843936 0
          0 0 0 0 0 0
          -0.17947569875993383 0.08919015323883941 0 0.07327634116235544 0.2072094719826938 0
          -0.0922246589676714 0.15694984130434342 0 0 0 0
          0 0 0 0 0 0
          0 0 0 0 0 0
          0 0 0 0 0 0
          <InformationKey name="L2_NORM_RANGE" location="vtkDataArray" length="2">
            <Value index="0">
              0
            </Value>
            <Value index="1">
              0.23959729966
            </Value>
          </InformationKey>
        </DataArray>
        <DataArray type="Float64" Name="Pressure" format="ascii" RangeMin="-1.2076860685773776" RangeMax="1.2168850569111633">
          -0.6738951125288244 -0.2681685932456281 -0.7856187095919888 -0.29070772800795514 0.25333810555988695 -1.0443287984192888
          0.2951680183518303 -0.3985398580154483 0.40281013653236186 0.6503181486370163 -1.2076860685773776 0.7678380022757217
          -0.3535525528074135 1.0466204702559423 0.35802311058610486 1.2168850569111633
        </DataArray>
        <DataArray type="Float64" Name="Temperature" format="ascii" RangeMin="239.99999999999997" RangeMax="960.0000000000001">
          960 960 601.8766831272529 604.9469513597753 960 599.1534408089527
          599.6253709274293 600.1080800939142 592.6522489483234 960.0000000000001 240 606.1890780977864
          240 594.757626761958 239.99999999999997 239.99999999999997
        </DataArray>
        <DataArray type="Float64" Name="Density" format="ascii" RangeMin="0.36732124705896474" RangeMax="1.4692849882358594">
          0.3673212470589648 0.3673212470589648 0.5858814721720181 0.5829079663662778 0.3673212470589648 0.5885443914008098
          0.5880811824743214 0.5876081473880863 0.5950005214733503 0.36732124705896474 1.4692849882358592 0.5817135443666349
          1.4692849882358592 0.59289428383865 1.4692849882358594 1.4692849882358594
        </DataArray>
      </PointData>
      <CellData>
        <DataArray type="UInt8" Name="vtkGhostType" format="ascii" RangeMin="0" RangeMax="0">
          0 0 0 0 0 0
          0 0 0
        </DataArray>
      </CellData>
      <Points>
        <DataArray type="Float32" Name="Points" NumberOfComponents="3" format="ascii" RangeMin="0" RangeMax="1.4142135623730951">
          0 1 0 0 0.6666666865348816 0
          0.3333333134651184 1 0 0.3333333134651184 0.6666666865348816 0
          0 0.3333333134651184 0 0.6666666865348816 1 0
          0.3333333134651184 0.3333333134651184 0 0.6666666865348816 0.6666666865348816 0
          0.6666666865348816 0.3333333134651184 0 0 0 0
          1 1 0 0.3333333134651184 0 0
          1 0.6666666865348816 0 0.6666666865348816 0 0
          1 0.3333333134651184 0 1 0 0
          <InformationKey name="L2_NORM_RANGE" location="vtkDataArray" length="2">
            <Value index="0">
              0
            </Value>
            <Value index="1">
              1.4142135624
            </Value>
          </InformationKey>
        </DataArray>
      </Points>
      <Cells>
        <DataArray type="Int64" Name="connectivity" format="ascii" RangeMin="0" RangeMax="15">
          11 6 4 9 13 8
          6 11 15 14 8 13
          6 3 1 4 8 7
          3 6 14 12 7 8
          3 2 0 1 7 5
          2 3 12 10 5 7
        </DataArray>
        <DataArray type="Int64" Name="offsets" format="ascii" RangeMin="4" RangeMax="36">
          4 8 12 16 20 24
          28 32 36
        </DataArray>
        <DataArray type="UInt8" Name="types" format="ascii" RangeMin="9" RangeMax="9">
          9 9 9 9 9 9
          9 9 9
        </DataArray>
      </Cells>
    </Piece>
  </UnstructuredGrid>
</VTKFile>
