<?xml version="1.0"?>
<VTKFile type="UnstructuredGrid" version="0.1" byte_order="LittleEndian" header_type="UInt32" compressor="vtkZLibDataCompressor">
  <UnstructuredGrid>
    <Piece NumberOfPoints="38" NumberOfCells="54">
      <PointData>
        <DataArray type="Float64" Name="nsi_BC" NumberOfComponents="3" format="ascii" RangeMin="0" RangeMax="100">
          0 0 0 0 0 0
          0 0 0 0 0 0
          0 0 0 0 0 0
          0 0 0 0 0 0
          0 0 0 0 0 0
          0 0 0 0 0 0
          0 0 0 0 0 0
          0 0 0 0 0 0
          0 0 0 0 0 0
          0 0 0 0 0 0
          0 0 0 0 0 0
          0 0 0 0 0 0
          0 0 0 0 0 0
          0 0 0 0 0 0
          0 0 0 0 0 0
          0 0 0 0 0 0
          0 0 0 100 0 0
          100 0 0 100 0 0
          100 0 0 100 0 0
          <InformationKey name="L2_NORM_RANGE" location="vtkDataArray" length="2">
            <Value index="0">
              0
            </Value>
            <Value index="1">
              100
            </Value>
          </InformationKey>
        </DataArray>
        <DataArray type="Float64" Name="nsi_FIXNO" NumberOfComponents="3" format="ascii" RangeMin="1" RangeMax="1.4142135623730951">
          0 1 0 -1 -1 0
          0 1 0 -1 -1 0
          -1 -1 0 0 1 0
          -1 -1 0 -1 -1 0
          0 1 0 0 1 0
          0 1 0 -1 -1 0
          0 1 0 -1 -1 0
          0 1 0 -1 -1 0
          0 1 0 -1 -1 0
          -1 -1 0 -1 -1 0
          1 1 0 -1 -1 0
          -1 -1 0 1 1 0
          -1 -1 0 1 1 0
          0 1 0 0 1 0
          -1 -1 0 -1 -1 0
          -1 -1 0 -1 -1 0
          0 1 0 1 1 0
          1 1 0 1 1 0
          1 1 0 1 1 0
          <InformationKey name="L2_NORM_RANGE" location="vtkDataArray" length="2">
            <Value index="0">
              1
            </Value>
            <Value index="1">
              1.4142135624
            </Value>
          </InformationKey>
        </DataArray>
        <DataArray type="Float64" Name="tem_BC" format="ascii" RangeMin="0" RangeMax="1">
          0 0 0 0 0 0
          0 0 0 0 0 0
          0 0 0 0 0 0
          0 0 0 0 0 0
          0 0 0 0 0 0
          0 0 0 1 1 1
          1 1
        </DataArray>
        <DataArray type="Float64" Name="tem_FIXNO" format="ascii" RangeMin="-1" RangeMax="1">
          -1 -1 -1 -1 -1 -1
          -1 -1 -1 -1 -1 -1
          -1 -1 -1 -1 -1 -1
          -1 -1 1 -1 -1 1
          -1 1 -1 -1 -1 -1
          -1 -1 -1 1 1 1
          1 1
        </DataArray>
        <DataArray type="Float64" Name="Velocity" NumberOfComponents="3" format="ascii" RangeMin="0" RangeMax="100.00000000000001">
          0.007353189648475081 0 0 -0.0036401147133681296 -0.000011582434426533846 0
          0.0042803000214400085 0 0 0.015813469449446484 -0.0004881502398424569 0
          -0.0011387987762600436 0.0002629586737912009 0 -0.010246923325915466 0 0
          0.018757542809654162 -0.00032249242192483086 0 -0.04410996061328377 0.001719381969180785 0
          0.006551702439374222 0 0 0.17614878590129018 0 0
          0.003257080828845571 0 0 -0.009572399982676187 0.001198445547771677 0
          -0.016013999110286403 0 0 0.19504142123257184 -0.003234741455243467 0
          -0.9802874154100683 0 0 -0.2408728759993001 0.0059159567077928235 0
          0.17486167446346937 0 0 -0.5553795988090219 -0.07208223551552084 0
          1.2469895550525534 -0.0680126995257912 0 0.26763245056927853 -0.01281886122160188 0
          0 0 0 1.40261963735475 0.1073079254966106 0
          -5.450389223915644 0.34763298304586326 0 0 0 0
          -0.462247930879087 0.1969715760039531 0 0 0 0
          -1.2844622970500834 0 0 7.783828197522513 0 0
          -5.83962712785125 -0.7102452738116865 0 1.784518985562498 0.23145351635469402 0
          15.249153437927255 -1.4433800548761888 0 17.046453987301064 2.5399040056957443 0
          7.057174118755685 0 0 100 0 0
          100 0 0 99.99999999999999 0 0
          100 0 0 100.00000000000001 0 0
          <InformationKey name="L2_NORM_RANGE" location="vtkDataArray" length="2">
            <Value index="0">
              0
            </Value>
            <Value index="1">
              100
            </Value>
          </InformationKey>
        </DataArray>
        <DataArray type="Float64" Name="Pressure" format="ascii" RangeMin="0" RangeMax="109153.2020306085">
          0 0 84.44564468405851 118.16541805568383 0 186.27882229191923
          111.36196671535565 271.7287573661397 0 358.6565893897375 81.57421490355615 365.38087920491523
          188.7588373467571 668.1923555018369 1316.4383351335207 1057.1388258838342 381.4302874309082 2475.8484457001746
          2256.141593375722 961.3447931009258 2411.2119164535616 2461.6172578418323 6807.219372093726 4738.233529753054
          2784.4819658894176 4582.598933431259 1389.0032509990617 15417.031296177971 6662.7226349466055 12166.15971845689
          20756.264539531316 22196.365678858518 13431.852539577516 109153.2020306085 90747.92818557203 90890.56100801658
          97495.27925685098 102712.37642837188
        </DataArray>
        <DataArray type="Float64" Name="Temperature" format="ascii" RangeMin="-0.05567341501342795" RangeMax="1">
          0.00003564749413615572 -0.00005511381466345783 -0.000016658515340192004 0.000040995287872781734 -0.0000357663005110059 0.00011235217035366777
          0.00019552481931815884 -0.000453085133207525 0.00006488894859000287 0.00020494130271842817 -0.00009446243082529505 -0.0008820387776421523
          0.00020089201731583956 0.0026533684710819848 -0.013338576542310094 -0.0021148778739299738 0.00030987466052981587 -0.013335059075519327
          0.002732520504099864 0.004813956147425023 0 0.0024306400667416955 -0.04798233437210586 0
          -0.019242466663005296 0 -0.018375039066166016 0.05135041503239608 -0.05567341501342795 0.0010519732728215354
          0.07557604717363009 0.07468769228538144 0.061920741312376834 1 1 1
          1 1
        </DataArray>
      </PointData>
      <CellData>
        <DataArray type="UInt8" Name="vtkGhostType" format="ascii" RangeMin="0" RangeMax="0">
          0 0 0 0 0 0
          0 0 0 0 0 0
          0 0 0 0 0 0
          0 0 0 0 0 0
          0 0 0 0 0 0
          0 0 0 0 0 0
          0 0 0 0 0 0
          0 0 0 0 0 0
          0 0 0 0 0 0
        </DataArray>
      </CellData>
      <Points>
        <DataArray type="Float32" Name="Points" NumberOfComponents="3" format="ascii" RangeMin="0" RangeMax="17.88854381999832">
          16 8 0 16 5.3333330154418945 0
          13.333330154418945 8 0 12.266670227050781 5.866666793823242 0
          16 2.6666669845581055 0 10.666669845581055 8 0
          12.263879776000977 3.1395680904388428 0 9.333333015441895 5.398830890655518 0
          16 0 0 8 8 0
          13.333330154418945 0 0 8.247138023376465 2.711477041244507 0
          10.666669845581055 0 0 6.569083213806152 5.576254844665527 0
          5.3333330154418945 8 0 5.616211891174316 3.5832700729370117 0
          8 0 0 4.728512763977051 6.411884784698486 0
          4.725052833557129 4.928318977355957 0 6.100351810455322 1.7858580350875854 0
          4.5 4 0 4.676916122436523 2.8322830200195312 0
          3.5543038845062256 5.605832099914551 0 3.75 4.433012962341309 0
          4.728512763977051 1.5881149768829346 0 3.75 3.5669870376586914 0
          5.3333330154418945 0 0 2.6666669845581055 8 0
          3.5543038845062256 2.394167900085449 0 2.8495290279388428 4 0
          2.0158040523529053 5.323482036590576 0 2.0158040523529053 2.676517963409424 0
          2.6666669845581055 0 0 0 8 0
          0 5.883182048797607 0 0 4.072348117828369 0
          0 2.162787914276123 0 0 0 0
          <InformationKey name="L2_NORM_RANGE" location="vtkDataArray" length="2">
            <Value index="0">
              0
            </Value>
            <Value index="1">
              17.88854382
            </Value>
          </InformationKey>
        </DataArray>
      </Points>
      <Cells>
        <DataArray type="Int64" Name="connectivity" format="ascii" RangeMin="0" RangeMax="37">
          20 25 21 25 23 29
          23 20 18 21 25 28
          20 21 15 18 20 15
          23 18 22 29 23 22
          25 29 28 21 28 24
          22 18 17 15 21 19
          24 28 32 21 24 19
          19 24 26 26 24 32
          17 18 13 22 17 27
          15 19 11 11 19 16
          16 19 26 15 11 13
          15 13 18 17 13 14
          17 14 27 29 22 30
          29 30 35 30 22 27
          28 29 31 31 29 35
          28 31 32 34 35 30
          35 36 31 31 36 32
          32 36 37 34 30 27
          34 27 33 14 13 9
          16 12 11 12 10 6
          10 8 4 4 1 6
          4 6 10 2 5 3
          1 0 2 5 9 7
          13 11 7 13 7 9
          12 6 11 3 5 7
          3 7 6 6 7 11
          3 6 1 3 1 2
        </DataArray>
        <DataArray type="Int64" Name="offsets" format="ascii" RangeMin="3" RangeMax="162">
          3 6 9 12 15 18
          21 24 27 30 33 36
          39 42 45 48 51 54
          57 60 63 66 69 72
          75 78 81 84 87 90
          93 96 99 102 105 108
          111 114 117 120 123 126
          129 132 135 138 141 144
          147 150 153 156 159 162
        </DataArray>
        <DataArray type="UInt8" Name="types" format="ascii" RangeMin="5" RangeMax="5">
          5 5 5 5 5 5
          5 5 5 5 5 5
          5 5 5 5 5 5
          5 5 5 5 5 5
          5 5 5 5 5 5
          5 5 5 5 5 5
          5 5 5 5 5 5
          5 5 5 5 5 5
          5 5 5 5 5 5
        </DataArray>
      </Cells>
    </Piece>
  </UnstructuredGrid>
</VTKFile>
