<?xml version="1.0"?>
<VTKFile type="UnstructuredGrid" version="0.1" byte_order="LittleEndian" header_type="UInt32" compressor="vtkZLibDataCompressor">
  <UnstructuredGrid>
    <Piece NumberOfPoints="64" NumberOfCells="27">
      <PointData>
        <DataArray type="Float64" Name="Velocity" NumberOfComponents="3" format="ascii" RangeMin="0" RangeMax="0.05875134658648621">
          0 0 0 0 0 0
          0 0 0 0 0 0
          0 0 0 0 0 0
          0.05875134658648619 0 0 -0.016617011731158135 -0.0009740516076635665 -0.010410587566625414
          0 0 0 0 0 0
          0 0 0 0 0 0
          0 0 0 0 0 0
          0.05875134658648621 0 0 0 0 0
          0.058751346586486175 0 0 -0.0009685874712635956 0.00020208858440245385 -0.0012782615090537633
          -0.016616193363589188 0.0009751368327933766 -0.010409769229097227 -0.016612879870801147 0.0009747622495441321 0.010410014742524632
          0.058751346586486175 0 0 0 0 0
          0 0 0 0 0 0
          0 0 0 0 0 0
          -0.016612690114203497 -0.0009746851221294581 0.01040992313582969 -0.0009686790860763071 -0.00020201145877783605 -0.001278071770400784
          -0.0009699939964498912 -0.00020201982462825663 0.0012778875504304546 0 0 0
          0 0 0 0 0 0
          0 0 0 0 0 0
          0 0 0 0 0 0
          0 0 0 0 0 0
          -0.0009699381392706372 0.00020213269279570077 0.0012779434136427914 0 0 0
          0 0 0 0 0 0
          0 0 0 0 0 0
          0 0 0 0 0 0
          0 0 0 0 0 0
          0 0 0 0 0 0
          0 0 0 0 0 0
          0 0 0 0 0 0
          0 0 0 0 0 0
          0 0 0 0 0 0
          0 0 0 0 0 0
          0 0 0 0 0 0
          0 0 0 0 0 0
          <InformationKey name="L2_NORM_RANGE" location="vtkDataArray" length="2">
            <Value index="0">
              0
            </Value>
            <Value index="1">
              0.058751346586
            </Value>
          </InformationKey>
        </DataArray>
        <DataArray type="Float64" Name="Pressure" format="ascii" RangeMin="-0.8457603953117182" RangeMax="0.21863583483343013">
          0 -0.15319550665735898 0.21863583483343013 -0.17391955977293777 -0.15178909566836699 -0.2397188161547676
          -0.08573195879144561 -0.24221568657380116 -0.2646537441327508 0.21863065374778926 -0.453195867821552 -0.2770741203431054
          -0.29003484612276026 -0.3873844767582683 -0.08575298045365194 -0.15181011730039576 -0.541370321870947 -0.28861178646867375
          -0.24222174217217834 -0.3848989351028008 -0.5413709357862447 -0.27707473424311435 -0.33709149096618557 -0.2931012516036735
          -0.00028965750605905227 -0.6268410479202946 -0.38490146966544375 -0.2886143210072544 -0.3385151204111103 -0.47392701120469444
          -0.30442156479510424 -0.2906823571717734 -0.15320449464125266 -0.1739285477758206 -0.8457593674162751 -0.47532419377847746
          -0.3034058960449426 -0.2397420848002398 -0.3385162742182064 -0.2906833850313781 -0.4532007026200981 -0.8457603953117182
          -0.362473458431975 -0.32270948760801427 -0.26465857889528804 -0.47532481058993015 -0.3500543514895828 -0.2900377098770718
          -0.3873873405403279 -0.3237254834963986 -0.30340651279114217 -0.3500551331009937 -0.3370945224422411 -0.3237262650983042
          -0.33402934572768433 -0.29310265609095476 -0.6268424524535562 -0.3044232346473112 -0.33644809292054084 -0.47392868111183073
          -0.322710756096795 -0.3364487194110791 -0.3624747269346861 -0.3340308129398692
        </DataArray>
        <DataArray type="Float64" Name="stream" format="ascii" RangeMin="-0.0029097864666571176" RangeMax="0.02403968584780867">
          0 0.00011539022015256843 0 -0.002339576789255512 0.000056497552064912514 -0.00016167535027352683
          0.0007618007985884671 0.00018440693548492257 0.00044577517761332295 0.0011993531068479522 -0.0029097864666571176 0.0007153758865866756
          0.0003569358989171267 -0.0017630008141848316 0.0033712444072996734 0.001674775850604626 0.0005232483500993046 0.0006656514548181118
          0.0015937710151337592 -0.0009820028859672742 0.006160253032919319 0.0023225422511266728 0.0002586908341264643 0.0006607699149215091
          0.004455902673124163 -0.0029097864666571176 0.0023774748747089 0.0025512902927029885 0.0004641931501729846 -0.001237091546340351
          0.0008019622124751218 0.001806541978684145 0.0027900258123895847 0.005905537072368715 -0.0005456471580559192 -0.0009176691969144408
          0.0013040951380974485 0.003491894490801001 0.002510414336502389 0.003934888867324748 0.012910114644370294 0.011572433559490508
          0.0002726206318181642 0.0008140557592971147 0.0034820099023317183 0.0009942727530711042 0.0003651989184751033 0.0042093421931579484
          0.00534612692852455 0.0013963079510070425 0.0033984057272785683 0.0029133346606318804 0.004815942453546573 0.003566560125782887
          0.0008140557592971147 0.004917463692202715 0.02403968584780867 0.004581779984952577 0.00112806361731576 0.005412354282597826
          0.005383617354947187 0.003375822669269602 0.006236810388898183 0.005596607902588596
        </DataArray>
        <DataArray type="Float64" Name="Sigma" NumberOfComponents="6" format="ascii" RangeMin="0.0000012386676229088278" RangeMax="0.006930469785172828">
          0.0000016778271392054556 -0.000009651702417100296 -1.2800432161352511e-7 2.736260668290373e-7 -0.0000029049312168675685 0.000007408526106143452
          0.000002420749510424384 0.000002428761351061267 -2.473277586456031e-7 -0.0000024708300282713053 0.0000017391050344493891 -0.0000010015253205241626
          -0.00693042825344526 0.000004831116992221702 0.00001088091983719204 2.3937040948394344e-7 0.000020157176783123676 0.000004536560750139265
          -0.000007716016113671802 -0.0000021975623730415047 0.0000011216346212859769 -0.000001095292194444979 0.000007264625780880321 0.0035149705230095554
          0.0018682247959891842 -0.000001207839739998994 -0.000005984722094836685 -0.0000013849414824559616 0.0012080677956307693 0.00015366700000248547
          -0.000010309443584992332 -0.00020412326961272522 -3.8158417493024325e-7 -0.0007291483012923039 -0.000005008739306115916 -0.0011754562919828071
          -0.003378042530262667 0.0000010756824328656752 0.0013384854502492916 0.00012969232351607105 0.005238920101902415 0.0017447944552472245
          0.000978704454073022 0.00010211104876347407 -0.00011262337677508525 -0.00039184008256554757 0.0005978606848205815 -0.000660569804135399
          -3.9712133755971114e-7 -6.673835321631958e-8 2.463173273716636e-7 0.0000015169975690637632 2.592955657885493e-8 8.515796576133836e-7
          -0.006930428759120616 0.000004831124784394949 0.000010880761701003623 -2.393441272681463e-7 0.000020156584275424522 -0.000004536742250131522
          -0.0000014617367586395713 0.0000023077030785355297 9.927290968297854e-8 0.0000011124912576075112 -0.000003117379697162912 0.003511161799381941
          0.000010744738692194909 3.1158259669187375e-8 8.512484232203031e-7 7.640557382134629e-7 0.00010298282359676159 -0.00003345146828032568
          0.0000023223907700213755 0.00003751816025205146 -4.90961110265587e-7 -0.00006247304070308599 6.658587090246116e-7 -0.000019184252433398005
          -0.000013642713410381095 0.0002041119040511537 -8.956142977869916e-7 0.0007289551912124474 0.000005547557760176629 -0.0011741120036288387
          -0.003378041667530275 0.0000010757838067971307 0.0013384024910756578 -0.00012978253663961013 0.005238846716893739 -0.0017447939425987492
          0.0018681417562224259 -0.00000120774311978218 -0.000005984571032251961 0.0000013849618349714595 0.001207993815707859 -0.00015375721187810593
          0.0034747321513508814 -0.0000012062076101767492 -0.0013437481181669904 -0.0001301400833349959 0.005285106144006676 0.0017498431286787199
          -0.0000020504663080413838 -0.00001874392407621154 -0.000666167331127228 -0.00009662445834148949 -0.0012210521639335259 0.000006883011920859186
          0.0009787045368764638 0.00010206752459690648 -0.00011262288582818924 0.00039189397968680123 0.0005978867829791952 0.0006606233861345522
          -0.0008823110376535653 -0.00010196464191799021 0.00011884278596651896 0.00039259961037895315 0.0005509161642591493 -0.0006630898088650243
          0.003474732022422464 -0.0000012062278949869585 -0.0013437365237848958 0.0001301377471311784 0.005285092100606895 -0.0017498433661547474
          0.000010756370779897074 3.114017209498531e-8 8.512023780229e-7 -7.640788308920666e-7 0.00010296897829260938 0.000033449170996551186
          0.000002907300228538048 -0.000037533609664896646 3.3567445989717594e-7 0.0000624364962602262 -0.0000015532685575821956 -0.00001943719454201767
          2.367577146480822e-7 9.583656705515016e-9 -1.284115831477324e-7 -7.487485795086171e-7 -7.337486803230777e-8 -9.774142136865134e-7
          0.0000016779274616595958 -0.000009651702379968008 -1.2798126114068644e-7 -2.7372364411214147e-7 -0.000002904889317892103 -0.000007408558554265724
          0.000005815655047217311 0.00000949715221092437 4.666248727535694e-7 -3.2372689386295495e-7 -2.1347240997633096e-7 0.000006283533331342515
          -0.000882269584192503 -0.0001019677048081119 0.00011883855206524069 -0.00039260929620348316 0.0005509531512976937 0.0006631444012250086
          -0.0000020547070121868576 -0.00001874697883560152 -0.0006661256681307568 0.00009667909049353824 -0.0012210151902054816 -0.0000068927422662878666
          -0.000017688898600119456 0.000018758729917501365 0.0006667021767055214 0.00009662188970032236 -0.0012109850943600412 0.000006995152647425523
          0.000001807915845350013 -0.0000023433917713819714 -3.736587309778736e-7 0.000002443961467602829 -5.868842131215729e-7 -0.000001034192879344139
          -0.0000012129925279626133 0.0000012729319180628855 1.8080839737504022e-7 6.774055926310021e-7 -3.2481473845221124e-7 -0.0000012905039479931684
          0.000004233507388371331 -3.739982055595441e-9 3.4380321603155654e-7 -3.917016770731973e-7 -4.848657288286498e-7 -4.4508831072483784e-7
          0.0000024206609220871604 0.000002428674965317907 -2.4734146034094616e-7 0.000002470841268077687 0.0000017390380724236497 0.000001001266392877743
          -0.000007716190097189916 -0.000002197655001569897 0.0000011215166223131156 0.0000010950158816475298 0.000007264409098879038 -0.003514970676938869
          0.006884964944604753 -0.000004743469334254294 -0.000012351316337217454 -1.0674203929325468e-7 0.000008089433501708429 0.0000043155926507847185
          -0.0018845179093281944 0.0000011305679688245416 0.000008617457428639131 0.0000013739038506816124 0.0012184300275933995 0.00015444688803123061
          0.00000472122531089627 -6.424963007076645e-7 0.0002222880218497887 0.0000584454112498218 0.00055751643889671 -4.5650182156464607e-7
          -0.000010309192163616908 -0.00020421074025639554 -3.814120971576324e-7 0.0007290583506920543 -0.000005008462552348059 0.0011753663763282853
          -0.000017694646622087174 0.000018754219213561695 0.0006666963557603188 -0.00009661790510638409 -0.001210971260706603 -0.000006991104598851046
          0.0000042334283773967976 -3.7413227108836336e-9 3.4381347540651246e-7 3.9172120019943743e-7 -4.84836607674492e-7 4.450945063328259e-7
          -0.0000014617449662981105 0.0000023077179710656205 9.927209100982671e-8 -0.000001112396644543246 -0.0000031172884758039804 -0.003511161692729929
          0.006884965060761713 -0.000004743470355319688 -0.000012351361674127966 1.0676354072165263e-7 0.000008089560311954037 -0.000004315423651016548
          -2.8346791565972256e-7 6.836859957400116e-8 2.3101741245716086e-7 -0.0000014861112836222865 3.809217193438998e-7 7.929166627679573e-7
          -0.0000013988161580381305 -0.0000012632803886448452 -1.0756061921091656e-7 -6.741186748880101e-7 8.408209317533462e-7 -0.0000011999559929759539
          -3.971317304322071e-7 -6.672059543608568e-8 2.463138143981538e-7 -0.000001516945019525084 2.598063621591001e-8 -8.515089895065629e-7
          -0.0018845198006639011 0.0000011306096120073353 0.000008617450209464956 -0.0000013739334241552652 0.0012184026872398685 -0.00015446526636378637
          -0.000008602085581955426 -3.1109080243795647e-8 -0.0000028836298778921697 -8.22021427288205e-7 0.00010134046212895995 -0.00003343327499000989
          0.000002322386260520979 0.00003751219213359043 -4.910214162591597e-7 0.00006245431686903745 6.657735467206988e-7 0.00001919579394090825
          -0.000013642710013291183 0.00020410594559716632 -8.956243565725538e-7 -0.0007289436764069807 0.000005547487955994696 0.001174093303151998
          0.0000051781566762626766 6.379190124663572e-7 -0.000222582694666209 -0.000058436636123435815 0.0005521479761711842 -5.114696143996429e-7
          0.000004721241920501486 -6.424561282095023e-7 0.00022228613290681953 -0.00005846378225991656 0.0005574890634524436 4.564827937618044e-7
          -0.000008593580062575225 -3.112979670233591e-8 -0.0000028836115847510674 8.220396748162041e-7 0.0001013413254897863 0.000033441294043899046
          0.000002907302832920603 -0.000037542729088715224 3.3569354138656836e-7 -0.00006244229232906704 -0.0000015532910929331236 0.000019431384814525098
          0.000005178135421549247 6.378983914143766e-7 -0.00022257417203165058 0.00005844468297573778 0.0005521488439508372 5.114593646213055e-7
          9.287522598706642e-8 -1.0718594218153654e-8 -1.249891666033763e-7 7.32471549551904e-7 -2.650798587842172e-7 -9.503492739356429e-7
          2.3675644339096375e-7 9.582571220427231e-9 -1.2840978641210253e-7 7.487090051600845e-7 -7.339386969219823e-8 9.77367304329757e-7
          0.000005815648345012107 0.000009497153552158409 4.666160947681512e-7 3.2366891767534527e-7 -2.1351073647964223e-7 -0.000006283606858433943
          -0.0000012129873145650747 0.0000012728502285145797 1.8080956881460835e-7 -6.773519922653618e-7 -3.247630779789018e-7 0.0000012904971441921016
          -0.000005344422332682466 3.903344926517073e-9 7.356637116836383e-7 4.1402358388180886e-7 3.810991124792489e-7 -4.56755945446009e-7
          0.0000018079125461282963 -0.0000023434776229719792 -3.736467751128298e-7 -0.000002443959564501365 -5.868500604008241e-7 0.000001034243251347613
          -0.0000013988135735694834 -0.000001263264331320808 -1.0758230212810025e-7 6.741204244919922e-7 8.408274390635255e-7 0.00000119997555686896
          -0.000005344414735171004 3.90368070485472e-9 7.35662777928984e-7 -4.1402367357085085e-7 3.8115039762063015e-7 4.567671891238548e-7
          -2.834853910317227e-7 6.838449210611426e-8 2.310111154520398e-7 0.0000014861246272138027 3.809285004886557e-7 -7.929090150754249e-7
          9.287701240815841e-8 -1.0718821850030672e-8 -1.2498543718913158e-7 -7.324949919483633e-7 -2.650873533532971e-7 9.503235605940963e-7
          <InformationKey name="L2_NORM_RANGE" location="vtkDataArray" length="2">
            <Value index="0">
              1.2386676229e-06
            </Value>
            <Value index="1">
              0.0069304697852
            </Value>
          </InformationKey>
        </DataArray>
      </PointData>
      <CellData>
        <DataArray type="UInt8" Name="vtkGhostType" format="ascii" RangeMin="0" RangeMax="0">
          0 0 0 0 0 0
          0 0 0 0 0 0
          0 0 0 0 0 0
          0 0 0 0 0 0
          0 0 0
        </DataArray>
        <DataArray type="Float64" Name="NN-Viscosity" format="ascii" RangeMin="0.000005016698335432071" RangeMax="0.00028993340421458555">
          0.000005016698335432071 0.00009036418528181207 0.0001016863815542175 0.000008700674305402913 0.0001677920218291813 0.00018436886967000712
          0.000005016740732033402 0.00009036354065703223 0.00010168630653980073 0.000006863087104370792 0.00013397827006540551 0.0001741219161282592
          0.000012283279670697893 0.00013320409621242683 0.00028993340421458555 0.0000068629260117107915 0.00013397681486414605 0.00017412112015766
          0.000005040420560840232 0.00008978970867508437 0.00010158880451987135 0.00000877887158332212 0.00016909199583778177 0.00018387558307057447
          0.000005040086237829559 0.00008978753521653982 0.00010158799911689988
        </DataArray>
      </CellData>
      <Points>
        <DataArray type="Float32" Name="Points" NumberOfComponents="3" format="ascii" RangeMin="0" RangeMax="1.7320508075688772">
          1 0 1 1 0 0.6666666865348816
          1 0.3333333134651184 1 0.6666666865348816 0 1
          1 0.3333333134651184 0.6666666865348816 0.6666666865348816 0 0.6666666865348816
          0.6666666865348816 0.3333333134651184 1 0.6666666865348816 0.3333333134651184 0.6666666865348816
          1 0 0.3333333134651184 1 0.6666666865348816 1
          0.3333333134651184 0 1 1 0.3333333134651184 0.3333333134651184
          0.6666666865348816 0 0.3333333134651184 0.3333333134651184 0 0.6666666865348816
          0.6666666865348816 0.6666666865348816 1 1 0.6666666865348816 0.6666666865348816
          0.3333333134651184 0.3333333134651184 1 0.6666666865348816 0.3333333134651184 0.3333333134651184
          0.6666666865348816 0.6666666865348816 0.6666666865348816 0.3333333134651184 0.3333333134651184 0.6666666865348816
          0.3333333134651184 0.6666666865348816 1 1 0.6666666865348816 0.3333333134651184
          0.3333333134651184 0 0.3333333134651184 1 0 0
          1 1 1 0 0 1
          0.3333333134651184 0.6666666865348816 0.6666666865348816 0.6666666865348816 0.6666666865348816 0.3333333134651184
          0.3333333134651184 0.3333333134651184 0.3333333134651184 0 0 0.6666666865348816
          0.6666666865348816 0 0 1 0.3333333134651184 0
          1 1 0.6666666865348816 0.6666666865348816 1 1
          0 0.3333333134651184 1 0 0.3333333134651184 0.6666666865348816
          0.6666666865348816 0.3333333134651184 0 0.6666666865348816 1 0.6666666865348816
          0.3333333134651184 0.6666666865348816 0.3333333134651184 1 0.6666666865348816 0
          0.3333333134651184 1 1 0 0.6666666865348816 1
          0 0 0.3333333134651184 0.3333333134651184 0 0
          1 1 0.3333333134651184 0 0.6666666865348816 0.6666666865348816
          0 0.3333333134651184 0.3333333134651184 0.6666666865348816 1 0.3333333134651184
          0.3333333134651184 1 0.6666666865348816 0.3333333134651184 0.3333333134651184 0
          0.6666666865348816 0.6666666865348816 0 0 0.6666666865348816 0.3333333134651184
          0.3333333134651184 1 0.3333333134651184 0.3333333134651184 0.6666666865348816 0
          0 0 0 1 1 0
          0 1 1 0.6666666865348816 1 0
          0 0.3333333134651184 0 0 1 0.6666666865348816
          0.3333333134651184 1 0 0 0.6666666865348816 0
          0 1 0.3333333134651184 0 1 0
          <InformationKey name="L2_NORM_RANGE" location="vtkDataArray" length="2">
            <Value index="0">
              0
            </Value>
            <Value index="1">
              1.7320508076
            </Value>
          </InformationKey>
        </DataArray>
      </Points>
      <Cells>
        <DataArray type="Int64" Name="connectivity" format="ascii" RangeMin="0" RangeMax="63">
          28 49 43 22 46 58
          54 42 19 28 22 13
          35 46 42 29 16 19
          13 10 34 35 29 25
          38 53 49 28 51 61
          58 46 26 38 28 19
          45 51 46 35 20 26
          19 16 41 45 35 34
          52 60 53 38 62 63
          61 51 48 52 38 26
          59 62 51 45 40 48
          26 20 56 59 45 41
          17 36 30 12 28 49
          43 22 7 17 12 5
          19 28 22 13 6 7
          5 3 16 19 13 10
          27 50 36 17 38 53
          49 28 18 27 17 7
          26 38 28 19 14 18
          7 6 20 26 19 16
          47 57 50 27 52 60
          53 38 37 47 27 18
          48 52 38 26 33 37
          18 14 40 48 26 20
          11 31 23 8 17 36
          30 12 4 11 8 1
          7 17 12 5 2 4
          1 0 6 7 5 3
          21 39 31 11 27 50
          36 17 15 21 11 4
          18 27 17 7 9 15
          4 2 14 18 7 6
          44 55 39 21 47 57
          50 27 32 44 21 15
          37 47 27 18 24 32
          15 9 33 37 18 14
        </DataArray>
        <DataArray type="Int64" Name="offsets" format="ascii" RangeMin="8" RangeMax="216">
          8 16 24 32 40 48
          56 64 72 80 88 96
          104 112 120 128 136 144
          152 160 168 176 184 192
          200 208 216
        </DataArray>
        <DataArray type="UInt8" Name="types" format="ascii" RangeMin="12" RangeMax="12">
          12 12 12 12 12 12
          12 12 12 12 12 12
          12 12 12 12 12 12
          12 12 12 12 12 12
          12 12 12
        </DataArray>
      </Cells>
    </Piece>
  </UnstructuredGrid>
</VTKFile>
