<?xml version="1.0"?>
<VTKFile type="UnstructuredGrid" version="0.1" byte_order="LittleEndian" header_type="UInt32" compressor="vtkZLibDataCompressor">
  <UnstructuredGrid>
    <Piece NumberOfPoints="24" NumberOfCells="15">
      <PointData>
        <DataArray type="Float64" Name="Velocity" NumberOfComponents="3" format="ascii" RangeMin="0" RangeMax="0.2348235506115328">
          0 0 0 -7.911566086888823e-17 -1.8710685804866067e-17 0
          0.1218835319552613 0.09765392660320887 0 -0.08038667097890324 0.12781147887295885 0
          0.1336879897590978 -0.10625326820848227 0 -0.11212963625942551 -0.04210101902057615 0
          -1.4064006689209637e-17 7.965227952771951e-17 0 0 0 0
          -0.1895539433292004 -0.03523797681010589 0 -0.04656033838844996 -0.22218064812216248 0
          0 0 0 1.7690314166524246e-17 1.531848409775151e-16 0
          0 0 0 -0.19700150516347553 0.1277986967270489 0
          0 0 0 5.703911037186504e-18 8.47253599133011e-19 0
          0 0 0 -0.14554467231005322 -0.12440948503395143 0
          0 0 0 0.048626466300370125 -0.18060125065111002 0
          2.8705143157052045e-18 -4.533931509465172e-17 0 7.690353832571499e-17 -2.252923113903354e-17 0
          0 0 0 -1.5119200614600526e-17 -4.5796981447396604e-17 0
          <InformationKey name="L2_NORM_RANGE" location="vtkDataArray" length="2">
            <Value index="0">
              0
            </Value>
            <Value index="1">
              0.23482355061
            </Value>
          </InformationKey>
        </DataArray>
        <DataArray type="Float64" Name="Pressure" format="ascii" RangeMin="64.29845193229326" RangeMax="66.36473411340143">
          64.82790513999646 64.7691642715233 64.70970597686056 64.64906174211595 64.67135699968026 65.16329822026313
          64.29845193229326 64.80269699038152 65.43615519492381 65.34934190938691 64.37901357358025 65.2175868268727
          65.21598104689234 64.56913441769115 64.75045066095575 66.26678771491076 64.62020887093671 65.74274473316372
          64.74296863701846 64.63165825059396 64.80602138044732 64.3115718094942 66.36473411340143 65.87442879926503
        </DataArray>
        <DataArray type="Float64" Name="Temperature" format="ascii" RangeMin="238.73005427612168" RangeMax="959.1332035886">
          959.0057856526321 844.2202974439435 608.4754336494195 490.669833496666 633.9570920086087 539.4779205651229
          714.2965075903338 958.3239971110828 391.8147038559501 550.8430989629118 239.78488054098077 239.96753111521866
          238.73005427612168 392.1126642486527 958.6340840353623 311.7138451091916 959.1332035886 415.3953764286377
          958.2361858558852 669.7648172955255 239.82077152035438 778.5794075142182 274.28531060710225 239.8879394149825
        </DataArray>
        <DataArray type="Float64" Name="Density" format="ascii" RangeMin="0.3150262958981468" RangeMax="1.2656646073140096">
          0.3150681517461505 0.3579067943690406 0.49657252156794285 0.6157953062779695 0.4766129825002995 0.5600825703541755
          0.4230066606635732 0.31529230334447755 0.7711609018903115 0.548526760103395 1.260096882329493 1.2591377633266712
          1.2656646073140096 0.7705749085620816 0.31519031654657287 0.9693255052357317 0.3150262958981468 0.7273845534757598
          0.31532119623468513 0.4511317593831132 1.259908299368452 0.3880813921911002 1.1015981123110716 1.259555528870279
        </DataArray>
      </PointData>
      <CellData>
        <DataArray type="UInt8" Name="vtkGhostType" format="ascii" RangeMin="0" RangeMax="0">
          0 0 0 0 0 0
          0 0 0 0 0 0
          0 0 0
        </DataArray>
      </CellData>
      <Points>
        <DataArray type="Float32" Name="Points" NumberOfComponents="3" format="ascii" RangeMin="0" RangeMax="1.4142135623730951">
          0 1 0 0.25 1 0
          0.25 0.75 0 0.25 0.5 0
          0.5 0.75 0 0.5 0.5 0
          0.75 1 0 0 0.25 0
          0.5 0.25 0 0.75 0.5 0
          1 1 0 1 0.5 0
          0.25 0 0 0.25 0.25 0
          0 0 0 0.5 0 0
          0 0.5 0 0.75 0.25 0
          0 0.75 0 0.75 0.75 0
          1 0.75 0 0.5 1 0
          0.75 0 0 1 0.25 0
          <InformationKey name="L2_NORM_RANGE" location="vtkDataArray" length="2">
            <Value index="0">
              0
            </Value>
            <Value index="1">
              1.4142135624
            </Value>
          </InformationKey>
        </DataArray>
      </Points>
      <Cells>
        <DataArray type="Int64" Name="connectivity" format="ascii" RangeMin="0" RangeMax="23">
          12 13 7 14 15 8
          13 12 13 3 16 7
          8 5 3 13 17 9
          5 8 3 2 18 16
          5 4 2 3 9 19
          4 5 11 20 19 9
          2 1 0 18 4 21
          1 2 19 6 21 4
          20 10 6 19 22 17
          8 15 23 11 9 17
        </DataArray>
        <DataArray type="Int64" Name="offsets" format="ascii" RangeMin="4" RangeMax="60">
          4 8 12 16 20 24
          28 32 36 40 44 48
          52 56 60
        </DataArray>
        <DataArray type="UInt8" Name="types" format="ascii" RangeMin="9" RangeMax="9">
          9 9 9 9 9 9
          9 9 9 9 9 9
          9 9 9
        </DataArray>
      </Cells>
    </Piece>
  </UnstructuredGrid>
</VTKFile>
