<?xml version="1.0"?>
<VTKFile type="UnstructuredGrid" version="0.1" byte_order="LittleEndian" header_type="UInt32" compressor="vtkZLibDataCompressor">
  <UnstructuredGrid>
    <Piece NumberOfPoints="24" NumberOfCells="15">
      <PointData>
        <DataArray type="Float64" Name="Velocity" NumberOfComponents="3" format="ascii" RangeMin="0" RangeMax="0.2372439933647518">
          0 0 0 -7.730399500191389e-17 -2.4569203371318052e-17 0
          0.11938482040590839 0.11426336457344899 0 -0.07495808044836748 0.16105501042262452 0
          0.13354393159602979 -0.08799187557441805 0 -0.09429156686825327 -0.027190193348835042 0
          -1.1612641432749093e-17 8.33072336143898e-17 0 0 0 0
          -0.15671298301770312 -0.041237782552730834 0 -0.03541455934696712 -0.23458585075386482 0
          0 0 0 1.4473190136476193e-17 1.6971947921956499e-16 0
          0 0 0 -0.15375052303187597 0.1650383997948573 0
          0 0 0 4.748193908456605e-18 1.1295883236134951e-18 0
          0 0 0 -0.12986327510472 -0.1307673034031655 0
          0 0 0 0.04254935664682857 -0.19177344196174434 0
          1.3857277486017627e-18 -5.0265231374199176e-17 0 7.600264909135584e-17 -1.5880181071388326e-17 0
          0 0 0 -1.3057440564277615e-17 -4.831555599651591e-17 0
          <InformationKey name="L2_NORM_RANGE" location="vtkDataArray" length="2">
            <Value index="0">
              0
            </Value>
            <Value index="1">
              0.23724399336
            </Value>
          </InformationKey>
        </DataArray>
        <DataArray type="Float64" Name="Pressure" format="ascii" RangeMin="61.38356061218432" RangeMax="63.858449001730705">
          62.0273001228925 61.989184727147645 61.728149666434966 62.11231903793549 62.007247824010726 62.71763373966701
          61.54025926708809 61.973486454234994 62.875935936061 63.03368881386754 61.81068824586971 63.02438358109462
          62.71343900482934 62.11896864626772 62.33973051214469 63.51512069020788 61.916915583640005 63.485802086562245
          62.09145552133249 62.11663343494801 62.30653882518685 61.38356061218432 63.858449001730705 63.5335835396192
        </DataArray>
        <DataArray type="Float64" Name="Temperature" format="ascii" RangeMin="236.9899312873131" RangeMax="959.6387921744274">
          959.6185399409245 843.4603762824011 609.7265502317164 496.60379752718615 633.3189593518387 539.2267064921283
          722.7888396098725 956.2176279883212 391.9144965166787 551.843918194018 239.317131759848 239.31728718620369
          236.9899312873131 399.3778768121338 959.6387921744274 311.0902176042643 956.2374611025073 415.99637365404755
          956.2011047734921 669.5736533329791 239.315461926024 780.6934734537961 273.9418130698733 239.31646331406034
        </DataArray>
        <DataArray type="Float64" Name="Density" format="ascii" RangeMin="0.31536401969897987" RangeMax="1.276997488101312">
          0.3153706752871115 0.3588023284426051 0.4963463487758402 0.6094104565171672 0.4778564457772264 0.5612399076595426
          0.4187053401689902 0.31649233197664667 0.7721978892054637 0.5484078685683736 1.2645795340004855 1.264578712710094
          1.276997488101312 0.7577674291196661 0.31536401969897987 0.9728224477446665 0.31648576767769954 0.7274956372838006
          0.316497800983916 0.45198245996202696 1.264588357658021 0.38764964387410406 1.104743900055919 1.2645830661555697
        </DataArray>
      </PointData>
      <CellData>
        <DataArray type="UInt8" Name="vtkGhostType" format="ascii" RangeMin="0" RangeMax="0">
          0 0 0 0 0 0
          0 0 0 0 0 0
          0 0 0
        </DataArray>
      </CellData>
      <Points>
        <DataArray type="Float32" Name="Points" NumberOfComponents="3" format="ascii" RangeMin="0" RangeMax="1.4142135623730951">
          0 1 0 0.25 1 0
          0.25 0.75 0 0.25 0.5 0
          0.5 0.75 0 0.5 0.5 0
          0.75 1 0 0 0.25 0
          0.5 0.25 0 0.75 0.5 0
          1 1 0 1 0.5 0
          0.25 0 0 0.25 0.25 0
          0 0 0 0.5 0 0
          0 0.5 0 0.75 0.25 0
          0 0.75 0 0.75 0.75 0
          1 0.75 0 0.5 1 0
          0.75 0 0 1 0.25 0
          <InformationKey name="L2_NORM_RANGE" location="vtkDataArray" length="2">
            <Value index="0">
              0
            </Value>
            <Value index="1">
              1.4142135624
            </Value>
          </InformationKey>
        </DataArray>
      </Points>
      <Cells>
        <DataArray type="Int64" Name="connectivity" format="ascii" RangeMin="0" RangeMax="23">
          12 13 7 14 15 8
          13 12 13 3 16 7
          8 5 3 13 17 9
          5 8 3 2 18 16
          5 4 2 3 9 19
          4 5 11 20 19 9
          2 1 0 18 4 21
          1 2 19 6 21 4
          20 10 6 19 22 17
          8 15 23 11 9 17
        </DataArray>
        <DataArray type="Int64" Name="offsets" format="ascii" RangeMin="4" RangeMax="60">
          4 8 12 16 20 24
          28 32 36 40 44 48
          52 56 60
        </DataArray>
        <DataArray type="UInt8" Name="types" format="ascii" RangeMin="9" RangeMax="9">
          9 9 9 9 9 9
          9 9 9 9 9 9
          9 9 9
        </DataArray>
      </Cells>
    </Piece>
  </UnstructuredGrid>
</VTKFile>
