<?xml version="1.0"?>
<VTKFile type="UnstructuredGrid" version="0.1" byte_order="LittleEndian" header_type="UInt32" compressor="vtkZLibDataCompressor">
  <UnstructuredGrid>
    <Piece NumberOfPoints="34" NumberOfCells="50">
      <PointData>
        <DataArray type="Float64" Name="nsi_BC" NumberOfComponents="3" format="ascii" RangeMin="0" RangeMax="0">
          0 0 0 0 0 0
          0 0 0 0 0 0
          0 0 0 0 0 0
          0 0 0 0 0 0
          0 0 0 0 0 0
          0 0 0 0 0 0
          0 0 0 0 0 0
          0 0 0 0 0 0
          0 0 0 0 0 0
          0 0 0 0 0 0
          0 0 0 0 0 0
          0 0 0 0 0 0
          0 0 0 0 0 0
          0 0 0 0 0 0
          0 0 0 0 0 0
          0 0 0 0 0 0
          0 0 0 0 0 0
          <InformationKey name="L2_NORM_RANGE" location="vtkDataArray" length="2">
            <Value index="0">
              0
            </Value>
            <Value index="1">
              0
            </Value>
          </InformationKey>
        </DataArray>
        <DataArray type="Float64" Name="nsi_FIXNO" NumberOfComponents="3" format="ascii" RangeMin="1" RangeMax="1.4142135623730951">
          1 1 0 1 0 0
          -1 -1 0 1 0 0
          -1 -1 0 -1 -1 0
          1 0 0 -1 -1 0
          1 0 0 -1 -1 0
          -1 -1 0 -1 -1 0
          1 0 0 -1 -1 0
          -1 -1 0 -1 -1 0
          -1 -1 0 -1 -1 0
          -1 -1 0 -1 -1 0
          1 1 0 1 1 0
          -1 -1 0 1 0 0
          1 0 0 1 0 0
          -1 -1 0 -1 -1 0
          1 0 0 1 0 0
          -1 -1 0 1 0 0
          1 0 0 1 1 0
          <InformationKey name="L2_NORM_RANGE" location="vtkDataArray" length="2">
            <Value index="0">
              1
            </Value>
            <Value index="1">
              1.4142135624
            </Value>
          </InformationKey>
        </DataArray>
        <DataArray type="Float64" Name="lev_BC" format="ascii" RangeMin="-1" RangeMax="1">
          -1 0 -1 -1 -1 0
          1 -1 -1 -1 1 0
          1 -1 -1 -1 1 0
          -1 -1 1 -1 -1 1
          -1 1 -1 0 -1 1
          -1 -1 0 -1
        </DataArray>
        <DataArray type="Float64" Name="lev_FIXNO" format="ascii" RangeMin="0" RangeMax="0">
          0 0 0 0 0 0
          0 0 0 0 0 0
          0 0 0 0 0 0
          0 0 0 0 0 0
          0 0 0 0 0 0
          0 0 0 0
        </DataArray>
        <DataArray type="Float64" Name="Velocity" NumberOfComponents="3" format="ascii" RangeMin="0" RangeMax="0.33745305357229605">
          0 0 0 -7.687162384684209e-19 -0.21592728452293336 0
          -0.230768413069882 -0.1132053872975503 0 -0.3249560129185292 -4.0544084970996826e-17 0
          -0.30525909089059755 0.020399085516970453 0 0.0008386859196289921 -0.20885400911455074 0
          3.382484603076021e-17 -0.3190694742997681 0 -0.15221777844334033 0.059047997348885 0
          -0.26079460865482157 1.0865739236330845e-17 0 -0.23579114064536946 0.09267041820402719 0
          0.14596252965098958 -0.20454166925387351 0 0.1526608059401318 -0.08780691372102695 0
          9.921265263215633e-18 -0.18327515847425102 0 -0.13357728067831431 0.18725847576909804 0
          -0.1409257758178546 0.16192773399337346 0 0.01964712738449487 0.14372820586019336 0
          0.24005183180106038 -0.1066196969511861 0 0.27147818634578097 0.027051810818145682 0
          -0.010590763999908364 0.27215413696460905 0 -0.05427208081058366 0.2824999720298591 0
          0 0 0 0 0 0
          0.12172411059887257 0.1729331376885006 0 0.17122219851288026 9.923304348558263e-18 0
          -1.1202382154865527e-17 0.22562304261128266 0 0.32627533396356745 1.0644375091934349e-17 0
          0.05399364849951946 0.27460275000242834 0 0.31308595156248503 0.05863422432053038 0
          2.883609434841287e-17 0.33745305357229605 0 0.3104236755510139 -1.1015354525439836e-17 0
          0.126734386229139 0.1650940349405248 0 -8.269124632001235e-18 0.26276245394202136 0
          0.23453906191960935 -7.026800156568754e-18 0 0 0 0
          <InformationKey name="L2_NORM_RANGE" location="vtkDataArray" length="2">
            <Value index="0">
              0
            </Value>
            <Value index="1">
              0.33745305357
            </Value>
          </InformationKey>
        </DataArray>
        <DataArray type="Float64" Name="Pressure" format="ascii" RangeMin="-0.17637601653785093" RangeMax="4.67817427110555">
          0 -0.17637601653785093 0.13843136875508666 0.2812075957529167 0.3378280762436944 0.16822539344906626
          0.9901717212796702 0.42567050645911 0.40837773968756963 0.4444639838578531 1.8052452289083287 0.38466546781179045
          2.6821736668068223 0.5359873389937169 0.48769413528887 0.5821367270283311 2.2485701158420532 0.5941172207470735
          0.6598613724810994 0.5965398591108564 4.67817427110555 0.45673232078602755 0.7217171856723504 4.217427689746687
          0.5438477559819942 3.587809279602012 0.8092283347938991 0.8716209486171624 0.6910740887097824 2.3927039582808614
          0.9476561202496341 0.876952557594493 1.0431265874813527 1.0861764140702261
        </DataArray>
        <DataArray type="Float64" Name="LEVEL" format="ascii" RangeMin="-0.8328296185571509" RangeMax="0.5808856424518574">
          -0.1645486580444578 -0.016040408101556478 -0.19909746424870411 -0.40849002174144466 -0.3206933018327956 -0.015989721669896248
          0.17582472117321463 -0.20385896006695448 -0.6263739259277501 -0.4299693431826078 0.19095062690677617 0.0030397670096975462
          0.37554515698973323 -0.3179722783134338 -0.5329863927049792 -0.1310420542433247 0.1811068520169266 0.0191204516814748
          -0.2462854619613467 -0.3993543837448105 0.5808856424518574 -0.8328296185571509 -0.08620968123132315 0.4210100976341833
          -0.5900793475154102 0.281895784289922 -0.16499012668040958 0.02564747545509144 -0.389890536199015 0.14687525682386432
          -0.08349087161722692 -0.22606152309783892 0.015971122223377446 -0.08601084835445805
        </DataArray>
      </PointData>
      <CellData>
        <DataArray type="UInt8" Name="vtkGhostType" format="ascii" RangeMin="0" RangeMax="0">
          0 0 0 0 0 0
          0 0 0 0 0 0
          0 0 0 0 0 0
          0 0 0 0 0 0
          0 0 0 0 0 0
          0 0 0 0 0 0
          0 0 0 0 0 0
          0 0 0 0 0 0
          0 0
        </DataArray>
      </CellData>
      <Points>
        <DataArray type="Float32" Name="Points" NumberOfComponents="3" format="ascii" RangeMin="0" RangeMax="1.4142135623730951">
          0 1 0 0 0.7799999713897705 0
          0.19571679830551147 0.840013325214386 0 0.3338231146335602 1 0
          0.4226129949092865 0.8073133826255798 0 0.21492919325828552 0.5873047709465027 0
          0 0.512727677822113 0 0.4972974956035614 0.6009321212768555 0
          0.6673728823661804 1 0 0.630643904209137 0.7812064290046692 0
          0.20702050626277924 0.32903969287872314 0 0.40350478887557983 0.41823700070381165 0
          0 0.25636380910873413 0 0.6898214221000671 0.5965974926948547 0
          0.8102678060531616 0.7724344730377197 0 0.6222723722457886 0.4149332046508789 0
          0.3845047950744629 0.20200540125370026 0 0.5769323110580444 0.2627502977848053 0
          0.7934312224388123 0.426090806722641 0 0.8737686276435852 0.5574696063995361 0
          0 0 0 1 1 0
          0.7134407162666321 0.28491899371147156 0 0.2561560869216919 0 0
          1 0.6993336081504822 0 0.47891008853912354 0 0
          0.8612840175628662 0.26164010167121887 0 0.7288737893104553 0.12652690708637238 0
          1 0.44098520278930664 0 0.6815431714057922 0 0
          0.8920316100120544 0.1200575977563858 0 1 0.21212109923362732 0
          0.8700000047683716 0 0 1 0 0
          <InformationKey name="L2_NORM_RANGE" location="vtkDataArray" length="2">
            <Value index="0">
              0
            </Value>
            <Value index="1">
              1.4142135624
            </Value>
          </InformationKey>
        </DataArray>
      </Points>
      <Cells>
        <DataArray type="Int64" Name="connectivity" format="ascii" RangeMin="0" RangeMax="33">
          29 32 27 29 27 25
          23 25 16 27 17 25
          17 11 16 16 11 10
          17 16 25 23 10 12
          10 11 5 16 10 23
          12 10 6 6 10 5
          6 5 1 20 23 12
          32 33 30 30 33 31
          32 30 27 30 31 26
          26 31 28 30 26 27
          27 26 22 22 26 18
          27 22 17 17 22 15
          18 26 28 22 18 15
          17 15 11 18 28 19
          19 28 24 18 13 15
          19 24 14 14 24 21
          19 14 13 13 14 9
          19 13 18 9 14 8
          13 9 7 15 13 7
          7 9 4 4 9 8
          7 4 5 0 1 2
          11 15 7 2 1 5
          0 2 3 3 2 4
          3 4 8 11 7 5
          4 2 5 8 14 21
        </DataArray>
        <DataArray type="Int64" Name="offsets" format="ascii" RangeMin="3" RangeMax="150">
          3 6 9 12 15 18
          21 24 27 30 33 36
          39 42 45 48 51 54
          57 60 63 66 69 72
          75 78 81 84 87 90
          93 96 99 102 105 108
          111 114 117 120 123 126
          129 132 135 138 141 144
          147 150
        </DataArray>
        <DataArray type="UInt8" Name="types" format="ascii" RangeMin="5" RangeMax="5">
          5 5 5 5 5 5
          5 5 5 5 5 5
          5 5 5 5 5 5
          5 5 5 5 5 5
          5 5 5 5 5 5
          5 5 5 5 5 5
          5 5 5 5 5 5
          5 5 5 5 5 5
          5 5
        </DataArray>
      </Cells>
    </Piece>
  </UnstructuredGrid>
</VTKFile>
