<?xml version="1.0"?>
<VTKFile type="UnstructuredGrid" version="0.1" byte_order="LittleEndian" header_type="UInt32" compressor="vtkZLibDataCompressor">
  <UnstructuredGrid>
    <Piece NumberOfPoints="34" NumberOfCells="50">
      <PointData>
        <DataArray type="Float64" Name="nsi_BC" NumberOfComponents="3" format="ascii" RangeMin="0" RangeMax="0">
          0 0 0 0 0 0
          0 0 0 0 0 0
          0 0 0 0 0 0
          0 0 0 0 0 0
          0 0 0 0 0 0
          0 0 0 0 0 0
          0 0 0 0 0 0
          0 0 0 0 0 0
          0 0 0 0 0 0
          0 0 0 0 0 0
          0 0 0 0 0 0
          0 0 0 0 0 0
          0 0 0 0 0 0
          0 0 0 0 0 0
          0 0 0 0 0 0
          0 0 0 0 0 0
          0 0 0 0 0 0
          <InformationKey name="L2_NORM_RANGE" location="vtkDataArray" length="2">
            <Value index="0">
              0
            </Value>
            <Value index="1">
              0
            </Value>
          </InformationKey>
        </DataArray>
        <DataArray type="Float64" Name="nsi_FIXNO" NumberOfComponents="3" format="ascii" RangeMin="1" RangeMax="1.4142135623730951">
          1 1 0 1 0 0
          -1 -1 0 1 0 0
          -1 -1 0 -1 -1 0
          1 0 0 -1 -1 0
          1 0 0 -1 -1 0
          -1 -1 0 -1 -1 0
          1 0 0 -1 -1 0
          -1 -1 0 -1 -1 0
          -1 -1 0 -1 -1 0
          -1 -1 0 -1 -1 0
          1 1 0 1 1 0
          -1 -1 0 1 0 0
          1 0 0 1 0 0
          -1 -1 0 -1 -1 0
          1 0 0 1 0 0
          -1 -1 0 1 0 0
          1 0 0 1 1 0
          <InformationKey name="L2_NORM_RANGE" location="vtkDataArray" length="2">
            <Value index="0">
              1
            </Value>
            <Value index="1">
              1.4142135624
            </Value>
          </InformationKey>
        </DataArray>
        <DataArray type="Float64" Name="lev_BC" format="ascii" RangeMin="-1" RangeMax="1">
          -1 0 -1 -1 -1 0
          1 -1 -1 -1 1 0
          1 -1 -1 -1 1 0
          -1 -1 1 -1 -1 1
          -1 1 -1 0 -1 1
          -1 -1 0 -1
        </DataArray>
        <DataArray type="Float64" Name="lev_FIXNO" format="ascii" RangeMin="0" RangeMax="0">
          0 0 0 0 0 0
          0 0 0 0 0 0
          0 0 0 0 0 0
          0 0 0 0 0 0
          0 0 0 0 0 0
          0 0 0 0
        </DataArray>
        <DataArray type="Float64" Name="Velocity" NumberOfComponents="3" format="ascii" RangeMin="0" RangeMax="0.8554649750731825">
          0 0 0 -1.568531716032724e-18 -0.44059013870429165 0
          -0.40367295323977065 -0.22936969705637525 0 -0.5824562188897721 -7.267184939419193e-17 0
          -0.6002816509789163 -0.010094333562535281 0 -0.23673419852503466 -0.4971512753891583 0
          8.927732530928218e-17 -0.842152222287051 0 -0.39691118991668917 0.06660076681269651 0
          -0.5410566969605319 2.254257099702866e-17 0 -0.49724982776135346 0.169341559127189 0
          0.3097139232591061 -0.5622838305512855 0 0.1179333921059218 -0.23744387765847338 0
          2.8886616595618943e-17 -0.5336213773031466 0 -0.3342499306526781 0.3886391124175915 0
          -0.31608760815640874 0.3499392353871784 0 -0.02217186229988947 0.274990432762783 0
          0.6082830791519463 -0.2589273526930086 0 0.547372195382935 0.009884616536706387 0
          -0.06400157382938033 0.6239862732990191 0 -0.14897414769787357 0.6495814160970946 0
          0 0 0 0 0 0
          0.27157695839110485 0.3540009040039451 0 0.5335706470026347 3.092346651106684e-17 0
          -2.5498463649457657e-17 0.5135551413058258 0 0.8554649750731825 2.7908607010139495e-17 0
          0.11477686433576754 0.6693232784201251 0 0.720597787587383 0.10676746701700024 0
          7.048057688307948e-17 0.8247956744544779 0 0.7749481869089602 -2.7498962514688025e-17 0
          0.32510621903337145 0.40266603803410755 0 -2.149277581609231e-17 0.6829615910741667 0
          0.5348894899149614 -1.6025311607879274e-17 0 0 0 0
          <InformationKey name="L2_NORM_RANGE" location="vtkDataArray" length="2">
            <Value index="0">
              0
            </Value>
            <Value index="1">
              0.85546497507
            </Value>
          </InformationKey>
        </DataArray>
        <DataArray type="Float64" Name="Pressure" format="ascii" RangeMin="-0.14379875357534389" RangeMax="5.159591677523513">
          0 -0.14379875357534389 0.18558767226992515 0.35157725456326505 0.42304193169056314 0.2013521591731397
          0.658693443634143 0.540860007322899 0.5517684321530282 0.6016525268231192 1.7589565430647338 0.5316530265072474
          2.805693939706781 0.7494650650669347 0.6990416088415928 0.8401413069135544 2.5344796771052587 1.3927285332686679
          1.016816910102214 0.9047627057034484 5.159591677523513 0.6706727288402002 1.1540326376871144 4.686976577734005
          0.830299635027844 4.11415299474833 1.3958958085877764 2.1495477526668236 1.1328906100323877 3.4003187805765975
          1.8532662392832142 1.6130111335477872 2.6880733118144753 2.263582430060269
        </DataArray>
        <DataArray type="Float64" Name="LEVEL" format="ascii" RangeMin="-0.8317891204878203" RangeMax="0.5777039859529418">
          -0.17802805152525567 -0.07697011764970432 -0.2785800765681479 -0.4857586560055849 -0.38293182469059933 -0.11051307486731138
          0.07630337092479836 -0.22359657590513704 -0.6802975137159852 -0.44473721680049183 0.1274455645973947 -0.021663819418210134
          0.2912234726508883 -0.28119477977789564 -0.5020395693760322 -0.08637461478098063 0.1937186432821335 0.06485075088851519
          -0.15916568276793586 -0.31262674153098896 0.5777039859529418 -0.8317891204878203 -0.0067561463123244 0.4663807592241992
          -0.5071767706304451 0.36295291730304813 -0.06290016720944627 0.12329832206125596 -0.28625421892504327 0.24156150094686374
          0.004500388060297893 -0.1580859640846383 0.09503804191041926 -0.07083670772613027
        </DataArray>
      </PointData>
      <CellData>
        <DataArray type="UInt8" Name="vtkGhostType" format="ascii" RangeMin="0" RangeMax="0">
          0 0 0 0 0 0
          0 0 0 0 0 0
          0 0 0 0 0 0
          0 0 0 0 0 0
          0 0 0 0 0 0
          0 0 0 0 0 0
          0 0 0 0 0 0
          0 0 0 0 0 0
          0 0
        </DataArray>
      </CellData>
      <Points>
        <DataArray type="Float32" Name="Points" NumberOfComponents="3" format="ascii" RangeMin="0" RangeMax="1.4142135623730951">
          0 1 0 0 0.7799999713897705 0
          0.19571679830551147 0.840013325214386 0 0.3338231146335602 1 0
          0.4226129949092865 0.8073133826255798 0 0.21492919325828552 0.5873047709465027 0
          0 0.512727677822113 0 0.4972974956035614 0.6009321212768555 0
          0.6673728823661804 1 0 0.630643904209137 0.7812064290046692 0
          0.20702050626277924 0.32903969287872314 0 0.40350478887557983 0.41823700070381165 0
          0 0.25636380910873413 0 0.6898214221000671 0.5965974926948547 0
          0.8102678060531616 0.7724344730377197 0 0.6222723722457886 0.4149332046508789 0
          0.3845047950744629 0.20200540125370026 0 0.5769323110580444 0.2627502977848053 0
          0.7934312224388123 0.426090806722641 0 0.8737686276435852 0.5574696063995361 0
          0 0 0 1 1 0
          0.7134407162666321 0.28491899371147156 0 0.2561560869216919 0 0
          1 0.6993336081504822 0 0.47891008853912354 0 0
          0.8612840175628662 0.26164010167121887 0 0.7288737893104553 0.12652690708637238 0
          1 0.44098520278930664 0 0.6815431714057922 0 0
          0.8920316100120544 0.1200575977563858 0 1 0.21212109923362732 0
          0.8700000047683716 0 0 1 0 0
          <InformationKey name="L2_NORM_RANGE" location="vtkDataArray" length="2">
            <Value index="0">
              0
            </Value>
            <Value index="1">
              1.4142135624
            </Value>
          </InformationKey>
        </DataArray>
      </Points>
      <Cells>
        <DataArray type="Int64" Name="connectivity" format="ascii" RangeMin="0" RangeMax="33">
          29 32 27 29 27 25
          23 25 16 27 17 25
          17 11 16 16 11 10
          17 16 25 23 10 12
          10 11 5 16 10 23
          12 10 6 6 10 5
          6 5 1 20 23 12
          32 33 30 30 33 31
          32 30 27 30 31 26
          26 31 28 30 26 27
          27 26 22 22 26 18
          27 22 17 17 22 15
          18 26 28 22 18 15
          17 15 11 18 28 19
          19 28 24 18 13 15
          19 24 14 14 24 21
          19 14 13 13 14 9
          19 13 18 9 14 8
          13 9 7 15 13 7
          7 9 4 4 9 8
          7 4 5 0 1 2
          11 15 7 2 1 5
          0 2 3 3 2 4
          3 4 8 11 7 5
          4 2 5 8 14 21
        </DataArray>
        <DataArray type="Int64" Name="offsets" format="ascii" RangeMin="3" RangeMax="150">
          3 6 9 12 15 18
          21 24 27 30 33 36
          39 42 45 48 51 54
          57 60 63 66 69 72
          75 78 81 84 87 90
          93 96 99 102 105 108
          111 114 117 120 123 126
          129 132 135 138 141 144
          147 150
        </DataArray>
        <DataArray type="UInt8" Name="types" format="ascii" RangeMin="5" RangeMax="5">
          5 5 5 5 5 5
          5 5 5 5 5 5
          5 5 5 5 5 5
          5 5 5 5 5 5
          5 5 5 5 5 5
          5 5 5 5 5 5
          5 5 5 5 5 5
          5 5 5 5 5 5
          5 5
        </DataArray>
      </Cells>
    </Piece>
  </UnstructuredGrid>
</VTKFile>
