<?xml version="1.0"?>
<VTKFile type="UnstructuredGrid" version="0.1" byte_order="LittleEndian" header_type="UInt32" compressor="vtkZLibDataCompressor">
  <UnstructuredGrid>
    <Piece NumberOfPoints="162" NumberOfCells="295">
      <PointData>
        <DataArray type="Float64" Name="Velocity" NumberOfComponents="3" format="ascii" RangeMin="0" RangeMax="2.218782495516633">
          2.218411849195496 0 0 2.153470713268957 0.0003152052601702593 0
          2.1499189526207103 0.0028652757416283148 0 2.0771700371376838 0 0
          2.205318059890615 -0.00044544736175721605 0 2.092134072965815 -0.005255009716290893 0
          2.1146800970864232 -0.0005511365810755842 0 2.0321436109813193 0.0017780110436967922 0
          2.1389137624733996 -0.0013055216921066537 0 2.0572490068473432 0.00009660030284383558 0
          2.023187627397812 -0.0004389907242452473 0 2.0810595308788704 -0.0005686118275347943 0
          2.1605490541270114 0.0018789221432441716 0 2.000153536715085 -0.00007053168505845309 0
          1.978494691792375 -0.005301507896112704 0 2.104600823281373 -0.0004535991944540074 0
          2.0237374757085558 0.0004200281015557805 0 1.9472615890350866 0 0
          2.201756998183111 0.0004968132239652045 0 2.0470135447827755 0.0008313270933002215 0
          1.9418285584926114 -0.00005136405302846869 0 2.128528359512634 -0.0026926442292583286 0
          1.9656400646939458 0.00026321357653519284 0 1.9132400485468466 0.0019492072014376527 0
          2.070631069895352 0.000059129408288061125 0 1.9892032160402482 0.00039567229564452244 0
          1.9016670038715588 0.0006487387728268956 0 2.013694467874898 0.0009472185454025839 0
          2.1603956771075272 -0.0008731167605465773 0 1.9088563651455237 -0.0006209264764834854 0
          1.8842902385086404 -0.00047395419608872724 0 2.092714063037801 0.006845041093962778 0
          1.932184335185843 0.00027549488335770755 0 1.8640454306313305 -0.0055484425740017 0
          2.0323276637260106 -0.000028571430846557888 0 1.956069781088786 -0.000726496382915498 0
          1.8231175882759958 0 0 1.8511133282718983 -0.00010219150987655912 0
          1.9807503435498868 0.005389283570067294 0 1.874641470784459 0.0003739465903465078 0
          1.826909735141962 -0.0008952937076490697 0 2.218782495516633 0 0
          1.8988682903438896 0.0012255468588926732 0 1.8008149976746353 -0.0031248516096825663 0
          2.0219743655368108 -0.002073754467868616 0 2.0791091383284934 0 0
          1.9185750827146535 0.0010000953723616757 0 1.8173375134750014 0.0002373932874459861 0
          1.7945307408581481 -0.00024762494303331994 0 1.8419200916020158 -0.0005612045771365981 0
          1.766255139247372 0.001348480345981562 0 1.7696777773217196 -0.0005584773011344524 0
          1.8664079129235605 -0.000155530616007038 0 1.9452998610547323 0 0
          1.8961646900036193 -0.001178671653600638 0 1.7602938935777814 0.0006517558126720724 0
          1.7846003113547209 0.001027755390077198 0 1.7372905262622282 -0.00010658019196918556 0
          1.8068363792691349 0.00004849661945000028 0 1.7129551778168945 -0.0053029645767193045 0
          1.6932432076151764 0 0 1.8271057340294492 0.008546691823515362 0
          1.7267671727895273 0.00011543996618337826 0 1.702844913222597 0.00022381823799066947 0
          1.7512367391696895 0.0008415094837885828 0 1.6798414533582129 -0.0005923842455481942 0
          1.816193743919774 0 0 1.771077897396414 -0.0007911520241110637 0
          1.651980623339945 0.00006005126891150958 0 1.6398102657092668 -0.00020793967826460147 0
          1.7684328763923443 -0.0027607296404643655 0 1.6699276244659647 0.0005477728632059531 0
          1.693133568149678 -0.0006973574216266876 0 1.645688123703664 0.000016233535662601994 0
          1.7178620689892892 0.006997866749353487 0 1.623072672634052 -0.00032384593812240237 0
          1.6005013698031618 -0.005055848796460816 0 1.6125425265258784 -0.0006629888683542529 0
          1.635995711703428 0.00043594193456675256 0 1.5640930605951322 0 0
          1.6554829141545593 -0.0007131271977267595 0 1.5884169320342139 -0.0003405952618104613 0
          1.68658168897048 0 0 1.5662123832280432 -0.00003979617326277385 0
          1.538849924876363 0.00006500034730272386 0 1.6423105417634698 -0.0033536332803274504 0
          1.5791543417521616 -0.001444323502568734 0 1.6059559771201233 0.005567437685342402 0
          1.5558935256106121 -0.00018596541826787494 0 1.5317907446247485 -0.0003871504956509675 0
          1.5200551501999495 0.001845006384677994 0 1.508332969502117 -0.0010822577693889168 0
          1.4905247345688775 -0.003778367500133495 0 1.5401913121580701 0.0011258954714299385 0
          1.5207704055575295 0.0003984519887443305 0 1.498457549045801 -0.0010914242213063141 0
          1.5606288238937829 0 0 1.4745162624455599 -0.001997326012323636 0
          1.4482708363261896 0.00020673297264794943 0 1.4397088039320183 0 0
          1.5181718660082097 -0.0044081131869262435 0 1.4203285446122411 -0.0030508443859229573 0
          1.4934349024726785 0.0030478515944434292 0 1.4648892984307285 -0.002059012990798248 0
          1.440860900703406 -0.0014405237978503127 0 1.4178212508364254 0.002054004471721438 0
          1.3854038192658198 -0.0013681355294383746 0 1.425593858928222 0.0024639812279714235 0
          1.4068872038561295 -0.0037839378866904028 0 1.375889990437292 0.0009246315380178061 0
          1.388165610761245 0.00006126047083621078 0 1.4287706252737031 0 0
          1.3540344937561901 -0.016782369529568797 0 1.3756826780513975 -0.004921677880052044 0
          1.3076922255952397 -0.00960168062443012 0 1.346878473114412 0.012170849645389503 0
          1.325954572719029 0 0 1.381479558913453 -0.0051606645785389205 0
          1.3073632917913152 -0.015052622725939074 0 1.2913641419148298 -0.027426827526271347 0
          1.3475983534328186 0.05815143258778921 0 1.3414787526639103 0.002409887104421582 0
          1.2953217869491702 0.011890037835346146 0 1.2396803552228448 0.04349027376775361 0
          1.3388925101834523 -0.0908793138233217 0 1.3070267071970925 -0.035521525585878067 0
          1.3119087654112036 0.02436166079543367 0 1.1741617368795705 -0.006617657387223197 0
          1.5593213887815978 -0.36527095869968207 0 1.32474921430358 0 0
          1.2276255416495871 -0.038383871844568596 0 1.2899011164465222 0.021076697695534996 0
          1.4050659604432134 0.32912138188053275 0 1.589359387814003 -0.1729102113633565 0
          0 0 0 0 0 0
          1.2256616873014927 0 0 1.2955244734043525 0.039131642396585065 0
          1.102687569231854 -0.043936590582267954 0 1.6175896913529435 0.09292088117056041 0
          0 0 0 1.1403489747710367 0.05479042504060527 0
          1.4933286504501737 0.30492620883402033 0 0 0 0
          0 0 0 1.433498210564693 -0.25411614109659164 0
          1.021360027935284 0.007502353160380615 0 1.1452560151195392 0.140136712847994 0
          1.1016619933113176 0.01877058568873735 0 1.0882307829417943 0.21641126401908117 0
          1.17871274561832 0 0 0.7080333262635534 -0.0374656423531091 0
          1.1382036065194505 0.07464041962943169 0 1.0366245029804624 -0.1952168347665646 0
          1.0223513256053849 0.0056484922361379475 0 0.9681487819169092 0.02393986346118293 0
          1.1371139067817282 -0.14461542356021617 0 1 0 0
          1 0 0 1.1174679837207009 -0.04897262019913429 0
          1 0 0 1 0 0
          <InformationKey name="L2_NORM_RANGE" location="vtkDataArray" length="2">
            <Value index="0">
              0
            </Value>
            <Value index="1">
              2.2187824955
            </Value>
          </InformationKey>
        </DataArray>
        <DataArray type="Float64" Name="Pressure" format="ascii" RangeMin="0.0027901020021232625" RangeMax="264.8284306397897">
          0.10186849002992471 20.41159878371178 18.435165741721875 39.38332692997386 0.023663521482297334 35.808174032938275
          28.730173177202445 52.70384256921697 21.509738877730285 45.79652574741127 59.419946956926275 38.804975322868856
          14.251388503242909 62.41820023593596 69.13060999529252 31.733221233631358 55.6195878187023 76.27581878479047
          0.0027901020021232625 48.744557441619044 78.85459341842424 24.599540386989403 72.08164026452353 85.59006795704641
          41.79336585252724 65.41560394639 93.4036221022659 58.52560505424118 17.341828806437 87.9456903282145
          94.54675489267397 34.76344514113865 81.49041506535272 100.78216709436313 51.683208564568126 74.77758744984168
          110.8261174917072 103.2978833163684 68.12915486283167 97.05318921413118 109.71968335906072 0.0891578921941596
          90.52793708755587 115.81902166654282 58.92993715071455 39.406058519259766 84.10027070434082 112.19130421351457
          118.21775674143082 105.84237651162749 124.47091817183147 126.63963048189794 99.61882749677525 76.26718256685056
          93.09326779540208 126.79974569371917 120.63678725934582 132.61214344616133 114.63863947092001 138.6825558371083
          143.0037891861789 108.32983180729344 135.0081015143351 141.00070225904676 129.21513496551168 146.5867132531322
          110.8177224397933 123.0775798972003 152.50574379203627 158.62229369452095 128.5817087344584 148.83808051414357
          143.2726809583537 154.65239750061218 137.28995896215696 160.01925029832367 165.84710332660774 162.26526717089075
          156.91101991886694 172.86924414117334 151.13899560355856 167.9175592552912 143.00063276897808 173.0550238538769
          178.18004662304813 157.87921487730975 170.00962295605925 164.350114889956 175.12893698025923 180.6152210786308
          185.5581877459995 185.6350697174491 190.55409242581914 177.2825702642834 182.7073530616274 187.6125178103578
          172.84616475680522 192.94805746549622 198.35516383202764 200.39366734700613 185.05704231866534 202.79966504842565
          189.49923462114432 194.84240454101226 199.5000333107977 204.82235931855323 211.54219008577303 201.49809179859045
          206.58746904411086 215.55318496841602 211.03581733390922 200.35063250202086 217.313152553931 212.69387157957274
          222.70634438393412 217.76416480024196 225.54540121742824 212.1768012014977 221.8726850328568 229.37000311857076
          228.13993014564693 221.06658230614124 223.76559594928045 232.70337482683982 228.4449934542149 235.65798711708447
          232.19512743998533 238.46348135485908 237.24260465435123 225.40315090254077 233.50908496335634 230.91741342786213
          237.43938698938908 242.4149427870016 239.00586342118729 245.4026076858184 249.17854026779057 236.7149124274743
          249.65793028920646 243.01075089077423 244.5826909221272 241.50015658494135 250.97675977945585 255.04011907339276
          254.39756598162327 251.41536816549686 256.915297194217 256.82725906083 250.5297826404753 259.13398452153984
          249.01654884731053 259.1913859520253 261.231383591363 259.4262349867142 257.5626700379228 262.69129181061004
          256.31459195095283 264.1807385826525 264.8284306397897 261.6595590418925 264.777244249129 264.348327624366
        </DataArray>
        <DataArray type="Float64" Name="Temperature" format="ascii" RangeMin="287.16558079069415" RangeMax="600.0000000000001">
          300 298.9483996510292 298.97569719449865 300.00000000000006 298.91215651284824 298.8621036474392
          299.0914505627013 298.9264787667091 299.04815998943127 299.10211421005 299.04723781099995 299.0618785290758
          299.0579146549581 299.1105725420126 298.877479011726 299.0649727560624 299.0628179252204 300
          298.92103784171144 299.0602271972861 299.09956633913646 299.0746601528271 299.06300954781045 298.94654905238497
          299.10679671164684 299.0562972079533 299.00652994906346 299.11919947592827 298.9233417201136 299.06145633792147
          299.1075872457223 298.9173564292743 299.06130320902616 298.8915957684626 298.91789046772334 299.12008688706374
          300 299.0601609971235 298.8590864297435 299.0672847132251 299.1043206616387 299.99999999999994
          299.0900176035827 298.92813053345236 298.91830338787463 300.00000000000006 298.90670901306123 299.07311470398116
          299.05437209985996 299.0664067140862 299.127124547253 298.8338359651349 299.0717243244835 300.00000000000006
          298.941955704369 299.0683649985052 299.0601188807921 299.0977336047925 299.09988997615443 298.86632277867807
          300 298.948031214088 299.05792789164 299.0646418922356 299.1136783266269 299.1052372976208
          300.00000000000006 298.93834394941234 298.93084446914594 299.0157154678692 298.89388388637263 299.05902981501833
          299.11051773262085 299.0624385084106 298.8869377489071 299.11664565577325 298.8552528465375 299.05800566466695
          299.11809383483603 300.00000000000006 298.9435154725038 299.0640143858091 300 299.10104374457734
          298.9653257451411 298.8855641710884 299.11387444011683 298.8660691093762 299.0581113826767 299.06409202324846
          298.97945391510973 299.11478526359554 298.8554955418283 298.9375721584549 299.122621309481 299.0564384122229
          300.00000000000006 299.05455172069907 299.10847537868403 300 298.91049887679986 299.132404781867
          298.85063434149396 299.1100988138817 299.08888134896875 299.08956953118405 298.83635558755145 298.92581149248
          299.1475199055738 298.0142444803116 298.7239702903793 300.00000000000006 299.6447364064401 298.71942494446114
          301.8749547605207 299.62339442167007 300.00000000000006 299.05349369204544 300.1917247616622 301.0249167525813
          288.99777047284977 298.2303922779778 301.83139914368064 287.16558079069415 289.59521885135916 298.80424533841364
          317.6935981747267 300.47552839072 365.70444388298387 299.99999999999994 289.6762338966386 300.51529430882334
          356.5092432085446 295.87125091390214 600.0000000000001 600.0000000000001 299.99999999999994 298.3755327997416
          297.35466928927667 288.12870753847886 599.9999999999999 301.26650591603743 308.3706537417057 600
          600 298.95230191002514 299.798288840582 298.6666168588486 298.9431814585476 292.1812778439497
          299.99999999999994 308.7373934490162 298.6307073382418 293.91200095471163 299.6909404255909 299.59212877756636
          298.87015174936204 300.00000000000006 300 298.6734461454115 300 299.99999999999994
        </DataArray>
        <DataArray type="Float64" Name="Density" format="ascii" RangeMin="0.581322201025809" RangeMax="1.214606986168408">
          1.1626444020516182 1.1667341956760486 1.1666276686983623 1.162644402051618 1.1668756623502972 1.1670710885008995
          1.1661761643780744 1.1668197546584484 1.1663449814498517 1.1661345876363112 1.1663485781330822 1.1662914789775676
          1.1663069376308273 1.1661016113581024 1.1670110500423523 1.166279412132911 1.1662878155006886 1.1626444020516182
          1.1668409929721408 1.1662979189318647 1.166144521319711 1.1662416349056524 1.1662870682097004 1.1667414182271285
          1.1661163318590142 1.1663132456058825 1.1665073691698415 1.1660679796769606 1.1668319998311334 1.1662931254550235
          1.166113249841922 1.166855363576093 1.1662937226341836 1.166955931693976 1.1668532789045212 1.1660645202579674
          1.1626444020516182 1.1662981771043732 1.1670828710020855 1.1662703961415992 1.1661259852212478 1.1626444020516185
          1.1661817516015534 1.1668133072422664 1.1668516670352345 1.162644402051618 1.1668969283665171 1.1662476614145565
          1.1663207535351354 1.1662738200781582 1.1660370858824831 1.1671814856205889 1.1662530832806366 1.162644402051618
          1.1667593456183036 1.1662661833765962 1.1662983413529553 1.166151666920878 1.1661432595086973 1.1670546128202617
          1.1626444020516182 1.16673563361152 1.1663068860086079 1.166280702421415 1.166089503384761 1.1661224115190707
          1.162644402051618 1.1667734423340146 1.166802713968468 1.1664715350152395 1.1669469983135639 1.166302588593396
          1.166101825036045 1.1662892951555877 1.1669741181814524 1.1660779354181467 1.1670978418257592 1.1663065826988315
          1.1660722898564557 1.162644402051618 1.1667532579329916 1.1662831495517973 1.1626444020516182 1.1661387611650855
          1.1666681403475572 1.166979481203143 1.1660887388402124 1.1670556033841277 1.1663061704056816 1.1662828467831277
          1.1666130098509029 1.1660851880260972 1.167096894046132 1.1667764546860107 1.1660546403630694 1.1663126949124722
          1.162644402051618 1.166320053009057 1.1661097873401893 1.1626444020516182 1.1668821333681074 1.1660165031930663
          1.1671158784187905 1.166103458220308 1.1661861819882329 1.1661834986830564 1.1671716445936173 1.166822359280473
          1.1659575874992458 1.1703914395894877 1.1676107554289514 1.162644402051618 1.1640228518560725 1.167628521915956
          1.1554231814036555 1.1641057644671662 1.162644402051618 1.166324179361236 1.1619018508668437 1.1586858801531237
          1.2069066140019002 1.1695431775121647 1.1555899141210606 1.214606986168408 1.2044167096367395 1.167297071768362
          1.097892191153485 1.160804417196784 0.9537574028689968 1.1626444020516185 1.2040798650397424 1.1606508128569637
          0.9783570195161936 1.178868577254853 0.581322201025809 0.581322201025809 1.1626444020516185 1.1689742699163685
          1.1729875352189865 1.2105469239607267 0.5813222010258092 1.1577567162832687 1.1310846748330279 0.5813222010258091
          0.5813222010258091 1.166718966159561 1.1634266558504496 1.1678349736031162 1.1667545615649049 1.1937565719107146
          1.1626444020516185 1.1297410939406791 1.1679754025443452 1.1867270457909285 1.1638433918628448 1.1642272513589593
          1.1670396611167444 1.162644402051618 1.1626444020516182 1.1678082705942086 1.1626444020516182 1.1626444020516185
        </DataArray>
        <DataArray type="Float64" Name="stream" format="ascii" RangeMin="-5.128856825094998" RangeMax="0.01425701087290715">
          0.01425701087290715 -0.48999473123013126 -1.046809613203559 0.0028267824625460513 -1.7020500846271662 -0.9620017924474861
          -1.634412780857618 -0.8749916514160859 -2.3282496019693992 -1.5439693205609293 -0.4160417703134782 -2.225750526622934
          -3.043771400055195 -1.4392160213439633 -0.7793800168031795 -2.9096915129577696 -2.1116344388843182 -0.0049126062354704295
          -3.4284014822459534 -2.798867325186119 -1.3227970188694325 -3.6086876866293296 -1.9712932240654342 -0.6960827972575491
          -3.4689366238601456 -2.6262661194322163 -0.33033377497551153 -3.3044642384102936 -4.308293887255877 -1.8598507359516345
          -1.2373094867680965 -4.168069295077817 -2.5076924778968364 -0.61758848742226 -4.016957060937496 -3.1834804859478183
          -0.00870675262798568 -1.7408193951338429 -3.8777078075521545 -2.352319822575817 -1.121076402534408 -5.128856825094998
          -3.012758739084633 -0.5301180508299284 -4.443771624963259 -5.002225925524837 -3.7133346415938253 -2.24283293337967
          -1.6204950166802643 -2.8565942099607953 -1.0335385199845732 -0.5047076447584119 -3.547621616650991 -4.868462985013825
          -4.271425248693947 -2.0856283228609658 -2.694563522845241 -1.5203796192303936 -3.3711733023022705 -0.9351932948072901
          -0.017436575947667753 -4.108471178171635 -2.543473211005916 -1.9718613993454284 -3.230819200062649 -1.4103412915918254
          -4.726552593589295 -3.94743499844278 -0.8781189315540692 -0.4355290223348056 -4.315616111930455 -2.419718535288681
          -3.0557788751073414 -1.8642312081413992 -3.808664214771729 -1.3522335944155925 -0.8226121132572857 -2.3021229556980565
          -2.946024808350994 -0.03288750526297801 -3.6255312033756124 -1.796847978895146 -4.551926959498618 -1.2576254686493482
          -0.7334612889741822 -4.073597709325502 -2.8205533266908875 -3.499758514497722 -2.206763613479841 -1.6837987399097223
          -0.3643657788242644 -1.1763066332270997 -0.6588060740285622 -3.337297072601133 -2.652526832238729 -2.109224115051794
          -4.3356821726007 -1.632127549505513 -1.1076971656847643 -0.043116105808059094 -3.802761375803341 -0.5787155287981987
          -3.197650986860103 -2.5791416864439793 -2.0600065685404787 -1.5190195267652251 -0.9160860959153029 -3.052482455614556
          -2.4132829735068664 -0.48082273691636074 -1.8403781780747483 -4.070473912361722 -1.3118850794593973 -2.7893167543007635
          -0.8645449359105318 -2.108388321767604 -0.041734442632302554 -3.4781353184990698 -1.6846611274523389 -0.5090295059531028
          -1.2263840295905288 -3.149282016640716 -2.5004095795967927 -0.9062928247208079 -1.891260070691123 -0.28835188681626944
          -1.4714195290146164 -0.5278412767495407 -1.2122521384738725 -3.75433070969831 -2.2074908173334813 -2.9222296954161497
          -1.5242231916703328 -0.937183549424304 -1.3572721214638552 -1.2343561712453592 -0.0497092518496431 -3.2872626138668
          -0.6113995552229133 -1.976884482818045 -1.4290996513723588 -2.73855274472649 -1.0435866342877302 -1.2490151555707187
          -1.3939485542586656 -1.7126040938181912 -0.6697489981999986 -0.37518042433763876 -2.4215137720054187 -1.0206004043603278
          -3.3245223996790627 -1.3069869859838348 -0.4667630489574556 -1.5545402676954891 -2.1355611733716557 -1.2975589532702623
          -2.734094585909718 -0.044715916512737576 -0.8916954346498119 -2.2773081922938303 -1.699410453250643 -2.88861381463822
        </DataArray>
      </PointData>
      <CellData>
        <DataArray type="UInt8" Name="vtkGhostType" format="ascii" RangeMin="0" RangeMax="0">
          0 0 0 0 0 0
          0 0 0 0 0 0
          0 0 0 0 0 0
          0 0 0 0 0 0
          0 0 0 0 0 0
          0 0 0 0 0 0
          0 0 0 0 0 0
          0 0 0 0 0 0
          0 0 0 0 0 0
          0 0 0 0 0 0
          0 0 0 0 0 0
          0 0 0 0 0 0
          0 0 0 0 0 0
          0 0 0 0 0 0
          0 0 0 0 0 0
          0 0 0 0 0 0
          0 0 0 0 0 0
          0 0 0 0 0 0
          0 0 0 0 0 0
          0 0 0 0 0 0
          0 0 0 0 0 0
          0 0 0 0 0 0
          0 0 0 0 0 0
          0 0 0 0 0 0
          0 0 0 0 0 0
          0 0 0 0 0 0
          0 0 0 0 0 0
          0 0 0 0 0 0
          0 0 0 0 0 0
          0 0 0 0 0 0
          0 0 0 0 0 0
          0 0 0 0 0 0
          0 0 0 0 0 0
          0 0 0 0 0 0
          0 0 0 0 0 0
          0 0 0 0 0 0
          0 0 0 0 0 0
          0 0 0 0 0 0
          0 0 0 0 0 0
          0 0 0 0 0 0
          0 0 0 0 0 0
          0 0 0 0 0 0
          0 0 0 0 0 0
          0 0 0 0 0 0
          0 0 0 0 0 0
          0 0 0 0 0 0
          0 0 0 0 0 0
          0 0 0 0 0 0
          0 0 0 0 0 0
          0
        </DataArray>
      </CellData>
      <Points>
        <DataArray type="Float32" Name="Points" NumberOfComponents="3" format="ascii" RangeMin="0.22994902639587697" RangeMax="7.102112369882704">
          7 1.2000000476837158 0 6.599672794342041 0.9660372734069824 0
          6.6399030685424805 0.7036619186401367 0 6.222221851348877 1.2000000476837158 0
          7 0.4000000059604645 0 6.291684150695801 0.7389311790466309 0
          6.435248851776123 0.4197305142879486 0 5.9434661865234375 0.7742003798484802 0
          6.57881498336792 0.10052960366010666 0 6.08703088760376 0.45499980449676514 0
          5.801344871520996 0.9959174990653992 0 6.23059606552124 0.1357990950345993 0
          6.722381114959717 -0.21868319809436798 0 5.7388129234313965 0.49026909470558167 0
          5.5952467918396 0.8094696998596191 0 6.3741607666015625 -0.18340149521827698 0
          5.882378101348877 0.17106840014457703 0 5.444444179534912 1.2000000476837158 0
          7 -0.4000000059604645 0 6.025942802429199 -0.14813220500946045 0
          5.384244918823242 0.5261802077293396 0 6.51772403717041 -0.5026149749755859 0
          5.531583786010742 0.20377269387245178 0 5.236144065856934 0.8432719111442566 0
          6.169507026672363 -0.4673318862915039 0 5.674856185913086 -0.1111351028084755 0
          5.060293197631836 1.0298899412155151 0 5.821293830871582 -0.43206480145454407 0
          6.6612749099731445 -0.8218216896057129 0 5.183467864990234 0.23962560296058655 0
          5.035661220550537 0.5564131140708923 0 6.313057899475098 -0.7865372896194458 0
          5.326355934143066 -0.07969167828559875 0 4.893916130065918 0.8762899041175842 0
          5.964842796325684 -0.7512490749359131 0 5.473134994506836 -0.3970530033111572 0
          4.6666669845581055 1.2000000476837158 0 4.836434841156006 0.26916739344596863 0
          5.616653919219971 -0.7159011960029602 0 4.978854179382324 -0.04412427172064781 0
          4.688116073608398 0.5933424234390259 0 7 -1.2000000476837158 0
          5.12586784362793 -0.3661642074584961 0 4.545888900756836 0.9131073951721191 0
          5.81204080581665 -0.966787576675415 0 6.222221851348877 -1.2000000476837158 0
          5.268884181976318 -0.6795946955680847 0 4.630309104919434 -0.01361996028572321 0
          4.488448143005371 0.30607008934020996 0 4.777815818786621 -0.33047690987586975 0
          4.339453220367432 0.6220952272415161 0 4.286639213562012 0.9191486239433289 0
          4.920590877532959 -0.6494935750961304 0 5.444444179534912 -1.2000000476837158 0
          5.067508220672607 -0.9653593897819519 0 4.283215045928955 0.02286371961236 0
          4.43105411529541 -0.300768107175827 0 4.142016887664795 0.33384108543395996 0
          4.573105812072754 -0.6119378209114075 0 3.992300033569336 0.6605401039123535 0
          3.8888890743255615 1.2000000476837158 0 4.721052169799805 -0.9289693236351013 0
          4.083156108856201 -0.26410868763923645 0 3.9346089363098145 0.05202680081129074 0
          4.2248640060424805 -0.583368182182312 0 3.794219970703125 0.37224650382995605 0
          4.6666669845581055 -1.2000000476837158 0 4.372566223144531 -0.8980712890625 0
          3.6435329914093018 0.6871886849403381 0 3.4845330715179443 0.9496920704841614 0
          4.238772869110107 -1.0396209955215454 0 3.7371129989624023 -0.2360759973526001 0
          3.8777899742126465 -0.544031023979187 0 3.5880980491638184 0.08982273191213608 0
          4.026970863342285 -0.8604139089584351 0 3.4486160278320312 0.3975287973880768 0
          3.294600009918213 0.7115796804428101 0 3.3894379138946533 -0.1980305016040802 0
          3.5296289920806885 -0.5176354050636292 0 3.1111109256744385 1.2000000476837158 0
          3.678446054458618 -0.8306925892829895 0 3.2394111156463623 0.11707709729671478 0
          3.8888890743255615 -1.2000000476837158 0 3.1010890007019043 0.43808528780937195 0
          2.961361885070801 0.7589535117149353 0 3.503129005432129 -1.0054839849472046 0
          3.18314790725708 -0.47578510642051697 0 3.3340699672698975 -0.7912443280220032 0
          3.044409990310669 -0.17236250638961792 0 2.893527030944824 0.1568426936864853 0
          2.7548489570617676 0.9893125891685486 0 2.7534260749816895 0.4774535000324249 0
          2.6135880947113037 0.7982968091964722 0 2.9854938983917236 -0.7631890773773193 0
          2.8351199626922607 -0.4524492025375366 0 2.697058916091919 -0.13238230347633362 0
          3.1111109256744385 -1.2000000476837158 0 2.544728994369507 0.1811445951461792 0
          2.388031005859375 0.49400800466537476 0 2.3333330154418945 1.2000000476837158 0
          2.7681961059570312 -0.9710931181907654 0 2.2573049068450928 0.8266525864601135 0
          2.6428470611572266 -0.721183180809021 0 2.489516019821167 -0.40704599022865295 0
          2.353508949279785 -0.11029759794473648 0 2.1956899166107178 0.20170240104198456 0
          1.9920220375061035 0.5723655819892883 0 2.2942399978637695 -0.6953821182250977 0
          2.141784906387329 -0.3882349133491516 0 1.8683220148086548 0.8697000741958618 0
          2.0066850185394287 -0.0679963231086731 0 2.3333330154418945 -1.2000000476837158 0
          1.8129379749298096 0.2728925049304962 0 1.954548954963684 -0.6485614776611328 0
          1.6430920362472534 0.5740132927894592 0 1.7980589866638184 -0.3366861045360565 0
          1.555556058883667 1.2000000476837158 0 1.9700770378112793 -0.9401506781578064 0
          1.6666820049285889 -0.05719396844506264 0 1.4286249876022339 0.8451691269874573 0
          1.4677189588546753 0.2914707064628601 0 1.6918359994888306 -0.8584386110305786 0
          1.606449007987976 -0.6244480013847351 0 1.3151990175247192 0.5185866951942444 0
          1.4524099826812744 -0.32973089814186096 0 1.2210429906845093 1.0129400491714478 0
          1.3220579624176025 -0.01946846954524517 0 1.1222139596939087 0.8065894842147827 0
          1.1284430027008057 0.23862800002098083 0 1.555556058883667 -1.2000000476837158 0
          1.2835420370101929 -0.5449687838554382 0 1.3725509643554688 -0.8790327906608582 0
          1.1284430027008057 -0.23862800002098083 0 0.9798405170440674 0.4904909133911133 0
          1 0 0 0.861803412437439 0.19021129608154297 0
          0.7777777910232544 1.2000000476837158 0 1.1798269748687744 -1.0302430391311646 0
          0.729131281375885 0.7251076102256775 0 0.9428092837333679 -0.5025230050086975 0
          0.861803412437439 -0.19021129608154297 0 1.0134249925613403 -0.8419373035430908 0
          0.6745458245277405 0.38610830903053284 0 0.638196587562561 0.1175571009516716 0
          0.638196587562561 -0.1175571009516716 0 0.6745458245277405 -0.38610830903053284 0
          0.4659998118877411 0.650235116481781 0 0.44361230731010437 0.9165406823158264 0
          0.6880131959915161 -0.7223715782165527 0 0.3890891969203949 0.32260850071907043 0
          0.7777777910232544 -1.2000000476837158 0 0.39402180910110474 4.742348735931046e-10 0
          0.24515259265899658 0.8073607087135315 0 0.366202712059021 -0.29110780358314514 0
          0.4311263859272003 -0.628279983997345 0 0.22986270487308502 0.006300130859017372 0
          0.4553210139274597 -0.959943413734436 0 0 1.2000000476837158 0
          0 0.4000000059604645 0 0.2216119021177292 -0.7970559000968933 0