<?xml version="1.0"?>
<VTKFile type="UnstructuredGrid" version="0.1" byte_order="LittleEndian" header_type="UInt32" compressor="vtkZLibDataCompressor">
  <UnstructuredGrid>
    <Piece NumberOfPoints="162" NumberOfCells="295">
      <PointData>
        <DataArray type="Float64" Name="Velocity" NumberOfComponents="3" format="ascii" RangeMin="0" RangeMax="2.1644080744902316">
          2.1644080744902316 0 0 2.099440826616547 -0.002585433920806554 0
          2.0998739247583167 0.000441373394747039 0 2.0325603724627483 0 0
          2.1523381365884213 -0.0015851357605884894 0 2.044169859628716 -0.0047732960991902305 0
          2.066506267866664 -0.0009009638452211746 0 1.9896151592423288 0.00002479800847831823 0
          2.089715225632177 -0.001019172415305733 0 2.0126522454836784 -0.0005974569611986208 0
          1.9763793930051754 -0.0022736426520421436 0 2.035123293068467 -0.000648781653329697 0
          2.1102830359710603 0.0010506354071940227 0 1.9587679663208744 -0.0005105861600100453 0
          1.9369789639059676 -0.004755025099510497 0 2.057260213263689 0.00018089057169114403 0
          1.980902763611697 -0.000018666420326361906 0 1.9106155563329414 0 0
          2.150560282362879 0.0012374071481142928 0 2.0031667959894968 0.0008673683601189044 0
          1.9035932615806752 -0.0006428363580369099 0 2.0793522838648513 -0.0006119690701111499 0
          1.9264912499083455 0.00007650227058535414 0 1.8786933324629085 0.0001825130652138278 0
          2.0250532604758917 0.0006790316308299474 0 1.9484805630021451 0.00037040958363180124 0
          1.8624217424081695 -0.0017600214000036245 0 1.971447115759723 0.0011172059315000828 0
          2.107502996905869 0.0023724534697275035 0 1.8727599587197534 -0.0008040185375841557 0
          1.849501405808049 -0.0010420896318439582 0 2.0459494650546164 0.005807964417341122 0
          1.8947299470933296 0.00042635472114306724 0 1.8300844895923243 -0.005276010019305933 0
          1.990937829218754 0.0008467065390654893 0 1.9168171171057415 0.00024922727231776543 0
          1.7914607030828686 0 0 1.818845469686922 -0.00010787673182757697 0
          1.9402559647107587 0.0056677887478152455 0 1.84056297815174 0.00019794132250934397 0
          1.7945183322921963 -0.001055251210299858 0 2.1625597960462173 0 0
          1.8637071396739244 0.0008944381624815243 0 1.7731888842831933 -0.002319134036207743 0
          1.9767673452977226 0.0009533827740650929 0 2.035771871328586 0 0
          1.8836833175693368 0.00042286854459654567 0 1.7868319483673387 0.0003316141752992964 0
          1.765329264363811 -0.0006673985222667522 0 1.809758176791132 0.0002723659700540539 0
          1.7392899131205257 0.00035897476867042307 0 1.7403888611441032 -0.0025857147084198985 0
          1.832336845628913 0.0013655135935437368 0 1.9084772649240036 0 0
          1.8579522624424951 0.0020648521209640884 0 1.7329324775590265 0.0003483266639109788 0
          1.7559796905243985 0.0010745045461693736 0 1.7115067710365954 -0.0002700032430560887 0
          1.7770809343802638 0.00035246792982785986 0 1.6878671176709459 -0.004937999613215178 0
          1.6701842293937406 0 0 1.796573954693966 0.006044881674600894 0
          1.7016661358800291 0.00044695608223513947 0 1.6790294631326554 0.00013155557690697596 0
          1.7244602419223343 0.0011865543425207074 0 1.657241445380855 -0.0008933416216950082 0
          1.790324914541476 0 0 1.7448648464422039 0.00029511623505408535 0
          1.632053005634816 -0.0008219330511995528 0 1.6169395879008734 -0.0018631128801021649 0
          1.7360097221414663 0.0002630814044320834 0 1.6482946673244998 0.0010113061188510792 0
          1.6698653857872472 0.00010733669573873613 0 1.6249856120549289 -0.000010650814747349517 0
          1.692714405609662 0.006253352173373663 0 1.60370657880794 -0.00009582568101997447 0
          1.5812842878934585 -0.004805641958452871 0 1.5940942153271194 -0.00013966384816037217 0
          1.6164505793723447 0.0007861731468851493 0 1.5497035458202195 0 0
          1.636734214151996 0.00019410130913171883 0 1.5714158657070918 -0.00009241177905335452 0
          1.6671924455114138 0 0 1.5496538288859323 -0.0008192027296049726 0
          1.5261203592050938 -0.0008693926433250142 0 1.6197131683645398 -0.00017375844143859703 0
          1.5624112023274488 0.00021276792562669854 0 1.5872811311343686 0.005910247131029919 0
          1.5406463124609375 0.0010528210423079425 0 1.5173841021456813 -0.000711965554349144 0
          1.5053302222235931 -0.0012949271837012916 0 1.4953409674549516 -0.0013005434399417386 0
          1.477623579693094 -0.005301020785285956 0 1.5289000074334416 0.0014652016902908524 0
          1.508476770935323 0.0017313291693626751 0 1.4854078415317888 -0.000024627924998933725 0
          1.549349183890189 0 0 1.462990313321438 0.00024040842051528276 0
          1.437825931887872 0.0002221429894824229 0 1.4244756078359329 0 0
          1.505237828436794 0.00039756973765091297 0 1.4176277892233724 -0.0026333376477461687 0
          1.483263794257734 0.00621843790116413 0 1.4534926132495458 0.000002438327169229648 0
          1.4331114625409602 0.001130916011869155 0 1.4096951588895352 -0.005034305515749087 0
          1.3760165491913876 -0.008185607246046691 0 1.4223195508266513 0.0026020742088169024 0
          1.4030689674909222 0.008938878810760609 0 1.3637530080853237 -0.01076930483078279 0
          1.3616225364578516 0.002007907438902566 0 1.4208411421091272 0 0
          1.3492341376894836 0.00023465150560539544 0 1.3778250146384543 0.009840711365518447 0
          1.30297582698833 0.012893886490505095 0 1.3371238521353304 -0.000798811177924688 0
          1.3736575759398815 0 0 1.3777878904135954 0.000202862987351754 0
          1.3277556896630576 -0.013597214647859273 0 1.257385518840192 -0.014210573409310468 0
          1.3584946214295455 -0.01874947802552137 0 1.3411949387497564 0.007239725336073962 0
          1.3015243528769858 -0.0005658389068895313 0 1.3646792690063494 -0.07326151245118792 0
          1.3512514593494933 0.017306128859986017 0 1.2960592683082677 -0.03230793309013487 0
          1.1693526981599967 0.06592775279851054 0 1.2255610182466534 -0.048090757982983734 0
          1.2528184560618736 -0.359251149219308 0 1.3683878880594325 0 0
          1.3753090067727427 0.06273031082410636 0 1.2718515895383207 0.02584047206226678 0
          1.2906092229737465 0.36017651302398973 0 1.6894794308820649 -0.10665334291873653 0
          0 0 0 0 0 0
          1.2292277017934563 0 0 1.3038215157178035 0.0368365708688379 0
          1.1738492062732262 -0.0027245849998528953 0 1.689438275333244 0.02127000069710822 0
          0 0 0 1.1976299168624502 0.07327099022499978 0
          1.4203590016454726 0.37354718624365274 0 0 0 0
          0 0 0 1.419301597201401 -0.39698702189017027 0
          1.0395058334406042 0.07080072034531869 0 1.167533419223462 0.1290602807080619 0
          1.1516571506983126 -0.02108322165358804 0 1.0919378821737122 0.26123026901464447 0
          1.1988197874728674 0 0 0.7037850454214968 -0.014139084778381657 0
          1.1263005298240782 0.09083664138327296 0 1.0395705231136139 -0.21070083562944844 0
          1.0276958637513427 -0.05357286806876869 0 0.9568269957986758 0.036736543888315494 0
          1.1590047032728081 -0.13237210465566324 0 1 0 0
          1 0 0 1.10724327175789 -0.07214432762115384 0
          1 0 0 1 0 0
          <InformationKey name="L2_NORM_RANGE" location="vtkDataArray" length="2">
            <Value index="0">
              0
            </Value>
            <Value index="1">
              2.1644080745
            </Value>
          </InformationKey>
        </DataArray>
        <DataArray type="Float64" Name="Pressure" format="ascii" RangeMin="-2.187200374128066" RangeMax="0.8956642383609545">
          0.06892858395608314 -0.3059667461591744 -0.2757832716585269 -0.5799826882752832 0.014744384548849965 -0.54056949404459
          -0.4372204560381454 -0.7753517555089284 -0.33500539315374 -0.6869427821008876 -0.8732295112517331 -0.5910405731724935
          -0.2254749616148648 -0.907422744932956 -0.9951135516453591 -0.4896468316661413 -0.8218063898596081 -1.0732769696904176
          -0.004094350385186019 -0.728988921675273 -1.1128134751718657 -0.38075695511719343 -1.03183751412399 -1.1816845241753913
          -0.6295932117341281 -0.948957695137244 -1.27458970331211 -0.8549474863543349 -0.26891437499666226 -1.2178748091895737
          -1.2854487667288177 -0.5265531460140735 -1.1441097878379325 -1.351928963271523 -0.7609304104359823 -1.0630351812100733
          -1.440669632502622 -1.37692597698363 -0.9842100257994906 -1.3145218636433293 -1.4371261376478048 0.0622521207829676
          -1.24309085311147 -1.4873037883511409 -0.8671328864398886 -0.5841900440935279 -1.1662103846051988 -1.4618718353177873
          -1.5157243131427351 -1.4019588000856578 -1.5626344851958605 -1.588741056395154 -1.3379808358270289 -1.0639206632567195
          -1.2745936234472635 -1.5835946608882483 -1.532752568604196 -1.6247198362944635 -1.4787195144388583 -1.6695866283072018
          -1.681623268653426 -1.4205017223901337 -1.6411080486309397 -1.682156905098857 -1.5961375111717149 -1.716389665541611
          -1.443047389783004 -1.5483596200918925 -1.7429977007529582 -1.7805544972840708 -1.5967457241301561 -1.7248808635558188
          -1.6913686954878338 -1.7555106682152175 -1.6563907056798035 -1.778764345193137 -1.8065262545399525 -1.7855907182521433
          -1.757689877359475 -1.8190614624233294 -1.728014961849357 -1.8079541054814912 -1.685612786745262 -1.8242459259264878
          -1.8292894389441445 -1.7657153382422774 -1.8053258410098507 -1.7905132908312928 -1.8221193450186939 -1.8361444494307604
          -1.8423824601888756 -1.8420168437322983 -1.8456640500654213 -1.8083409136010076 -1.8224897979318586 -1.837701696116024
          -1.8036267314313545 -1.8454304222648448 -1.8448690617856318 -1.8098081300012878 -1.8161614466946183 -1.8264113726728397
          -1.8227318957917342 -1.8228493076925163 -1.8376409508621463 -1.8367469293184153 -1.8187309934188318 -1.7853147182795348
          -1.7994294639294286 -1.8028239542442597 -1.8148047498216273 -1.7529560692824664 -1.8030214536003153 -1.7392302905670047
          -1.7290352239250668 -1.7472035290690313 -1.7690500014955663 -1.7103995276164583 -1.8902830095983676 -1.6802717440693988
          -1.8845556201218892 -1.6405209718247997 -1.5853211279531174 -1.713990528252222 -1.8252602201434276 -1.5505203258850073
          -1.9919246146307328 -1.5500983248632787 -2.174606148081676 -1.6180925603316452 -1.4966376117721574 -1.4600848691619612
          -2.187200374128066 -1.7571756441243833 -2.1175167632946974 -1.6686445958460343 -1.0599640010327616 -1.2822240015666055
          -1.0519900417630341 -1.2259434281623767 -0.8530888256722522 -1.1207254767138473 -0.7441713610549935 0.39883804531977796
          0.8956642383609545 -0.5519865202069342 -0.6411332242288772 -0.849277237187858 -0.7245250556682014 -0.23562412490909024
          -0.7609931621843595 0.14325321992764406 -0.6880440422437512 0.13225509934324975 -0.3821095508577292 0.01654650367399041
          -0.6284653574662491 -0.6631686533111487 -0.18621695701087632 -0.4404503834282666 0.05636084804812084 -0.3835578923685815
        </DataArray>
        <DataArray type="Float64" Name="Temperature" format="ascii" RangeMin="281.4349138321344" RangeMax="600.0000000000001">
          300 298.10505384457724 297.9512848956402 300 297.92457137443637 297.83428066579
          298.2570805322685 297.8517879501893 298.17831262074634 298.3005446020547 298.31263833630436 298.1958297630046
          298.19144589166865 298.29614758600974 297.8598638006513 298.2096301566477 298.19913351734135 300.00000000000006
          297.9033944056672 298.19963096769214 298.29522981064 298.2108944943234 298.1970485254196 297.8902115765195
          298.29241899211326 298.1957122971925 298.2475039763087 298.3083312228942 297.9620118909659 298.1968963641038
          298.29439713279004 297.94039659902035 298.2000413529758 297.8746496425569 297.8241382748106 298.3049281217351
          300 298.1924982502955 297.8381016861097 298.20999962402226 298.2955309482779 300
          298.2658526819492 297.927912121447 298.08573133679386 300 297.8588934097468 298.2148529925475
          298.21086590325365 298.2145656092651 298.2429281650092 297.8773566404413 298.1991042507608 300.00000000000006
          297.9935410028679 298.21354085314505 298.19994459968314 298.2590630433416 298.2797616966443 297.85446516665166
          299.99999999999994 298.006553250242 298.19388534560244 298.200828483762 298.29420648127945 298.30731288474493
          300 297.8792472782239 297.8505521333814 298.246054635447 298.03898174470856 298.19591821783854
          298.30904544111723 298.2015024744605 297.89532559334884 298.30273921053094 297.82379681414113 298.1934067199136
          298.3027010882588 300 297.8747387756713 298.19696408347664 300 298.31002347464016
          297.9062048693623 298.01161747605727 298.31749569994184 297.857248562842 298.19687092090714 298.1967659267646
          298.14806634741194 298.2683182566589 297.98952584692444 297.86544711699037 298.3016622475443 298.19486326854496
          299.99999999999994 298.2685769431755 298.18348326578683 299.99999999999994 298.04359458404224 297.5018260197313
          297.81586622027606 298.3794294198416 298.0242854105111 298.15382400186354 299.21759027544937 297.8525387529088
          298.1586409049083 298.0308368540637 299.1570989795095 300 296.81578529465116 299.05121765832575
          297.39289097873353 297.12666233875484 299.99999999999994 297.5479840289635 297.2828823810278 300.28948108633057
          293.9078441907263 298.2000229234721 298.3571621083109 281.661451206831 292.3422289967223 298.1616054037014
          341.02151980017436 300.13277185602846 401.05335704428893 300 281.4349138321344 300.92494235018944
          393.1999039346113 292.25548429132124 599.9999999999999 599.9999999999999 299.99999999999994 297.77840157705623
          295.83634009400566 283.9604832607956 600 300.9741984042631 314.65036390314657 600.0000000000001
          600 302.24748830125617 299.2318382982494 297.6065531364871 297.7696978531329 283.62978893529527
          299.99999999999994 312.95138807414725 297.8410187020059 287.80120665575737 299.5328726985157 299.6095949402198
          297.7268848687519 300 300 297.920932500003 300 300
        </DataArray>
        <DataArray type="Float64" Name="Density" format="ascii" RangeMin="0.5746169704372183" RangeMax="1.2250441054657981">
          1.1492339408744368 1.1565392059474562 1.1571360814338811 1.1492339408744368 1.1572398364853846 1.157590662470481
          1.15594969831749 1.1575226210157519 1.1562550583645061 1.1557812699345513 1.155734414019873 1.1561871356026074
          1.1562041333257567 1.1557983066573836 1.1574912371982935 1.1561336301621963 1.1561743261815394 1.1492339408744365
          1.1573221008446901 1.1561723974758524 1.1558018627424704 1.156128728452253 1.1561824101452882 1.1573733169603306
          1.1558127538985383 1.1561875910500041 1.1559868151980173 1.155751101046926 1.1570944231256357 1.156183000111981
          1.155805089120905 1.1571783692237478 1.1561708063421452 1.1574337818812301 1.1576300841814307 1.1557642860048023
          1.1492339408744368 1.1562000529367422 1.1575758115248895 1.1561321977700647 1.1558006959283327 1.1492339408744368
          1.1559157012518324 1.1572268600391806 1.1566141751105508 1.1492339408744368 1.1574950081750661 1.1561133820217433
          1.156128839296494 1.1561144961445824 1.156004551000048 1.1574232635563926 1.1561744396536076 1.1492339408744365
          1.1569719971179273 1.1561184689199366 1.1561711814707607 1.1559420147854171 1.1558618000136673 1.1575122168117564
          1.149233940874437 1.1569214787462097 1.1561946746920961 1.1561677545141527 1.1558058278412067 1.1557550464595472
          1.1492339408744368 1.1574159173979324 1.1575274237126087 1.1559924327708258 1.1567955984954044 1.1561867926390226
          1.1557483339216568 1.1561651413606104 1.157353448146985 1.1557727668702535 1.157631411426425 1.1561965304825335
          1.155772914574863 1.1492339408744368 1.1574334355421008 1.1561827375473104 1.1492339408744368 1.1557445447073305
          1.157311182603664 1.156901818735407 1.155715595739356 1.1575014001701938 1.1561830987615456 1.156183505849975
          1.1563723571515419 1.1559061461085431 1.1569875863336134 1.1574695406913655 1.1557769395740916 1.1561908829792342
          1.149233940874437 1.1559051435981966 1.1562350083455797 1.149233940874437 1.1567776946976556 1.1588842558548356
          1.1576622382077044 1.1554757073324056 1.1568526430234711 1.1563500264218518 1.1522390175823136 1.1575197032258435
          1.15633134500465 1.1568272125852337 1.1524720069769956 1.1492339408744368 1.1615628256431012 1.1528800483141335
          1.1593087552553012 1.1603475081925085 1.149233940874437 1.1587044805142115 1.1597377538220945 1.1481260715995998
          1.1730553950053764 1.1561708777963788 1.1555619440339464 1.2240588152375802 1.1793375984220074 1.156319848075419
          1.0109924513395907 1.1487255461316794 0.8596616290741024 1.1492339408744368 1.2250441054657981 1.1457015811641111
          0.8768318069570686 1.1796876390475635 0.5746169704372185 0.5746169704372185 1.149233940874437 1.1578078881356166
          1.16540848954789 1.2141484558106153 0.5746169704372184 1.1455140809088291 1.0957247211970673 0.5746169704372183
          0.5746169704372184 1.1406883286278682 1.1521841533409718 1.158476446935676 1.1578417305322313 1.2155640758206248
          1.149233940874437 1.1016732802624445 1.1575644743791265 1.1979455759360835 1.1510261934066495 1.1507314454703028
          1.1580082276221626 1.1492339408744368 1.1492339408744368 1.157253971277522 1.1492339408744368 1.1492339408744368
        </DataArray>
        <DataArray type="Float64" Name="stream" format="ascii" RangeMin="-5.009957370700452" RangeMax="0.013990503541326915">
          0.013990503541326915 -0.47877072614618477 -1.0225341984432874 0.0028709639533362474 -1.6622058816737595 -0.9403362863618013
          -1.5973954907367471 -0.8558439305434028 -2.274855733459904 -1.5097900191328533 -0.40714758177145266 -2.1757405400343837
          -2.9728053584061302 -1.4086670470356986 -0.7634075862919546 -2.843906632473924 -2.0658087474550624 -0.004546781845638126
          -3.3489273004767153 -2.736874819924165 -1.2965607815763034 -3.5262639538404517 -1.9313992834406095 -0.6824457880056066
          -3.391933625221349 -2.571824217958493 -0.32401827412499207 -3.2344886699764217 -4.209181935294627 -1.8238940363016551
          -1.2138530188994783 -4.074245306277137 -2.457890856260922 -0.6062899595843079 -3.9294137105036064 -3.117916658435139
          -0.008612721241560716 -1.7096141970890517 -3.7954480735710256 -2.309058910298296 -1.1016700151085048 -5.009957370700452
          -2.955089788974759 -0.5209754775894171 -4.347424295171004 -4.891089172547231 -3.6381008930024037 -2.20369066499306
          -1.5936069719774766 -2.805512617881598 -1.017089386570775 -0.4966845649141633 -3.479872005531791 -4.764333697660623
          -4.184756388171005 -2.053143861533402 -2.6508946810822445 -1.4974582025486702 -3.311009303498279 -0.9218782206917698
          -0.016978735409527324 -4.028410594572961 -2.5060877575509046 -1.9439986278171313 -3.1768464880215266 -1.3911309265105538
          -4.630349556330785 -3.8748560022091354 -0.8661777569778139 -0.42963757594353597 -4.2312142476215975 -2.387608181144007
          -3.0093086538586356 -1.8399117922141202 -3.7411627461989236 -1.33454609278893 -0.8123011275233489 -2.2741121331079444
          -2.903975026681455 -0.03172194064432996 -3.5668647699835714 -1.7743987981566034 -4.465465201739919 -1.242631223132259
          -0.7249921104506835 -4.000578804580283 -2.7825870252960168 -3.4451432980387775 -2.1823622530867204 -1.6651679747158898
          -0.35976223335939567 -1.163306719148735 -0.651857813249061 -3.2903719195485706 -2.6229179690187294 -2.0875214990021074
          -4.2617628980539894 -1.6145455537704372 -1.097784219400171 -0.04354517304250773 -3.742997140492987 -0.5752615768907803
          -3.155505064388743 -2.5498851375068816 -2.0390617635171266 -1.5081581983916443 -0.9142920426175314 -3.0163452099745185
          -2.390282575690451 -0.4824379918165606 -1.8278062280323564 -4.0126555970571 -1.3066804773612388 -2.762921375315095
          -0.8659962743713049 -2.098078286718015 -0.04000528222623892 -3.433657609889915 -1.6765873283218673 -0.509361158022
          -1.2269466395069757 -3.1165275046842025 -2.4902593865260614 -0.9267970100447759 -1.8811051792662086 -0.2892751706129974
          -1.4689479300592663 -0.5373134193198261 -1.2392699548729653 -3.7149813981063446 -2.189781453573253 -2.906632976048743
          -1.5119460364476565 -0.9678934390048588 -1.3589807050957916 -1.2541525781748653 -0.05070023087642648 -3.2589205816822755
          -0.6269789551672519 -1.9519985391698507 -1.4174152408860388 -2.7206954218909627 -1.0617968088744925 -1.2571727829764487
          -1.3934002501329157 -1.6986670765377099 -0.6786943620982314 -0.37854519578391344 -2.4031920279581347 -1.02481365128866
          -3.3055728826429016 -1.3087917166104384 -0.46928821734511694 -1.5540926824224301 -2.1246298246360285 -1.297272981722472
          -2.7192943951332573 -0.04659724543722558 -0.8897822673310921 -2.2704034051530106 -1.6971364723227516 -2.876777695817091
        </DataArray>
      </PointData>
      <CellData>
        <DataArray type="UInt8" Name="vtkGhostType" format="ascii" RangeMin="0" RangeMax="0">
          0 0 0 0 0 0
          0 0 0 0 0 0
          0 0 0 0 0 0
          0 0 0 0 0 0
          0 0 0 0 0 0
          0 0 0 0 0 0
          0 0 0 0 0 0
          0 0 0 0 0 0
          0 0 0 0 0 0
          0 0 0 0 0 0
          0 0 0 0 0 0
          0 0 0 0 0 0
          0 0 0 0 0 0
          0 0 0 0 0 0
          0 0 0 0 0 0
          0 0 0 0 0 0
          0 0 0 0 0 0
          0 0 0 0 0 0
          0 0 0 0 0 0
          0 0 0 0 0 0
          0 0 0 0 0 0
          0 0 0 0 0 0
          0 0 0 0 0 0
          0 0 0 0 0 0
          0 0 0 0 0 0
          0 0 0 0 0 0
          0 0 0 0 0 0
          0 0 0 0 0 0
          0 0 0 0 0 0
          0 0 0 0 0 0
          0 0 0 0 0 0
          0 0 0 0 0 0
          0 0 0 0 0 0
          0 0 0 0 0 0
          0 0 0 0 0 0
          0 0 0 0 0 0
          0 0 0 0 0 0
          0 0 0 0 0 0
          0 0 0 0 0 0
          0 0 0 0 0 0
          0 0 0 0 0 0
          0 0 0 0 0 0
          0 0 0 0 0 0
          0 0 0 0 0 0
          0 0 0 0 0 0
          0 0 0 0 0 0
          0 0 0 0 0 0
          0 0 0 0 0 0
          0 0 0 0 0 0
          0
        </DataArray>
      </CellData>
      <Points>
        <DataArray type="Float32" Name="Points" NumberOfComponents="3" format="ascii" RangeMin="0.22994902639587697" RangeMax="7.102112369882704">
          7 1.2000000476837158 0 6.599672794342041 0.9660372734069824 0
          6.6399030685424805 0.7036619186401367 0 6.222221851348877 1.2000000476837158 0
          7 0.4000000059604645 0 6.291684150695801 0.7389311790466309 0
          6.435248851776123 0.4197305142879486 0 5.9434661865234375 0.7742003798484802 0
          6.57881498336792 0.10052960366010666 0 6.08703088760376 0.45499980449676514 0
          5.801344871520996 0.9959174990653992 0 6.23059606552124 0.1357990950345993 0
          6.722381114959717 -0.21868319809436798 0 5.7388129234313965 0.49026909470558167 0
          5.5952467918396 0.8094696998596191 0 6.3741607666015625 -0.18340149521827698 0
          5.882378101348877 0.17106840014457703 0 5.444444179534912 1.2000000476837158 0
          7 -0.4000000059604645 0 6.025942802429199 -0.14813220500946045 0
          5.384244918823242 0.5261802077293396 0 6.51772403717041 -0.5026149749755859 0
          5.531583786010742 0.20377269387245178 0 5.236144065856934 0.8432719111442566 0
          6.169507026672363 -0.4673318862915039 0 5.674856185913086 -0.1111351028084755 0
          5.060293197631836 1.0298899412155151 0 5.821293830871582 -0.43206480145454407 0
          6.6612749099731445 -0.8218216896057129 0 5.183467864990234 0.23962560296058655 0
          5.035661220550537 0.5564131140708923 0 6.313057899475098 -0.7865372896194458 0
          5.326355934143066 -0.07969167828559875 0 4.893916130065918 0.8762899041175842 0
          5.964842796325684 -0.7512490749359131 0 5.473134994506836 -0.3970530033111572 0
          4.6666669845581055 1.2000000476837158 0 4.836434841156006 0.26916739344596863 0
          5.616653919219971 -0.7159011960029602 0 4.978854179382324 -0.04412427172064781 0
          4.688116073608398 0.5933424234390259 0 7 -1.2000000476837158 0
          5.12586784362793 -0.3661642074584961 0 4.545888900756836 0.9131073951721191 0
          5.81204080581665 -0.966787576675415 0 6.222221851348877 -1.2000000476837158 0
          5.268884181976318 -0.6795946955680847 0 4.630309104919434 -0.01361996028572321 0
          4.488448143005371 0.30607008934020996 0 4.777815818786621 -0.33047690987586975 0
          4.339453220367432 0.6220952272415161 0 4.286639213562012 0.9191486239433289 0
          4.920590877532959 -0.6494935750961304 0 5.444444179534912 -1.2000000476837158 0
          5.067508220672607 -0.9653593897819519 0 4.283215045928955 0.02286371961236 0
          4.43105411529541 -0.300768107175827 0 4.142016887664795 0.33384108543395996 0
          4.573105812072754 -0.6119378209114075 0 3.992300033569336 0.6605401039123535 0
          3.8888890743255615 1.2000000476837158 0 4.721052169799805 -0.9289693236351013 0
          4.083156108856201 -0.26410868763923645 0 3.9346089363098145 0.05202680081129074 0
          4.2248640060424805 -0.583368182182312 0 3.794219970703125 0.37224650382995605 0
          4.6666669845581055 -1.2000000476837158 0 4.372566223144531 -0.8980712890625 0
          3.6435329914093018 0.6871886849403381 0 3.4845330715179443 0.9496920704841614 0
          4.238772869110107 -1.0396209955215454 0 3.7371129989624023 -0.2360759973526001 0
          3.8777899742126465 -0.544031023979187 0 3.5880980491638184 0.08982273191213608 0
          4.026970863342285 -0.8604139089584351 0 3.4486160278320312 0.3975287973880768 0
          3.294600009918213 0.7115796804428101 0 3.3894379138946533 -0.1980305016040802 0
          3.5296289920806885 -0.5176354050636292 0 3.1111109256744385 1.2000000476837158 0
          3.678446054458618 -0.8306925892829895 0 3.2394111156463623 0.11707709729671478 0
          3.8888890743255615 -1.2000000476837158 0 3.1010890007019043 0.43808528780937195 0
          2.961361885070801 0.7589535117149353 0 3.503129005432129 -1.0054839849472046 0
          3.18314790725708 -0.47578510642051697 0 3.3340699672698975 -0.7912443280220032 0
          3.044409990310669 -0.17236250638961792 0 2.893527030944824 0.1568426936864853 0
          2.7548489570617676 0.9893125891685486 0 2.7534260749816895 0.4774535000324249 0
          2.6135880947113037 0.7982968091964722 0 2.9854938983917236 -0.7631890773773193 0
          2.8351199626922607 -0.4524492025375366 0 2.697058916091919 -0.13238230347633362 0
          3.1111109256744385 -1.2000000476837158 0 2.544728994369507 0.1811445951461792 0
          2.388031005859375 0.49400800466537476 0 2.3333330154418945 1.2000000476837158 0
          2.7681961059570312 -0.9710931181907654 0 2.2573049068450928 0.8266525864601135 0
          2.6428470611572266 -0.721183180809021 0 2.489516019821167 -0.40704599022865295 0
          2.353508949279785 -0.11029759794473648 0 2.1956899166107178 0.20170240104198456 0
          1.9920220375061035 0.5723655819892883 0 2.2942399978637695 -0.6953821182250977 0
          2.141784906387329 -0.3882349133491516 0 1.8683220148086548 0.8697000741958618 0
          2.0066850185394287 -0.0679963231086731 0 2.3333330154418945 -1.2000000476837158 0
          1.8129379749298096 0.2728925049304962 0 1.954548954963684 -0.6485614776611328 0
          1.6430920362472534 0.5740132927894592 0 1.7980589866638184 -0.3366861045360565 0
          1.555556058883667 1.2000000476837158 0 1.9700770378112793 -0.9401506781578064 0
          1.6666820049285889 -0.05719396844506264 0 1.4286249876022339 0.8451691269874573 0
          1.4677189588546753 0.2914707064628601 0 1.6918359994888306 -0.8584386110305786 0
          1.606449007987976 -0.6244480013847351 0 1.3151990175247192 0.5185866951942444 0
          1.4524099826812744 -0.32973089814186096 0 1.2210429906845093 1.0129400491714478 0
          1.3220579624176025 -0.01946846954524517 0 1.1222139596939087 0.8065894842147827 0
          1.1284430027008057 0.23862800002098083 0 1.555556058883667 -1.2000000476837158 0
          1.2835420370101929 -0.5449687838554382 0 1.3725509643554688 -0.8790327906608582 0
          1.1284430027008057 -0.23862800002098083 0 0.9798405170440674 0.4904909133911133 0
          1 0 0 0.861803412437439 0.19021129608154297 0
          0.7777777910232544 1.2000000476837158 0 1.1798269748687744 -1.0302430391311646 0
          0.729131281375885 0.7251076102256775 0 0.9428092837333679 -0.5025230050086975 0
          0.861803412437439 -0.19021129608154297 0 1.0134249925613403 -0.8419373035430908 0
          0.6745458245277405 0.38610830903053284 0 0.638196587562561 0.1175571009516716 0
          0.638196587562561 -0.1175571009516716 0 0.6745458245277405 -0.38610830903053284 0
          0.4659998118877411 0.650235116481781 0 0.44361230731010437 0.9165406823158264 0
          0.6880131959915161 -0.7223715782165527 0 0.3890891969203949 0.32260850071907043 0
          0.7777777910232544 -1.2000000476837158 0 0.39402180910110474 4.742348735931046e-10 0
          0.24515259265899658 0.8073607087135315 0 0.366202712059021 -0.29110780358314514 0
          0.4311263859272003 -0.628279983997345 0 0.22986270487308502 0.006300130859017372 0