<?xml version="1.0"?>
<VTKFile type="UnstructuredGrid" version="0.1" byte_order="LittleEndian" header_type="UInt32" compressor="vtkZLibDataCompressor">
  <UnstructuredGrid>
    <Piece NumberOfPoints="162" NumberOfCells="295">
      <PointData>
        <DataArray type="Float64" Name="Velocity" NumberOfComponents="3" format="ascii" RangeMin="0" RangeMax="2.349933627163092">
          2.349933627163092 0 0 2.2720105856626613 -0.004625120450021031 0
          2.274199862473938 -0.0012025085589079318 0 2.196809245741887 0 0
          2.335227595352227 -0.002854340341591141 0 2.2089686746635584 -0.005695969883719655 0
          2.2353274467323025 -0.0014771843316932834 0 2.1463520026758376 -0.0013429291926836395 0
          2.262344018361824 -0.001189577834549857 0 2.172863101103947 -0.001077466266129798 0
          2.128884980185724 -0.003499364039949826 0 2.1990153258734453 -0.000909772662917134 0
          2.286392466432913 0.0012080833673550097 0 2.1101883193469577 -0.0009705768524130506 0
          2.0844808072030285 -0.005502482448867765 0 2.224781056717976 0.0004941959470723713 0
          2.1360850576167754 -0.0002537056588037892 0 2.0553006505885 0 0
          2.333728052964008 0.0022961373790605505 0 2.162000414363 0.0010151858795870736 0
          2.0460895304713427 -0.0011562975816597626 0 2.250077050824235 0.00021389875026911476 0
          2.0729443285600992 -0.0001661756585790465 0 2.018228247052853 -0.001137468121334237 0
          2.1873086834244986 0.001072590814198346 0 2.0983899744340357 0.0005870403239334049 0
          1.9967428990261478 -0.003098068036818974 0 2.124870004735437 0.001638946643362095 0
          2.282211881736648 0.004388218509376263 0 2.010561816009312 -0.0010134303774068237 0
          1.9831019656004494 -0.0014855256795948853 0 2.2118654823543076 0.006425602047301485 0
          2.035984464939069 0.00045797447813659964 0 1.9609308792646405 -0.0059380596297078665 0
          2.1486445564575662 0.002359938514518295 0 2.0616520461803116 0.0005008695322218024 0
          1.9161436646876675 0 0 1.9481021567226064 -0.0003488923433992014 0
          2.0887217437512917 0.006536617033178316 0 1.9731590949551765 0.00029604236573871345 0
          1.9193727068971738 -0.0013998298719725688 0 2.346785087658885 0 0
          1.9999518753838526 0.0012086076394918488 0 1.8960679105490663 -0.0030623273190600667 0
          2.130222169928077 0.002739189468362272 0 2.200954876974086 0 0
          2.0237840001166894 0.0013241218161882673 0 1.9107673849647222 0.00031496028839570617 0
          1.8859472734070524 -0.000984619754085328 0 1.9373485614246484 0.0007077839889718732 0
          1.855871574142212 -0.00043237268286550057 0 1.8561673369812723 -0.004213132356030436 0
          1.9631392282326796 0.0021036912537534813 0 2.052155843900164 0 0
          1.991969183592482 0.0038251004321054327 0 1.8482290031520985 0.0002212942941463153 0
          1.8749983756435673 0.0012850512522241337 0 1.8234106690477114 -0.0006915023869244301 0
          1.8996497503411076 0.0006597557170393981 0 1.7956479346484886 -0.005857556801633322 0
          1.7756720430251938 0 0 1.9227085176740997 0.006206112562225034 0
          1.8120079991847584 0.0007852179657173858 0 1.7855731787470224 0.0000023835695712459692 0
          1.8382131464530795 0.0016840439312756084 0 1.7603491345082056 -0.0012184404940645266 0
          1.9167977615193617 0 0 1.8627453102122082 0.0015492353551002647 0
          1.731747954955072 -0.0019652464870488773 0 1.712184917673368 -0.003091585116174689 0
          1.8497896699082694 0.0017133764326339729 0 1.7500492669468501 0.001195240187925467 0
          1.7751008211581882 0.00046532039492071936 0 1.7229615156337568 -0.00016438422173625789 0
          1.8014094209419098 0.006978210979240326 0 1.6980774136895507 -0.0004580220060700635 0
          1.671783664517975 -0.005770980435033865 0 1.687019324417892 0.00027373511806515205 0
          1.7129394939837341 0.0012557560685283187 0 1.6364523566864981 0 0
          1.7375626075892057 0.001419965551475999 0 1.6606112279855205 -0.00044661453124512224 0
          1.7732871364175113 0 0 1.6354526983828233 -0.0018447152403691103 0
          1.60929101935078 -0.0024064964704220452 0 1.715694412746728 0.001181212829645062 0
          1.650355366274488 0.0011027065714486889 0 1.6789527673069016 0.0066669122734636654 0
          1.6246658513235424 0.0014956911076851875 0 1.597227238303402 -0.0009563002709303547 0
          1.5823743138555098 -0.004485169739676886 0 1.57231981412701 -0.0012766248331411885 0
          1.5501674774658762 -0.007961223944759635 0 1.6133804342226994 0.003027066974194116 0
          1.5871950410239215 0.0025129682315327556 0 1.5602295845351104 0.0005051460448034263 0
          1.6371931071189052 0 0 1.5350712622750526 -0.0013790968481055248 0
          1.506387697707008 -0.004482311053191204 0 1.4958358034847647 0 0
          1.5843382467479323 0.0034413601612665046 0 1.4826732424102709 -0.005934092479715214 0
          1.5586609440009673 0.008440890447501792 0 1.524105363074636 0.003404752501982633 0
          1.4957799780457308 0.003035482456083677 0 1.4678848117060466 -0.007702781746965662 0
          1.4317527759328506 -0.0077496915487441365 0 1.4913996309845265 0.007657901785554824 0
          1.461288812345013 0.013210436408037082 0 1.4089616126825946 -0.010782598864816806 0
          1.40931590105212 -0.0008955202209709329 0 1.4855220365962172 0 0
          1.409953030416851 -0.0004707430501949897 0 1.4351353247251335 0.01134423148092134 0
          1.3791202588145068 -0.003271460177052987 0 1.387787625906463 0.0013219683723367306 0
          1.4474020252194915 0 0 1.438474895077542 0.00481535222900753 0
          1.3791971784807142 -0.0022929917233118057 0 1.296526236817045 -0.025935038908888215 0
          1.3619092253670506 -0.0962760048752914 0 1.3814687974091115 0.009056933026013028 0
          1.381015896258203 0.011202124783076833 0 1.5071125773542389 -0.1496140426407305 0
          1.378923564999551 0.11771006907564574 0 1.3450132645445583 -0.03644755434270974 0
          1.0648240585665572 0.07009816239182079 0 1.3151401882301712 -0.07272684160482529 0
          1.1750137434737509 -0.37381823282411697 0 1.4471788511975079 0 0
          1.5359207673084612 0.12648641393572174 0 1.3093317542076304 0.041268675608031546 0
          1.2103586607787087 0.371818647230037 0 1.790693960540387 -0.058728579361165684 0
          0 0 0 0 0 0
          1.266370172583342 0 0 1.3600428388147943 0.04014135698312615 0
          1.2453628547137452 0.03657604662166053 0 1.8016587783169573 -0.03440113762118341 0
          0 0 0 1.2791806044345124 0.08600475133030916 0
          1.4321085767070065 0.45810992661824745 0 0 0 0
          0 0 0 1.4253565621803286 -0.48257961181541487 0
          1.0722344256887975 0.11676170625799097 0 1.1969870065910515 0.1274584687682484 0
          1.216389903246863 -0.06252692881604816 0 1.1126941467320404 0.30426377444628916 0
          1.243384973490458 0 0 0.6856465975673238 -0.007943419672693117 0
          1.1299067602164903 0.10156091236946732 0 1.0655398169995092 -0.2422946225475565 0
          1.053510357212886 -0.09613244968047652 0 0.952561293151813 0.03438661223507035 0
          1.188505845931651 -0.1307926825051089 0 1 0 0
          1 0 0 1.1137816171376167 -0.08677992876962537 0
          1 0 0 1 0 0
          <InformationKey name="L2_NORM_RANGE" location="vtkDataArray" length="2">
            <Value index="0">
              0
            </Value>
            <Value index="1">
              2.3499336272
            </Value>
          </InformationKey>
        </DataArray>
        <DataArray type="Float64" Name="Pressure" format="ascii" RangeMin="-0.00953439522091415" RangeMax="19.465070237586524">
          0.08034099590506649 1.8239991266103304 1.6517592442066649 3.4939959901941267 0.012533521634555456 3.159003490140521
          2.5469230531792544 4.594327040362954 1.9070441841692185 4.006591121536044 5.147254230850513 3.4071962576934287
          1.2658393591606005 5.400370733521419 5.952319856208569 2.7968445434378753 4.831394643231999 6.559540372279828
          -0.00953439522091415 4.253066689076397 6.739591540057826 2.1807397994675592 6.1901046827587285 7.286440602906556
          3.6661922045158857 5.6440061648083235 7.892372329264123 5.078296882384566 1.5458229333310443 7.46360724145635
          7.986527028168198 3.067290367137504 6.9496210262986775 8.468543947867683 4.507983184729871 6.410808022985837
          9.26386572154282 8.66229808257944 5.867077261945573 8.178879133553583 9.154656536115134 0.07159327568476748
          7.669842941064363 9.62067809916778 5.105415467670638 3.4921675178181784 7.165260421820186 9.337813913208565
          9.788708011855388 8.856744786775417 10.255102420822084 10.40402209927592 8.381152349248609 6.568190886636603
          7.86835758226537 10.420039912984153 9.96944014170768 10.842221820144413 9.526605895437932 11.271221364319546
          11.610318367733814 9.054829057231128 11.01142077890675 11.433088841381572 10.599570597202261 11.820656146252718
          9.259902348592682 10.152248559370465 12.22927914955844 12.629536304162755 10.54449386382621 11.975147747585773
          11.594467574327062 12.368107392636453 11.175198844008516 12.726151285766841 13.101405140298914 12.870403626655605
          12.522887923391263 13.578270458223823 12.13794164364647 13.233475131262521 11.601690393077156 13.55866146904333
          13.883646407579064 12.577973246310439 13.369491850778672 13.00548017897157 13.685970209676185 14.020580995110565
          14.321677625438928 14.32356005143014 14.609757162105913 13.830799113272624 14.152607199554613 14.43185787959196
          13.571540081604313 14.734662452474058 15.039392312323608 15.22169544623659 14.292076486364978 15.297087373217797
          14.547421921994582 14.848096565450609 15.089340939569992 15.376699864481825 15.749188508463135 15.230993043072358
          15.476609190160943 15.94407057966993 15.681799922865913 15.236619202585628 15.965488147463978 15.816388067265677
          16.314311754162127 16.01299816929369 16.41473343404896 15.801098532578019 16.039324576499364 16.630551817589566
          16.3395324254125 16.232837521409685 16.39328362156855 16.67135802943047 16.33696624723874 16.96635979505983
          16.31663387858237 17.063965731389764 16.257359088148167 16.424235809885253 16.73612460343154 16.736530435801505
          16.234121728353543 16.97006412197316 16.370856593828535 17.172487194606514 17.852944488528166 17.08777102983435
          17.83895158123639 17.10294695487066 17.22844652648591 17.370270833657017 17.999553967602864 19.465070237586524
          19.442385782151604 18.219671508417967 18.359956337662148 18.17370138337059 17.975814070577524 18.82672062181557
          17.938047254202452 19.145932271942563 18.38640114560132 18.923627107017868 18.446141110617226 19.02757713699696
          18.18984024044503 18.447859542656033 18.90304691733294 18.44926158580929 18.95824230652127 18.52841333388515
        </DataArray>
        <DataArray type="Float64" Name="Temperature" format="ascii" RangeMin="275.23061677362523" RangeMax="600">
          300 297.22596802716515 296.7455959190491 300 296.7741374908849 296.6288822587242
          297.3088376075655 296.5856998944496 297.17286333097536 297.3805540042916 297.5448250919239 297.19568414253854
          297.19437411918665 297.37361617676623 296.66453562857504 297.22989811478715 297.19809167528564 300
          296.7200291493872 297.2134183870891 297.37431615599456 297.21631242365277 297.19667842129604 296.64290940158884
          297.3391297588427 297.2069221311771 297.455534165416 297.37354804463234 296.88420360447566 297.1965987059167
          297.3669617774965 296.79021627349726 297.2104240701132 296.6999756636757 296.5414909683979 297.35862477410495
          300.00000000000006 297.2025798433507 296.66419200488053 297.21727480043296 297.34344308975136 300.00000000000006
          297.3234503270371 296.80045559690575 297.24080740075806 299.99999999999994 296.6221072040897 297.22490254602616
          297.24476338914496 297.2395689204706 297.1841147828091 296.8659761074314 297.1877891884539 299.99999999999994
          296.93400536428487 297.222436557614 297.21095798773155 297.30442971840165 297.3218440859051 296.67474582404094
          300 296.9063319407755 297.20224257203205 297.20582035253216 297.35802534873363 297.3903462377483
          300 296.6380276242602 296.5723404480246 297.4402175072153 297.1717442698508 297.20173450818487
          297.37650400889703 297.2024780308933 296.7407748024841 297.38403393388467 296.61538030474674 297.2025936650915
          297.372063934537 300.00000000000006 296.61359925440064 297.19834760945963 300 297.3785620870094
          296.6815707778823 297.1162329605978 297.3902887267899 296.68671540115645 297.1936809972808 297.2304370279174
          297.3787941225229 297.3521946349757 296.62412837571037 296.5885247109137 297.4016135323626 297.1777399957785
          300 297.1464262205063 297.458991429508 300 297.13603966588215 296.3465481095184
          296.6374130937021 297.3380845800884 297.31841169495476 297.1292826132265 298.41453216980824 296.710788742075
          297.2092434560086 297.8860094338981 297.9888519466508 300 294.30516510730826 298.5633099135048
          291.62093272375034 294.5787315005147 299.99999999999994 296.41044766537505 297.96108642457034 299.2934803769848
          303.6987498021813 298.41906155693624 292.55386312622045 277.60388035942486 299.47681668296275 297.7110515284953
          366.20879570989734 298.68656717386176 424.30212540245043 300 275.2348647301938 300.79738623340984
          418.7023235071082 292.38996085655594 600 600 300 297.23668707860435
          294.90162915034495 282.6216302052525 600 299.9618393127711 319.34516558339556 599.9999999999999
          600 307.68475918788283 298.0049692125314 296.67765573867536 296.42511369464785 275.23061677362523
          300 318.5600536165374 297.07402890226416 280.053780815905 299.24373093115094 300.1094597306518
          296.5574140412596 300 300.00000000000006 297.21252771192786 299.99999999999994 300.00000000000006
        </DataArray>
        <DataArray type="Float64" Name="Density" format="ascii" RangeMin="0.5669564940766204" RangeMax="1.2359595034652788">
          1.1339129881532408 1.1444958820518734 1.1463485932871949 1.1339129881532408 1.1462383458411038 1.1467996435669654
          1.1441768740658382 1.14696661560903 1.1447004031020984 1.1439009439772014 1.1432694093768174 1.1446125048128926
          1.144617550228421 1.1439276315749696 1.1466618203123244 1.144480749088709 1.1446032325727091 1.1339129881532408
          1.1464473679823877 1.1445442076337606 1.1439249389228565 1.1445330630476556 1.1446086754837588 1.146745415665581
          1.1440603082475918 1.1445692247229389 1.1436125987718233 1.1439278936636157 1.1458133922785914 1.144608982495734
          1.1439532300851427 1.1461762477119402 1.1445557386160985 1.1465248545607447 1.147137607405583 1.1439853029465443
          1.1339129881532406 1.144585947488312 1.1466631484812833 1.1445293570987172 1.1440437122512663 1.1339129881532406
          1.1441206405744395 1.1461367057602276 1.14443874453392 1.133912988153241 1.1468258372661244 1.1444999847995418
          1.1444235133610263 1.1444435129597068 1.1446570645089202 1.1458837449356891 1.1446429120621098 1.133912988153241
          1.1456212165010868 1.1445094804612186 1.1445536825059262 1.144193837838795 1.144126821531774 1.1466223574275205
          1.1339129881532408 1.1457279951639006 1.1445872463883757 1.1445734677822705 1.1439876090346823 1.1438632785141611
          1.1339129881532408 1.1467642876754065 1.147018282055838 1.1436714890034005 1.1447047137061348 1.1445892030505762
          1.143916522859502 1.144586339588367 1.1463672178937931 1.1438875582728856 1.1468518459712809 1.1445858942580556
          1.1439336027235485 1.1339129881532406 1.1468587323746093 1.1446022468906376 1.1339129881532408 1.1439086061168102
          1.1465959801751606 1.1449185830620185 1.1438634997206898 1.146576097908583 1.144620219731673 1.144478674012855
          1.1439077135601585 1.1440100412359953 1.1468180228922606 1.1469556914838208 1.1438199423519781 1.1446816186528794
          1.1339129881532408 1.1448022470697194 1.1435993069538357 1.1339129881532408 1.1448422642655012 1.1478922181346178
          1.1467666633760651 1.1440643297557331 1.144140029898272 1.144868299260753 1.1399374352600278 1.1464830715733727
          1.1445602851727021 1.141959963451919 1.1415658479293511 1.1339129881532408 1.1558543198585711 1.1393693905139324
          1.1664934107052447 1.1547809127740027 1.133912988153241 1.1476447578865467 1.1416722248127802 1.1365897313148794
          1.1201030516837809 1.1399201333560574 1.162773558383013 1.2253931609512645 1.135893923989759 1.1426310669337467
          0.9289069526212327 1.1388992135289473 0.8017256480233689 1.1339129881532408 1.2359404277486308 1.1309070890064432
          0.8124480743183582 1.1634253633381713 0.5669564940766204 0.5669564940766204 1.1339129881532408 1.144454608848514
          1.153516504558023 1.203637160393289 0.5669564940766204 1.1340572428323856 1.065223254044024 0.5669564940766205
          0.5669564940766204 1.105592286546278 1.1415041076156243 1.1466111109682289 1.1475879766259978 1.2359595034652788
          1.1339129881532408 1.067848566020937 1.1450812368316712 1.2146734654140863 1.1367786900245487 1.133499413018431
          1.1470760140855705 1.1339129881532408 1.1339129881532406 1.1445476375601655 1.133912988153241 1.1339129881532406
        </DataArray>
        <DataArray type="Float64" Name="stream" format="ascii" RangeMin="-5.4233404052274246" RangeMax="0.016645138568848472">
          0.016645138568848472 -0.5174064411911723 -1.105593662059088 0.0034717498645034485 -1.798361832064448 -1.0161141127237208
          -1.7266034658437388 -0.9238559601089192 -2.4608399572316904 -1.6307750280969664 -0.4393159030132042 -2.3515942466845874
          -3.2189163256275912 -1.519240375896058 -0.8224032115170973 -3.075063002135197 -2.2298450191514405 -0.005206567239053372
          -3.6260489316544584 -2.9566061896252283 -1.3950578946049437 -3.8150145352755183 -2.079247343845462 -0.7339695127447161
          -3.66487116962448 -2.771170117391151 -0.3484114283464591 -3.487876256955276 -4.555663989830798 -1.9603745385999376
          -1.3040491577072375 -4.404727401224177 -2.6441058571520157 -0.6510787664237456 -4.242370697792522 -3.358287822353258
          -0.010125778253047613 -1.8325553855096206 -4.092521910516179 -2.4772112378323965 -1.179826100032684 -5.4233404052274246
          -3.174433097164709 -0.5579287645571196 -4.692259476225494 -5.28541619706664 -3.9158887994555975 -2.3598890265764627
          -1.7039441158179092 -3.006699673058936 -1.0863585605186876 -0.5307829698288279 -3.7371193299060708 -5.137707339362658
          -4.5034721137891385 -2.191207217653394 -2.8321756043208413 -1.5969923958627863 -3.547340606217732 -0.9822830717530856
          -0.019958111430077308 -4.3278987699653815 -2.670192150787591 -2.0693921896771506 -3.396320601946377 -1.479962923634858
          -4.9820000396356905 -4.154853632540269 -0.922043528900287 -0.45818736496114953 -4.544841897697558 -2.5373847900118935
          -3.2084456251283906 -1.954866084908291 -4.005718000268828 -1.4185303942911613 -0.8636634698467319 -2.4119511653633205
          -3.0904952564902506 -0.0372099021554245 -3.8084692301678564 -1.883366815924515 -4.790303085001666 -1.3186713313219538
          -0.7701942956697335 -4.282605420434855 -2.9564087307870364 -3.673486084689984 -2.3097257824259727 -1.7633110733991864
          -0.3839907054818117 -1.2331961537507876 -0.6922706123772032 -3.4985734810741005 -2.7751134499271437 -2.206204958211178
          -4.553811510870141 -1.7087984025686775 -1.1603195725889075 -0.05180482290195809 -3.989157855518818 -0.6084966350510888
          -3.3486562286309383 -2.697042926849345 -2.153270517043598 -1.5890968652042978 -0.9604566626930716 -3.190281773310366
          -2.513550120599437 -0.5071596295995248 -1.9137040100656082 -4.264457343034762 -1.3657366610936255 -2.9064809262366373
          -0.9067067592364274 -2.1911928538711045 -0.04626353546189506 -3.6330139218016377 -1.7441363518209683 -0.536148316529214
          -1.2872454642529185 -3.282633003477836 -2.6079561962870885 -0.9836025264605824 -1.947001336125888 -0.3072565233489359
          -1.529192468610287 -0.5704324787188588 -1.3091326183108734 -3.917774300768792 -2.2754774670166302 -3.0518345015932664
          -1.564055271074967 -1.026977039016949 -1.418920895219366 -1.3146436323018154 -0.05983148021410813 -3.4266846477210446
          -0.6609956346261797 -2.0192099040761575 -1.463056556498128 -2.8443732514267146 -1.1095492059585694 -1.2923026336687076
          -1.4288203602721645 -1.7481515564284873 -0.7040863871868588 -0.3953611760735112 -2.49653501718263 -1.0512802083060262
          -3.4594295825658206 -1.3372291353158314 -0.48422417295741615 -1.5813269156678562 -2.1825978170687352 -1.3184001371651752
          -2.817375827611042 -0.05821656965530656 -0.906088063840811 -2.321882179906944 -1.7173582309115432 -2.9565503395591026
        </DataArray>
      </PointData>
      <CellData>
        <DataArray type="UInt8" Name="vtkGhostType" format="ascii" RangeMin="0" RangeMax="0">
          0 0 0 0 0 0
          0 0 0 0 0 0
          0 0 0 0 0 0
          0 0 0 0 0 0
          0 0 0 0 0 0
          0 0 0 0 0 0
          0 0 0 0 0 0
          0 0 0 0 0 0
          0 0 0 0 0 0
          0 0 0 0 0 0
          0 0 0 0 0 0
          0 0 0 0 0 0
          0 0 0 0 0 0
          0 0 0 0 0 0
          0 0 0 0 0 0
          0 0 0 0 0 0
          0 0 0 0 0 0
          0 0 0 0 0 0
          0 0 0 0 0 0
          0 0 0 0 0 0
          0 0 0 0 0 0
          0 0 0 0 0 0
          0 0 0 0 0 0
          0 0 0 0 0 0
          0 0 0 0 0 0
          0 0 0 0 0 0
          0 0 0 0 0 0
          0 0 0 0 0 0
          0 0 0 0 0 0
          0 0 0 0 0 0
          0 0 0 0 0 0
          0 0 0 0 0 0
          0 0 0 0 0 0
          0 0 0 0 0 0
          0 0 0 0 0 0
          0 0 0 0 0 0
          0 0 0 0 0 0
          0 0 0 0 0 0
          0 0 0 0 0 0
          0 0 0 0 0 0
          0 0 0 0 0 0
          0 0 0 0 0 0
          0 0 0 0 0 0
          0 0 0 0 0 0
          0 0 0 0 0 0
          0 0 0 0 0 0
          0 0 0 0 0 0
          0 0 0 0 0 0
          0 0 0 0 0 0
          0
        </DataArray>
      </CellData>
      <Points>
        <DataArray type="Float32" Name="Points" NumberOfComponents="3" format="ascii" RangeMin="0.22994902639587697" RangeMax="7.102112369882704">
          7 1.2000000476837158 0 6.599672794342041 0.9660372734069824 0
          6.6399030685424805 0.7036619186401367 0 6.222221851348877 1.2000000476837158 0
          7 0.4000000059604645 0 6.291684150695801 0.7389311790466309 0
          6.435248851776123 0.4197305142879486 0 5.9434661865234375 0.7742003798484802 0
          6.57881498336792 0.10052960366010666 0 6.08703088760376 0.45499980449676514 0
          5.801344871520996 0.9959174990653992 0 6.23059606552124 0.1357990950345993 0
          6.722381114959717 -0.21868319809436798 0 5.7388129234313965 0.49026909470558167 0
          5.5952467918396 0.8094696998596191 0 6.3741607666015625 -0.18340149521827698 0
          5.882378101348877 0.17106840014457703 0 5.444444179534912 1.2000000476837158 0
          7 -0.4000000059604645 0 6.025942802429199 -0.14813220500946045 0
          5.384244918823242 0.5261802077293396 0 6.51772403717041 -0.5026149749755859 0
          5.531583786010742 0.20377269387245178 0 5.236144065856934 0.8432719111442566 0
          6.169507026672363 -0.4673318862915039 0 5.674856185913086 -0.1111351028084755 0
          5.060293197631836 1.0298899412155151 0 5.821293830871582 -0.43206480145454407 0
          6.6612749099731445 -0.8218216896057129 0 5.183467864990234 0.23962560296058655 0
          5.035661220550537 0.5564131140708923 0 6.313057899475098 -0.7865372896194458 0
          5.326355934143066 -0.07969167828559875 0 4.893916130065918 0.8762899041175842 0
          5.964842796325684 -0.7512490749359131 0 5.473134994506836 -0.3970530033111572 0
          4.6666669845581055 1.2000000476837158 0 4.836434841156006 0.26916739344596863 0
          5.616653919219971 -0.7159011960029602 0 4.978854179382324 -0.04412427172064781 0
          4.688116073608398 0.5933424234390259 0 7 -1.2000000476837158 0
          5.12586784362793 -0.3661642074584961 0 4.545888900756836 0.9131073951721191 0
          5.81204080581665 -0.966787576675415 0 6.222221851348877 -1.2000000476837158 0
          5.268884181976318 -0.6795946955680847 0 4.630309104919434 -0.01361996028572321 0
          4.488448143005371 0.30607008934020996 0 4.777815818786621 -0.33047690987586975 0
          4.339453220367432 0.6220952272415161 0 4.286639213562012 0.9191486239433289 0
          4.920590877532959 -0.6494935750961304 0 5.444444179534912 -1.2000000476837158 0
          5.067508220672607 -0.9653593897819519 0 4.283215045928955 0.02286371961236 0
          4.43105411529541 -0.300768107175827 0 4.142016887664795 0.33384108543395996 0
          4.573105812072754 -0.6119378209114075 0 3.992300033569336 0.6605401039123535 0
          3.8888890743255615 1.2000000476837158 0 4.721052169799805 -0.9289693236351013 0
          4.083156108856201 -0.26410868763923645 0 3.9346089363098145 0.05202680081129074 0
          4.2248640060424805 -0.583368182182312 0 3.794219970703125 0.37224650382995605 0
          4.6666669845581055 -1.2000000476837158 0 4.372566223144531 -0.8980712890625 0
          3.6435329914093018 0.6871886849403381 0 3.4845330715179443 0.9496920704841614 0
          4.238772869110107 -1.0396209955215454 0 3.7371129989624023 -0.2360759973526001 0
          3.8777899742126465 -0.544031023979187 0 3.5880980491638184 0.08982273191213608 0
          4.026970863342285 -0.8604139089584351 0 3.4486160278320312 0.3975287973880768 0
          3.294600009918213 0.7115796804428101 0 3.3894379138946533 -0.1980305016040802 0
          3.5296289920806885 -0.5176354050636292 0 3.1111109256744385 1.2000000476837158 0
          3.678446054458618 -0.8306925892829895 0 3.2394111156463623 0.11707709729671478 0
          3.8888890743255615 -1.2000000476837158 0 3.1010890007019043 0.43808528780937195 0
          2.961361885070801 0.7589535117149353 0 3.503129005432129 -1.0054839849472046 0
          3.18314790725708 -0.47578510642051697 0 3.3340699672698975 -0.7912443280220032 0
          3.044409990310669 -0.17236250638961792 0 2.893527030944824 0.1568426936864853 0
          2.7548489570617676 0.9893125891685486 0 2.7534260749816895 0.4774535000324249 0
          2.6135880947113037 0.7982968091964722 0 2.9854938983917236 -0.7631890773773193 0
          2.8351199626922607 -0.4524492025375366 0 2.697058916091919 -0.13238230347633362 0
          3.1111109256744385 -1.2000000476837158 0 2.544728994369507 0.1811445951461792 0
          2.388031005859375 0.49400800466537476 0 2.3333330154418945 1.2000000476837158 0
          2.7681961059570312 -0.9710931181907654 0 2.2573049068450928 0.8266525864601135 0
          2.6428470611572266 -0.721183180809021 0 2.489516019821167 -0.40704599022865295 0
          2.353508949279785 -0.11029759794473648 0 2.1956899166107178 0.20170240104198456 0
          1.9920220375061035 0.5723655819892883 0 2.2942399978637695 -0.6953821182250977 0
          2.141784906387329 -0.3882349133491516 0 1.8683220148086548 0.8697000741958618 0
          2.0066850185394287 -0.0679963231086731 0 2.3333330154418945 -1.2000000476837158 0
          1.8129379749298096 0.2728925049304962 0 1.954548954963684 -0.6485614776611328 0
          1.6430920362472534 0.5740132927894592 0 1.7980589866638184 -0.3366861045360565 0
          1.555556058883667 1.2000000476837158 0 1.9700770378112793 -0.9401506781578064 0
          1.6666820049285889 -0.05719396844506264 0 1.4286249876022339 0.8451691269874573 0
          1.4677189588546753 0.2914707064628601 0 1.6918359994888306 -0.8584386110305786 0
          1.606449007987976 -0.6244480013847351 0 1.3151990175247192 0.5185866951942444 0
          1.4524099826812744 -0.32973089814186096 0 1.2210429906845093 1.0129400491714478 0
          1.3220579624176025 -0.01946846954524517 0 1.1222139596939087 0.8065894842147827 0
          1.1284430027008057 0.23862800002098083 0 1.555556058883667 -1.2000000476837158 0
          1.2835420370101929 -0.5449687838554382 0 1.3725509643554688 -0.8790327906608582 0
          1.1284430027008057 -0.23862800002098083 0 0.9798405170440674 0.4904909133911133 0
          1 0 0 0.861803412437439 0.19021129608154297 0
          0.7777777910232544 1.2000000476837158 0 1.1798269748687744 -1.0302430391311646 0
          0.729131281375885 0.7251076102256775 0 0.9428092837333679 -0.5025230050086975 0
          0.861803412437439 -0.19021129608154297 0 1.0134249925613403 -0.8419373035430908 0
          0.6745458245277405 0.38610830903053284 0 0.638196587562561 0.1175571009516716 0
          0.638196587562561 -0.1175571009516716 0 0.6745458245277405 -0.38610830903053284 0
          0.4659998118877411 0.650235116481781 0 0.44361230731010437 0.9165406823158264 0
          0.6880131959915161 -0.7223715782165527 0 0.3890891969203949 0.32260850071907043 0
          0.7777777910232544 -1.2000000476837158 0 0.39402180910110474 4.742348735931046e-10 0
          0.24515259265899658 0.8073607087135315 0 0.366202712059021 -0.29110780358314514 0
          0.4311263859272003 -0.628279983997345 0 0.22986270487308502 0.006300130859017372 0
          0.4553210139274597 -0.959943413734436 0 0 1.2000000476837158 0
          0 0.4000000059604645 0 0.2216119021177292 -0.7970559000968933 0
          0 -0.4000000059604645 0 0 -1.2000000476837158 0
          <InformationKey name="L2_NORM_RANGE" location="vtkDataArray" length="2">
            <Value index="0">