<?xml version="1.0"?>
<VTKFile type="UnstructuredGrid" version="0.1" byte_order="LittleEndian" header_type="UInt32" compressor="vtkZLibDataCompressor">
  <UnstructuredGrid>
    <Piece NumberOfPoints="21" NumberOfCells="12">
      <PointData>
        <DataArray type="Float64" Name="Velocity" NumberOfComponents="3" format="ascii" RangeMin="0" RangeMax="7.333597307691575e-9">
          0 0 0 0 0 0
          0 0 0 2.3449338778656755e-9 -3.2471384002304727e-9 0
          0 0 0 0 0 0
          8.48366246767852e-10 3.6895544018636215e-9 0 0 0 0
          -9.584025159710493e-10 -7.2707024480968465e-9 0 0 0 0
          0 0 0 -5.47129459606833e-9 2.3348852346330486e-9 0
          0 0 0 0 0 0
          0 0 0 0 0 0
          -3.743359828646887e-9 -1.3635667314447965e-9 0 0 0 0
          0 0 0 0 0 0
          0 0 0
          <InformationKey name="L2_NORM_RANGE" location="vtkDataArray" length="2">
            <Value index="0">
              0
            </Value>
            <Value index="1">
              7.3335973077e-09
            </Value>
          </InformationKey>
        </DataArray>
        <DataArray type="Float64" Name="Pressure" format="ascii" RangeMin="10.194887999901452" RangeMax="10.194888032357285">
          10.194888018605994 10.194888014797268 10.194887999901452 10.194888012424242 10.19488801077979 10.194888017496936
          10.194888014398048 10.19488801470532 10.194888000453144 10.194887999901454 10.19488803164557 10.194888013401465
          10.194888032357285 10.194888024882964 10.194888007853491 10.194888014663306 10.194888011375452 10.194888003488147
          10.194888015832786 10.194887999901454 10.194887999901455
        </DataArray>
        <DataArray type="Float64" Name="Temperature" format="ascii" RangeMin="0.02999999998901343" RangeMax="0.03">
          0.029999999994042504 0.02999999999381624 0.03 0.029999999994277587 0.02999999999138801 0.029999999990741315
          0.02999999998984989 0.029999999989955534 0.029999999989498885 0.03 0.02999999999270267 0.029999999989813002
          0.02999999998901343 0.02999999998951263 0.029999999992402583 0.029999999990585443 0.029999999993655553 0.029999999994497265
          0.02999999999281264 0.03 0.03
        </DataArray>
        <DataArray type="Float64" Name="Density" format="ascii" RangeMin="1.1637999999887507" RangeMax="1.1638000041199599">
          1.163800002355083 1.1638000019290744 1.1637999999887507 1.1638000016402839 1.1638000015646575 1.1638000023565422
          1.1638000020373696 1.1638000020683479 1.163800000459102 1.1637999999887507 1.1638000038955958 1.1638000019250352
          1.1638000041199599 1.1638000032473608 1.1638000011912464 1.1638000020391155 1.1638000015446899 1.1638000006116598
          1.1638000020862174 1.1637999999887507 1.1637999999887507
        </DataArray>
      </PointData>
      <CellData>
        <DataArray type="UInt8" Name="vtkGhostType" format="ascii" RangeMin="0" RangeMax="0">
          0 0 0 0 0 0
          0 0 0 0 0 0
        </DataArray>
      </CellData>
      <Points>
        <DataArray type="Float32" Name="Points" NumberOfComponents="3" format="ascii" RangeMin="0" RangeMax="0.029717074200620645">
          0.020419999957084656 0 0 0.012799999676644802 0 0
          0.020419999957084656 0.01079500000923872 0 0.012799999676644802 0.01079500000923872 0
          0.005179999861866236 0 0 0.002589999930933118 0 0
          0.005179999861866236 0.01079500000923872 0 0 0 0
          0.002589999930933118 0.01079500000923872 0 0.020419999957084656 0.02159000001847744 0
          0.012799999676644802 0.02159000001847744 0 0 0.01079500000923872 0
          0.005179999861866236 0.02159000001847744 0 0.002589999930933118 0.02159000001847744 0
          -0.007619999814778566 0 0 0 0.02159000001847744 0
          -0.007619999814778566 0.01079500000923872 0 -0.007619999814778566 0.02159000001847744 0
          -0.015239999629557133 0 0 -0.015239999629557133 0.01079500000923872 0
          -0.015239999629557133 0.02159000001847744 0
          <InformationKey name="L2_NORM_RANGE" location="vtkDataArray" length="2">
            <Value index="0">
              0
            </Value>
            <Value index="1">
              0.029717074201
            </Value>
          </InformationKey>
        </DataArray>
      </Points>
      <Cells>
        <DataArray type="Int64" Name="connectivity" format="ascii" RangeMin="0" RangeMax="20">
          11 16 14 7 15 17
          16 11 16 19 18 14
          17 20 19 16 5 8
          11 7 4 6 8 5
          8 13 15 11 6 12
          13 8 1 3 6 4
          0 2 3 1 3 10
          12 6 2 9 10 3
        </DataArray>
        <DataArray type="Int64" Name="offsets" format="ascii" RangeMin="4" RangeMax="48">
          4 8 12 16 20 24
          28 32 36 40 44 48
        </DataArray>
        <DataArray type="UInt8" Name="types" format="ascii" RangeMin="9" RangeMax="9">
          9 9 9 9 9 9
          9 9 9 9 9 9
        </DataArray>
      </Cells>
    </Piece>
  </UnstructuredGrid>
</VTKFile>
