<?xml version="1.0"?>
<VTKFile type="UnstructuredGrid" version="0.1" byte_order="LittleEndian" header_type="UInt32" compressor="vtkZLibDataCompressor">
  <UnstructuredGrid>
    <Piece NumberOfPoints="130" NumberOfCells="105">
      <PointData>
        <DataArray type="Float64" Name="Velocity" NumberOfComponents="3" format="ascii" RangeMin="0" RangeMax="0.999999999999979">
          0 0 0 0 0 0
          0 0 0 0 0 0
          -0.003926276913691407 0.0019612210807473662 0 -0.010230389104322501 0.003677086229508575 0
          0 0 0 -0.021633429884881483 0.0027106098692472047 0
          0 0 0 0 0 0
          -0.0027531078187501556 0.007149923880478082 0 -0.005822026207248365 0.010275660645608142 0
          -0.04787954458295918 0.007202987819154627 0 -0.006904655793737335 0.01462076888630498 0
          0 0 0 -0.0851756127269434 0.002432867774534442 0
          -0.0004676637699545516 0.015402865542957223 0 0 0 0
          -0.0023039934366315684 0.010865336978185536 0 0 0 0
          -0.005584528230808905 0.015627649616388378 0 -0.11247422255768669 -0.03196138350220323 0
          -0.005603889138763307 0.03959732188763421 0 -0.010730462160698728 0.015297325862984629 0
          0 0 0 -0.02058486753869837 0.0223448309180648 0
          -0.08498221734387812 -0.03567790776591906 0 -0.027986008136187124 0.596659467755952 0
          0 0.999999999999979 0 -0.019500141254637615 0.035166593838775684 0
          0.04989714450820981 0.5745288411490197 0 0 0 0
          -0.0012335763661921462 0.012955299464944364 0 -0.0631904174479968 0.19665348262411575 0
          0 0 0 -0.0021972952819583336 0.017794954208553388 0
          0.10977349937379066 0.09064305820258656 0 -0.0023378580087072276 0.0212608849569548 0
          0.009516962075049665 0.04985721036099644 0 0.017265198134436888 0.12995335073188974 0
          0.0004337643076897102 0.023350907788732833 0 0.0895358333851114 0.10240426113466672 0
          0 0 0 0.007048565145014507 -0.027001516659770797 0
          0.06751076028719316 -0.14157533369380326 0 0.0012654631310400344 0.019904526415606916 0
          -0.0060395065095097955 -0.005284472431997145 0 0 0 0
          -0.0006837607737899543 0.01310974368488746 0 -0.0028232950548778835 0.01927390337832202 0
          0.062225045821514335 0.03934973063463687 0 -0.0012237634051938118 0.017936019804662577 0
          -0.01991781495135006 0.024652313942918003 0 0 0 0
          -0.0016500102892491597 0.01839994006794994 0 0.026967056588746763 -0.014000986590593456 0
          -0.003563956915703992 0.03338891061698662 0 -0.002608754495191712 0.018204059548925344 0
          0.027483446376253218 0.024455402867422482 0 0.004370706070025321 0.03846685209504108 0
          -0.00033157385037296816 0.03358630926278702 0 -0.0029764087980146403 0.02003028051581726 0
          0 0 0 0.015950928515643725 -0.0038075830958268497 0
          0.005525997244955394 0.025709617403570584 0 -0.0015941914323862605 0.02149491098024997 0
          0.011936208709980134 0.027313662720687137 0 0.01869622829166917 0.004884302642933158 0
          0.0027746850085758057 0.021343646334101796 0 -0.00014727325898011845 0.019084676001200444 0
          0 0 0 0.010324358459041408 0.0000016717917961095452 0
          0.0004581308925599714 0.0187836739770645 0 0.012542828270683648 0.022646758403491174 0
          0.011142188763262784 0.009347323332300192 0 -0.00005003437359375751 0.020720285120678028 0
          -0.00012872395209147583 0.01831849878151126 0 0.004147727836275705 0.02196721558558057 0
          0 0 0 0.000037919421756418825 0.018087962489136022 0
          0.005804179960259559 0.0019004444656169905 0 0.0017463829394145092 0.021038181884113438 0
          0.00866649943596609 0.01587583354896427 0 0.0040715502827992425 0.020381694322110566 0
          0.00009272687335826202 0.018449251558312528 0 0.006510022807870081 0.008220144225423345 0
          0.0000360478960536037 0.018703271364950674 0 0.0017472048565457532 0.01992376519475947 0
          0 0 0 0.0024288720778554707 0.0016120363722517128 0
          0.0004028057326466161 0.018262316597545805 0 0.005290381942898895 0.013921509945712951 0
          0.004172358401757732 0.019210456251110064 0 0.00274688511532728 0.005872652240899334 0
          0.002112305902109285 0.01919039146750401 0 0 0 0
          0 0 0 0.0029685394011800814 0.01690806372316972 0
          0.002263076320673213 0.00971927101298347 0 -0.00008723382200057084 0.016677415963327863 0
          0.0018261136861352223 0.018282349601421916 0 0 0 0
          0.00013822134816363074 0.016574262624436564 0 0.0014298100714464773 0.0120624230551932 0
          0 0 0 0.0014896675485733812 0.017328073592966287 0
          0 0 0 0.0008351457725533917 0.012653319173339117 0
          0 0 0 -0.0005099932043735045 0.012516176225112877 0
          0 0 0 -0.0006894666201875954 0.016850318407343905 0
          -0.0007412262732660602 0.017564328543335395 0 -0.0005001931077840555 0.018204994592006196 0
          -0.0004230543043796803 0.016390845676743274 0 -0.00046109652641970755 0.016338404899053457 0
          -0.00030249447702911103 0.016568213001088614 0 0.00001533573114680109 0.014976485191057074 0
          -0.00008905541033445846 0.01499429419349588 0 0.000229462053829399 0.016599564681835093 0
          0.0004514862116272722 0.018161944584148937 0 0.000441853018828528 0.016505336074064014 0
          0.0009165014868224575 0.01804799256946421 0 0.0009800931413412872 0.01772213055843383 0
          0.001018040982054963 0.01738825556988599 0 0.00006490679769953489 0.014979231273023887 0
          0.00014411603836877356 0.014942770631876677 0 0.000846431830599903 0.016586936870547075 0
          0.0005573077719824571 0.01225541100586039 0 0 0 0
          <InformationKey name="L2_NORM_RANGE" location="vtkDataArray" length="2">
            <Value index="0">
              0
            </Value>
            <Value index="1">
              1
            </Value>
          </InformationKey>
        </DataArray>
        <DataArray type="Float64" Name="Pressure" format="ascii" RangeMin="2.372452044763999" RangeMax="37.860745887807646">
          37.860745887807646 37.86030073015009 33.43191763411711 37.85782403859505 33.43236945471242 33.43177039779554
          37.85176663949268 33.433601428875264 29.006197716632464 37.8305792358775 29.006873440691624 29.006024076846245
          33.44388268692501 29.00729694528903 37.77391651289006 33.43103094893957 28.99898345225224 24.57356159101469
          24.574505154208605 37.471830766498755 24.575665109000603 33.46568218024032 29.030361729973965 24.579268238877575
          36.99412618217832 24.59740696076047 29.013648554415067 33.53211493497819 37.03842993364276 24.601723696538098
          33.47720313665286 20.135271405816496 20.135908906567405 29.10704824990229 37.15472782508788 20.13610700258303
          33.43733559416134 20.136920378870112 24.6045606679179 29.13110757326681 20.13031748242864 29.10334901408319
          37.625238572516565 24.58169825633828 33.365795612249336 20.12666999413153 24.58165624994252 15.694074521416898
          15.694516889443381 20.134138285040894 29.04086805796493 15.694703296752161 24.589894749516333 37.824290510604634
          15.694542205925073 33.40401802589811 20.14947136865423 15.69728350768537 29.016070487324804 24.590754318775247
          20.147382512631847 15.700437260026721 37.8425980827182 33.420553690839654 20.143254691422324 15.698778906280905
          24.581169266926644 28.997044808746796 20.140303770897198 15.693887852724743 37.85274832524643 33.42213980714564
          15.695279143836425 24.578041671627478 28.997202833037953 15.696585023427913 11.253302570100429 20.139059004020464
          37.85592276828641 11.253903775305593 33.42392899511032 15.696761281104887 24.570123503025663 20.13498346615403
          11.25562308427004 28.997015886286864 11.25504742195357 15.695525572083762 37.85837365002463 33.42592341245418
          11.254530789069813 24.56750307064918 20.133944082779628 28.998084500362364 15.694974281934453 37.85921142951689
          33.42590621072147 20.13207244452681 24.566997176081664 6.812983457869148 15.693440114613246 28.997483879643095
          6.813111123627926 20.13121674522758 24.565998254167532 15.692644014460994 20.130317566758716 15.692035262394736
          15.691357693068724 11.252917900093763 11.252438864059794 11.253312768001551 11.253990528528453 11.253921438303024
          6.813275671462462 6.812779086842024 6.813412462960962 2.3726479841062784 2.372452044763999 6.813123822961852
          11.254079738509814 6.8129700752150715 11.25383015350663 11.253124873416372 11.252664968689698 2.3725738588392526
          2.3724830292487176 11.252019347522344 11.251475794138134 11.25092374743914
        </DataArray>
        <DataArray type="Float64" Name="Temperature" format="ascii" RangeMin="273.7108190398417" RangeMax="599.9999999999875">
          299.9999999999938 299.99999999999375 299.99999999999375 299.9999999999938 300.07541345585344 300.0982361662907
          299.99999999999375 300.19292845622186 299.99999999999375 299.9999999999938 300.0756286794686 300.0992853793821
          299.2560334894933 300.0697844327744 299.9999999999937 302.16245526587625 300.5831560022645 299.9999999999938
          300.0766402792963 299.9999999999937 300.09720059994856 319.0515289124224 296.7275839836906 300.12526521634095
          599.9999999999875 299.8507160150378 282.31124695052836 405.7593407056968 599.9999999999875 302.09788333136964
          393.05283356079843 299.99999999999375 300.07668006104194 273.7108190398417 599.9999999999875 300.098827455832
          300.73929712017235 300.0919841098628 308.4803165724691 275.6282001372759 300.1797000470838 296.7378880322367
          299.99999999999375 309.56460390907165 314.2093319986124 299.50947354191834 304.8587425719053 299.99999999999375
          300.0766633367851 297.71778057140926 291.8064642932577 300.0980791707588 299.7497666516813 299.99999999999375
          300.1039879295339 298.1686819840773 297.7006060037429 300.0601450468279 301.6335393117431 301.64074765132375
          298.93671763460264 300.18479000174085 299.9999999999937 300.0816635951014 300.31793443264337 300.59967428939103
          299.4558090783286 299.9298046337057 299.81683137889365 300.62023390352596 299.9999999999937 300.0912943239194
          300.30259514101056 300.17103845908485 300.0984921015314 300.0013141799868 300.0938823377767 300.302468757976
          299.9999999999937 300.0030482825444 300.0924067653477 300.1601484959354 300.0978838122307 300.0739819502306
          299.99015508028134 300.09693550203724 300.0716715924824 300.0494927433662 299.9999999999937 300.07378467434273
          300.13553451600995 300.0978026368771 300.1034983250238 300.0753038729609 300.1128990267562 299.9999999999937
          299.99999999999375 300.0982472040716 300.07605345942534 300.12593286832936 300.1008373809029 299.99999999999375
          300.10555041635155 300.0764608474686 299.9999999999937 300.09840277459665 299.9999999999938 300.07653544520207
          299.9999999999938 300.07639961220946 299.99999999999363 300.09845472042525 300.1003121148336 300.1152331026648
          300.1015719171664 300.0986318139336 300.1208875156476 300.09717050622174 300.0988810978842 300.0928820492576
          300.08874800118554 300.105795244654 300.11500842869356 300.0984471250811 300.10196849531553 300.1022483118318
          300.1045587994035 300.0982949502301 300.07637414051214 299.9999999999938
        </DataArray>
        <DataArray type="Float64" Name="Density" format="ascii" RangeMin="0.5814130296417979" RangeMax="1.2745123448492284">
          1.1628260592835955 1.1628260592835957 1.1628260592835957 1.1628260592835955 1.1625338236396143 1.1624454120142433
          1.1628260592835957 1.1620787324307178 1.1628260592835957 1.1628260592835955 1.1625329898340389 1.1624413478494693
          1.1657169070822404 1.1625556316658234 1.162826059283596 1.154504180468471 1.1605700812537991 1.1628260592835955
          1.1625290707746574 1.162826059283596 1.162449423345708 1.0933902087045881 1.1756501134867383 1.1623407230764446
          0.5814130296417979 1.163404985057886 1.2356851579710633 0.8597406955027954 0.5814130296417979 1.1547509500502593
          0.8875341633457803 1.1628260592835957 1.162528916655931 1.2745123448492284 0.5814130296417979 1.1624431216293714
          1.159967523784148 1.1624696301696593 1.1308592446387713 1.265646322151829 1.162129943265164 1.1756092897283603
          1.1628260592835957 1.1268982738334596 1.110240156032705 1.1647304963669134 1.144293303980911 1.1628260592835957
          1.162528981447481 1.1717399515592533 1.195476661663289 1.1624460201445461 1.1637967951796395 1.1628260592835957
          1.1624231327008654 1.1699680042309089 1.1718075501018144 1.162592978586442 1.1565286094545728 1.156500971772938
          1.1669620933333333 1.162110238107162 1.162826059283596 1.162509610236532 1.161595022435507 1.1605063066343557
          1.1649392237831773 1.163098206298996 1.1635364705199451 1.160426938850106 1.162826059283596 1.1624723022072214
          1.1616543560713017 1.162163477115803 1.1624444206372315 1.1628209654301014 1.1624622770297557 1.1616548449564024
          1.162826059283596 1.162814243995697 1.1624679929267496 1.1622056409989927 1.162446776876785 1.1625393695176491
          1.16286422029988 1.1624504502236188 1.1625483203187217 1.1626342527545703 1.162826059283596 1.162540133799629
          1.1623009529598471 1.1624470913143694 1.1624250291386329 1.162534248179113 1.1623886174714881 1.162826059283596
          1.1628260592835957 1.1624453692588528 1.1625313441821867 1.1623381373648818 1.1624353361676778 1.1628260592835957
          1.1624170805941354 1.1625297659132077 1.162826059283596 1.1624447666490594 1.1628260592835955 1.1625294769133179
          1.1628260592835955 1.1625300031454977 1.1628260592835962 1.1624445654345725 1.1624373707801563 1.162379577266363
          1.1624324909612935 1.1624438794554826 1.1623576775104776 1.1624495399160686 1.1624429138450758 1.1624661518223254
          1.1624821660547342 1.1624161322865547 1.1623804474542188 1.162444594855473 1.1624309548323302 1.1624298709771375
          1.1624209214970609 1.162445184311781 1.1625301018257501 1.1628260592835955
        </DataArray>
        <DataArray type="Float64" Name="stream" format="ascii" RangeMin="-0.10340659110283824" RangeMax="0.013395087873724693">
          -0.0002836603234778432 -0.00016549587362118238 -0.0010675888041290437 -0.00018957977153140847 -0.0010921083471144128 -0.0024402490811611605
          -0.0004853016679764706 -0.005084383815832318 -0.002017410455178344 -0.0005248407727819144 -0.002732739346536578 -0.005447474687194259
          -0.01013352091731775 -0.010335711378300541 -0.0005050705061846652 -0.018125001384677385 -0.01835052172641769 -0.0029226045490317737
          -0.004159665427450796 0.013395087873724693 -0.007909268132495439 0.0029919530892580214 -0.036257631563375775 -0.012968098564517265
          -0.0037320620608261154 -0.021047010823191523 -0.04121555988232166 -0.01601058842929018 -0.05604437774827961 -0.036469467993046394
          -0.05375610723974369 -0.0037894083039773977 -0.0053361501373904155 -0.04373562192701324 -0.10340659110283824 -0.009831636045301084
          -0.0858195046023459 -0.01583067134321797 -0.05450473906589442 -0.04583976097819884 -0.023830631809119533 -0.04999541873527618
          -0.10284393892924297 -0.056489851484202304 -0.09151432509994159 -0.036550261115141015 -0.047555558483987403 -0.004613345440740271
          -0.006258572848100776 -0.04810607828783392 -0.06343994707241135 -0.010944144361264934 -0.042569552250751805 -0.09768948678273179
          -0.017237944419389133 -0.08922676308396763 -0.05408881252145347 -0.024516091204719294 -0.0750224980222655 -0.051538857491520214
          -0.051582720962759926 -0.034382798694684566 -0.09882155254110155 -0.09385924870144764 -0.04802253562712682 -0.046166192917145556
          -0.06420121918337195 -0.08428119495177283 -0.05113222924560267 -0.05316126984961774 -0.09947614186591318 -0.0964396968666462
          -0.05286765753548047 -0.07516206577596424 -0.09017910183954836 -0.04995308485277074 -0.035544651122926464 -0.059431417334321786
          -0.09976139837265457 -0.0441741187149173 -0.09813070610722145 -0.051603150945551776 -0.08395042482004197 -0.06935595947616609
          -0.051506345656007764 -0.09455554666067893 -0.053071762295411135 -0.05762379235909689 -0.09992145628916652 -0.0992515059788363
          -0.0518354755353322 -0.09058630795357295 -0.07882685536106694 -0.09764842398539127 -0.06647374856967465 -0.09999999999999791
          -0.09976591776012961 -0.0868900271370394 -0.09558977849112461 -0.050680128812803385 -0.07576868037651857 -0.09912028798361107
          -0.0530050382780919 -0.09329906182413975 -0.09802258382438032 -0.08432056605540744 -0.09649755223390528 -0.09147615386477354
          -0.09459302924036345 -0.007145147855049554 -0.005026119422535008 -0.012376029709475897 -0.018973571188052214 -0.028830762667690718
          -0.03766963955955905 -0.03166410268443858 -0.0461184227664378 -0.05102375744778285 -0.04751582091182432 -0.05280423681029714
          -0.05242219428794004 -0.0528251526889334 -0.057281275728626624 -0.06604237148809391 -0.07535968123172192 -0.05303416545946894
          -0.05445330120990797 -0.08400495871408901 -0.09133057995184862 -0.09459302924036345
        </DataArray>
      </PointData>
      <CellData>
        <DataArray type="UInt8" Name="vtkGhostType" format="ascii" RangeMin="0" RangeMax="0">
          0 0 0 0 0 0
          0 0 0 0 0 0
          0 0 0 0 0 0
          0 0 0 0 0 0
          0 0 0 0 0 0
          0 0 0 0 0 0
          0 0 0 0 0 0
          0 0 0 0 0 0
          0 0 0 0 0 0
          0 0 0 0 0 0
          0 0 0 0 0 0
          0 0 0 0 0 0
          0 0 0 0 0 0
          0 0 0 0 0 0
          0 0 0 0 0 0
          0 0 0 0 0 0
          0 0 0 0 0 0
          0 0 0
        </DataArray>
      </CellData>
      <Points>
        <DataArray type="Float32" Name="Points" NumberOfComponents="3" format="ascii" RangeMin="0" RangeMax="3.1286985764484094">
          -1.5 0 0 -1.2999999523162842 0 0
          -1.5 0.3888888955116272 0 -1.100000023841858 0 0
          -1.3001110553741455 0.3888888955116272 0 -1.1002229452133179 0.3888888955116272 0
          -0.8999999761581421 0 0 -0.9003344178199768 0.3888888955116272 0
          -1.5 0.7777777910232544 0 -0.699999988079071 0 0
          -1.3004289865493774 0.7777777910232544 0 -1.1008570194244385 0.7777777910232544 0
          -0.7004457712173462 0.3888888955116272 0 -0.9012860059738159 0.7777777910232544 0
          -0.5 0 0 -0.5005573034286499 0.3888888955116272 0
          -0.7017146944999695 0.7777777910232544 0 -1.5 1.1666669845581055 0
          -1.3009259700775146 1.1666669845581055 0 -0.30000001192092896 0 0
          -1.1018520593643188 1.1666669845581055 0 -0.3006686866283417 0.3888888955116272 0
          -0.5021433234214783 0.7777777910232544 0 -0.9027777910232544 1.1666669845581055 0
          -0.10000000149011612 0 0 -0.7037037014961243 1.1666669845581055 0
          -0.30257201194763184 0.7777777910232544 0 -0.1007801964879036 0.3888888955116272 0
          0 0 0 -0.5046296119689941 1.1666669845581055 0
          -4.440892098500626e-16 0.3888888955116272 0 -1.5 1.555556058883667 0
          -1.3015780448913574 1.555556058883667 0 -0.1030007004737854 0.7777777910232544 0
          0.10000000149011612 0 0 -1.1031550168991089 1.555556058883667 0
          0.1007801964879036 0.3888888955116272 0 -0.9047325253486633 1.555556058883667 0
          -0.3055556118488312 1.1666669845581055 0 4.440892098500626e-16 0.7777777910232544 0
          -0.706309974193573 1.555556058883667 0 0.1030007004737854 0.7777777910232544 0
          0.30000001192092896 0 0 -0.10648149996995926 1.1666669845581055 0
          0.3006686866283417 0.3888888955116272 0 -0.5078874826431274 1.555556058883667 0
          -4.440892098500626e-16 1.1666669845581055 0 -1.5 1.944443941116333 0
          -1.3023580312728882 1.944443941116333 0 -0.3094649910926819 1.555556058883667 0
          0.30257201194763184 0.7777777910232544 0 -1.1047149896621704 1.944443941116333 0
          0.10648149996995926 1.1666669845581055 0 0.5 0 0
          -0.9070730209350586 1.944443941116333 0 0.5005573034286499 0.3888888955116272 0
          -0.11104249954223633 1.555556058883667 0 -0.7094306945800781 1.944443941116333 0
          0.5021433234214783 0.7777777910232544 0 0.3055556118488312 1.1666669845581055 0
          4.440892098500626e-16 1.555556058883667 0 -0.5117884278297424 1.944443941116333 0
          0.699999988079071 0 0 0.7004457712173462 0.3888888955116272 0
          0.11104249954223633 1.555556058883667 0 -0.31414610147476196 1.944443941116333 0
          0.5046296119689941 1.1666669845581055 0 0.7017146944999695 0.7777777910232544 0
          0.3094649910926819 1.555556058883667 0 -0.11650379747152328 1.944443941116333 0
          0.8999999761581421 0 0 0.9003344178199768 0.3888888955116272 0
          -4.440892098500626e-16 1.944443941116333 0 0.7037037014961243 1.1666669845581055 0
          0.9012860059738159 0.7777777910232544 0 0.11650379747152328 1.944443941116333 0
          -0.5162037014961243 2.3333330154418945 0 0.5078874826431274 1.555556058883667 0
          1.100000023841858 0 0 -0.3194443881511688 2.3333330154418945 0
          1.1002229452133179 0.3888888955116272 0 0.31414610147476196 1.944443941116333 0
          0.9027777910232544 1.1666669845581055 0 0.706309974193573 1.555556058883667 0
          -0.12268520146608353 2.3333330154418945 0 1.1008570194244385 0.7777777910232544 0
          -4.440892098500626e-16 2.3333330154418945 0 0.5117884278297424 1.944443941116333 0
          1.2999999523162842 0 0 1.3001110553741455 0.3888888955116272 0
          0.12268520146608353 2.3333330154418945 0 1.1018520593643188 1.1666669845581055 0
          0.9047325253486633 1.555556058883667 0 1.3004289865493774 0.7777777910232544 0
          0.7094306945800781 1.944443941116333 0 1.5 0 0
          1.5 0.3888888955116272 0 1.1031550168991089 1.555556058883667 0
          1.3009259700775146 1.1666669845581055 0 -0.12940670549869537 2.722222089767456 0
          0.9070730209350586 1.944443941116333 0 1.5 0.7777777910232544 0
          0 2.722222089767456 0 1.3015780448913574 1.555556058883667 0
          1.5 1.1666669845581055 0 1.1047149896621704 1.944443941116333 0
          1.5 1.555556058883667 0 1.3023580312728882 1.944443941116333 0
          1.5 1.944443941116333 0 -1.3032410144805908 2.3333330154418945 0
          -1.5 2.3333330154418945 0 -1.1064809560775757 2.3333330154418945 0
          -0.9097222089767456 2.3333330154418945 0 -0.7129629850387573 2.3333330154418945 0
          -0.5210047960281372 2.722222089767456 0 -0.716803789138794 2.722222089767456 0
          -0.32520580291748047 2.722222089767456 0 -0.13648830354213715 3.1111109256744385 0
          -0.33127570152282715 3.1111109256744385 0 0.12940670549869537 2.722222089767456 0
          0.3194443881511688 2.3333330154418945 0 0.32520580291748047 2.722222089767456 0
          0.5162037014961243 2.3333330154418945 0 0.7129629850387573 2.3333330154418945 0
          0.9097222089767456 2.3333330154418945 0 -4.440892098500626e-16 3.1111109256744385 0
          0.13648830354213715 3.1111109256744385 0 1.1064809560775757 2.3333330154418945 0
          1.3032410144805908 2.3333330154418945 0 1.5 2.3333330154418945 0
          <InformationKey name="L2_NORM_RANGE" location="vtkDataArray" length="2">
            <Value index="0">
              0
            </Value>
            <Value index="1">
              3.1286985764
            </Value>
          </InformationKey>
        </DataArray>
      </Points>
      <Cells>
        <DataArray type="Int64" Name="connectivity" format="ascii" RangeMin="0" RangeMax="129">
          47 48 109 110 31 32
          48 47 17 18 32 31
          8 10 18 17 2 4
          10 8 0 1 4 2
          48 51 111 109 32 35
          51 48 18 20 35 32
          10 11 20 18 4 5
          11 10 1 3 5 4
          51 54 112 111 35 37
          54 51 20 23 37 35
          11 13 23 20 5 7
          13 11 3 6 7 5
          54 57 113 112 37 40
          57 54 23 25 40 37
          13 16 25 23 7 12
          16 13 6 9 12 7
          113 76 114 115 57 61
          76 113 40 45 61 57
          25 29 45 40 16 22
          29 25 12 15 22 16
          9 14 15 12 76 79
          116 114 61 65 79 76
          45 49 65 61 29 38
          49 45 22 26 38 29
          15 21 26 22 14 19
          21 15 116 99 117 118
          79 84 99 116 65 69
          84 79 49 56 69 65
          38 43 56 49 26 33
          43 38 21 27 33 26
          19 24 27 21 84 86
          102 99 69 72 86 84
          56 60 72 69 43 46
          60 56 33 39 46 43
          27 30 39 33 24 28
          30 27 86 90 119 102
          72 75 90 86 60 64
          75 72 46 52 64 60
          39 41 52 46 30 36
          41 39 28 34 36 30
          90 120 121 119 75 81
          120 90 64 68 81 75
          52 59 68 64 41 50
          59 52 36 44 50 41
          34 42 44 36 81 87
          122 120 68 77 87 81
          59 66 77 68 50 58
          66 59 44 55 58 50
          42 53 55 44 87 94
          123 122 77 83 94 87
          66 73 83 77 58 67
          73 66 55 63 67 58
          53 62 63 55 94 100
          124 123 83 92 100 94
          73 82 92 83 67 74
          82 73 63 71 74 67
          62 70 71 63 92 97
          105 100 82 91 97 92
          74 85 91 82 71 80
          85 74 70 78 80 71
          91 98 103 97 85 93
          98 91 80 89 93 85
          78 88 89 80 93 101
          104 98 89 96 101 93
          88 95 96 89 99 102
          125 117 102 119 126 125
          100 105 127 124 105 107
          128 127 97 103 107 105
          107 108 129 128 103 106
          108 107 98 104 106 103
        </DataArray>
        <DataArray type="Int64" Name="offsets" format="ascii" RangeMin="4" RangeMax="420">
          4 8 12 16 20 24
          28 32 36 40 44 48
          52 56 60 64 68 72
          76 80 84 88 92 96
          100 104 108 112 116 120
          124 128 132 136 140 144
          148 152 156 160 164 168
          172 176 180 184 188 192
          196 200 204 208 212 216
          220 224 228 232 236 240
          244 248 252 256 260 264
          268 272 276 280 284 288
          292 296 300 304 308 312
          316 320 324 328 332 336
          340 344 348 352 356 360
          364 368 372 376 380 384
          388 392 396 400 404 408
          412 416 420
        </DataArray>
        <DataArray type="UInt8" Name="types" format="ascii" RangeMin="9" RangeMax="9">
          9 9 9 9 9 9
          9 9 9 9 9 9
          9 9 9 9 9 9
          9 9 9 9 9 9
          9 9 9 9 9 9
          9 9 9 9 9 9
          9 9 9 9 9 9
          9 9 9 9 9 9
          9 9 9 9 9 9
          9 9 9 9 9 9
          9 9 9 9 9 9
          9 9 9 9 9 9
          9 9 9 9 9 9
          9 9 9 9 9 9
          9 9 9 9 9 9
          9 9 9 9 9 9
          9 9 9 9 9 9
          9 9 9
        </DataArray>
      </Cells>
    </Piece>
  </UnstructuredGrid>
</VTKFile>
