<?xml version="1.0"?>
<VTKFile type="UnstructuredGrid" version="0.1" byte_order="LittleEndian" header_type="UInt32" compressor="vtkZLibDataCompressor">
  <UnstructuredGrid>
    <Piece NumberOfPoints="130" NumberOfCells="105">
      <PointData>
        <DataArray type="Float64" Name="Velocity" NumberOfComponents="3" format="ascii" RangeMin="0" RangeMax="0.9999999999999701">
          0 0 0 0 0 0
          0 0 0 0 0 0
          -0.0036024872812148168 0.0039006311938196703 0 -0.008594274974182525 0.005428343059244334 0
          0 0 0 -0.015774264625046275 0.006990939888133929 0
          0 0 0 0 0 0
          -0.0030882318797198494 0.008995495963472155 0 -0.006514648929186295 0.011774084505314808 0
          -0.03083196209454009 0.005530255907858828 0 -0.009638317873084556 0.013599957182674427 0
          0 0 0 -0.07489258020288503 0.012451629162563926 0
          -0.010640368828015001 0.02146290157534303 0 0 0 0
          -0.002006486324491741 0.0122375176153805 0 0 0 0
          -0.0040341611027061575 0.015224635420481275 0 -0.09422811789257057 -0.004513281323514362 0
          0.0013339664894345127 0.020980753044675615 0 -0.006007816724457049 0.01742148724939241 0
          0 0 0 -0.00803745080431284 0.01755844733639813 0
          -0.023889470230311627 0.03970601963944187 0 -0.06416154009541408 0.20646719467220498 0
          0 0.9999999999999701 0 -0.015330953137634773 0.02403680845198513 0
          0.05799382544342424 0.2632401998630316 0 0 0 0
          -0.0011537515779125318 0.01371710852801386 0 -0.026456606662458082 0.08987240368554694 0
          0 0 0 -0.00216086250917491 0.016658995051416867 0
          0.12277054968637957 0.12917865528540995 0 -0.002804749140715046 0.017805713676623508 0
          -0.010619616766609719 0.028599342066973232 0 -0.02458363312880918 0.08764031955737117 0
          -0.003112739114053298 0.02012020984682733 0 0.007298581180071553 0.0620822607053273 0
          0 0 0 0.0005093930373976097 0.008416270687299554 0
          0.08314040900666075 -0.03448738957851927 0 -0.00020828601928984947 0.021188430040941453 0
          0.007578472708252959 0.008252195779111182 0 0 0 0
          -0.0006304325851200776 0.013868486848909956 0 0.0019410050696742065 0.0196750891751038 0
          0.012272269786340884 0.04313264588700294 0 -0.0010141647604449133 0.01646747046407264 0
          0.0006230147761321914 0.018290029592345936 0 0 0 0
          -0.0012367042648124271 0.017355622138407828 0 0.04068469844894973 -0.01396471508515218 0
          0.0005032598559335799 0.023257465276027678 0 -0.0010639518951910398 0.01765665845578865 0
          0.020775433744766536 0.026424557094088197 0 0.006907995843499493 0.025145181091953184 0
          -0.0018151683078773129 0.025478281139802522 0 -0.0013536631693371048 0.01784761815083194 0
          0 0 0 0.019508794967983523 0.0007116221273717471 0
          0.001349669554559646 0.02385537480891614 0 -0.001672480614599181 0.018868788404620446 0
          0.007680918003288129 0.023378658142744202 0 0.015987894444355333 0.011957764806973747 0
          0.001283342082239347 0.02122788249290425 0 -0.0009598071365634064 0.019060980413886684 0
          0 0 0 0.01238269280211006 0.0029234426846032058 0
          0.0004974217422976102 0.018436289705138425 0 0.008579191327051261 0.020553599265414002 0
          0.01069598025897106 0.011076813013383119 0 0.00031734634897002956 0.018558392871846185 0
          -0.0004730439983937811 0.016712752145976506 0 0.0027638889083604345 0.02024439252956728 0
          0 0 0 -0.0001134586560532086 0.016801317838881752 0
          0.007667977686080352 0.0038789586633388717 0 0.001321486879583722 0.018693503236150877 0
          0.006693430914837567 0.016466857887708186 0 0.002984613090223784 0.018798006582730287 0
          0.0001901225776640425 0.016727936805388737 0 0.0064588658634867 0.00990490043391859 0
          0.00004719194973984431 0.01687957093052169 0 0.0014429384970308656 0.01809335782687152 0
          0 0 0 0.0036039939574596946 0.0037339884368432497 0
          0.00035146526027067526 0.016853260109866916 0 0.004486597031295177 0.014421065899019592 0
          0.0030403933533202643 0.01767625089773811 0 0.0028729845701069012 0.008325552608196896 0
          0.0016121785675395905 0.01756381182066663 0 0 0 0
          0 0 0 0.002304842859134265 0.016201888181735513 0
          0.002145142346249934 0.011703454990430455 0 -0.0000868115380604495 0.01521451196933149 0
          0.0014262622813809855 0.016911954094889325 0 0 0 0
          0.00008273371525058248 0.015197306168611723 0 0.0012057563538435956 0.013381216430677745 0
          0 0 0 0.0011292137091394039 0.016149225736726253 0
          0 0 0 0.0006627049482429426 0.013554751497071221 0
          0 0 0 -0.0003821106348406156 0.013257828280292594 0
          0 0 0 -0.0005324029626270765 0.015625581496331625 0
          -0.0005800099046378016 0.016087233953820355 0 -0.0006244203399347059 0.016366232618474946 0
          -0.00021824637528151947 0.015072588279680825 0 -0.0002832090770910345 0.0150161306360205 0
          -0.00015467072890719413 0.015123890291059372 0 0.000007303992177104535 0.013722021690426415 0
          -0.0000702208767655102 0.013724971154938816 0 0.00013346533173923605 0.015169177349449434 0
          0.00040737268264406934 0.016636044550257606 0 0.00028743972005819407 0.015118337309112766 0
          0.0006432436466429492 0.016488436001987405 0 0.000704537481877654 0.01622357881632565 0
          0.0007095278475234001 0.015937415285572354 0 0.00004234107819210686 0.013724273958080895 0
          0.00010711918424951465 0.013715750812696999 0 0.0005963173645482933 0.015379049097044142 0
          0.00040681464679914736 0.012976638043045663 0 0 0 0
          <InformationKey name="L2_NORM_RANGE" location="vtkDataArray" length="2">
            <Value index="0">
              0
            </Value>
            <Value index="1">
              1
            </Value>
          </InformationKey>
        </DataArray>
        <DataArray type="Float64" Name="Pressure" format="ascii" RangeMin="2.2833258839698676" RangeMax="38.27162854288763">
          38.206782837756506 38.21124354982906 33.76038498643984 38.224644807776045 33.76491782577289 33.77845132071173
          38.2461566250896 33.802039904150874 29.289085046293277 38.27162854288763 29.292870624184754 29.30397474173268
          33.83878092692622 29.322557803792186 38.26614971926369 33.91775569930576 29.34985597971974 24.79755374514826
          24.80008977995803 38.09614186946619 24.807227538265927 34.121843988623276 29.364606665708 24.818507675059593
          37.77543005007047 24.832626985680015 29.3716189233313 34.40662878191172 37.772861877024056 24.85855574435812
          34.41384016860758 20.294164800223434 20.295635487420803 29.407871935762692 37.806388780467195 20.299524420258134
          34.294944617263674 20.305285026119186 24.884554317274908 29.443981848691337 20.3126973907516 29.45706768802495
          38.07938504109264 24.883928488291456 34.009341826769074 20.316632589452027 24.874154333567102 15.786779350005492
          15.787592117499075 20.317662569352965 29.455216944221867 15.789528634359069 24.871450108169498 38.2305636542185
          15.792123914034471 33.84482614417562 20.323329787258505 15.794672870544927 29.403608031788927 24.85832653384761
          20.326828241022454 15.797794014255421 38.22767601476939 33.80500609802186 20.325653648172487 15.800884954346367
          24.8455082303187 29.343977346354798 20.322643595150726 15.80134060557733 38.21210903110998 33.77460041047121
          15.800512310350316 24.830857284706735 29.310629832289965 15.800414633824468 11.285904534963343 20.31622282895853
          38.19633708040154 11.28655785193695 33.754550313408394 15.798682177655213 24.81296424050502 20.308214315640775
          11.287084205643886 29.289655764924213 11.287310165462804 15.796015139946169 38.18588921319121 33.742763502261774
          11.28693967206489 24.79947148245202 20.301047549137493 29.277819464032685 15.792820828298604 38.18230644004105
          33.73877678944277 20.294633781939684 24.791139354151817 6.781885992357479 15.78931148149789 29.27387726793871
          6.781778619148004 20.290209919753643 24.788241672141236 15.786310605181411 20.28854724155921 15.78412313922454
          15.783224390089668 11.28106779398116 11.280574630665138 11.282091608811884 11.283336973622966 11.284757131415052
          6.781261040436445 6.780666735959442 6.781725895264947 2.2834591547288188 2.2833753972850106 6.781652800658378
          11.286078972084391 6.781188304709115 11.28477364876917 11.283155644102553 11.281518320937218 2.2834463533482543
          2.2833258839698676 11.279999884945134 11.278813074861315 11.278266926888735
        </DataArray>
        <DataArray type="Float64" Name="Temperature" format="ascii" RangeMin="285.0617550770422" RangeMax="599.9999999999822">
          299.999999999991 299.999999999991 299.9999999999909 299.999999999991 300.0526946680205 300.06196525526684
          299.999999999991 300.06484305405473 299.99999999999096 299.999999999991 300.04849064700846 300.0578366898174
          300.2624385838052 300.06331772990126 299.999999999991 298.24836905750607 300.0346314404508 299.99999999999096
          300.0493491067849 299.9999999999911 300.05826269599186 313.4925803849194 300.5607766964638 300.05906945922163
          599.9999999999822 300.07562679208905 294.981290770031 336.0017474812679 599.999999999982 299.87361362888555
          344.3176649438955 299.99999999999096 300.04932286438117 288.20853711091854 599.9999999999818 300.05819744060494
          306.05341192504926 300.06008099854256 301.1810318388216 285.0617550770422 300.05521703510306 297.04330450916666
          299.9999999999909 303.2423526682318 313.83444803291985 300.1169855838026 303.70213933269815 299.999999999991
          300.0492853100262 299.88489165548214 296.59458254158113 300.0582324646547 300.5737870431517 299.999999999991
          300.0595886649603 298.5288753471068 299.4766646590916 300.0617639846866 300.37076247455576 300.8295076438746
          299.2928837319219 300.0432046114984 299.9999999999911 300.0437901713452 300.05029380945575 300.08083518069014
          299.9677821275871 300.027269063564 299.9166306004631 300.1656132332659 299.99999999999096 300.0609770797691
          300.21954782194285 300.069970022957 300.05785318342026 300.03953086868944 300.0640145244649 300.09519524776664
          299.9999999999909 300.0584654570703 300.06114870470935 300.08713150908835 300.05948023551593 300.0572418588841
          300.0422070954696 300.05735618797416 300.0268358423593 300.0496518227741 299.999999999991 300.05268048933357
          300.0693062362492 300.05805264948197 300.0599159821372 300.0480323012188 300.0610268310415 299.9999999999909
          299.999999999991 300.05818501810376 300.04909540713334 300.062792013251 300.0596347006177 299.99999999999113
          300.0669541565571 300.0491914070264 299.9999999999911 300.0582017925183 299.999999999991 300.04922751094836
          299.99999999999096 300.04914591132376 299.999999999991 300.0581777214122 300.0597368256779 300.059250175615
          300.05913350019955 300.06018095322213 300.05984951224445 300.05961890711745 300.0601029194229 300.05703602297746
          300.05447753068586 300.0612571330818 300.0626813105303 300.0595435965304 300.0597179434248 300.0585312299958
          300.06082904598554 300.05816875810467 300.0491193793197 299.99999999999096
        </DataArray>
        <DataArray type="Float64" Name="Density" format="ascii" RangeMin="0.5811268335316474" RangeMax="1.223159872936105">
          1.162253667063295 1.162253667063295 1.1622536670632955 1.162253667063295 1.1620495543449618 1.1620136521546625
          1.162253667063295 1.1620025077585192 1.1622536670632952 1.162253667063295 1.162065835982416 1.1620296405703259
          1.1612378216986348 1.162008414613462 1.162253667063295 1.1690796540508455 1.1621195141540897 1.1622536670632952
          1.162062511240067 1.1622536670632948 1.162027990784723 1.1122307892928722 1.1600851712966722 1.1620248664617137
          0.5811268335316474 1.1619607491832797 1.1820278472874668 1.0377210914309807 0.5811268335316475 1.1627435168420286
          1.0126581805664625 1.1622536670632952 1.1620626128744027 1.2098048989603256 0.5811268335316477 1.1620282434976528
          1.139265522072882 1.1620209491334226 1.157696080626929 1.223159872936105 1.162039785757789 1.1738224522351355
          1.1622536670632955 1.1498265234093272 1.111019208708419 1.1618006206503635 1.148085755619298 1.162253667063295
          1.1620627583188814 1.1626997885560335 1.17559834414742 1.1620281078608643 1.1600349569702184 1.162253667063295
          1.1620228557611663 1.1679811532923368 1.1642847048396658 1.162014431591399 1.1608190399307396 1.1590488674127832
          1.1649996343758342 1.1620863087715998 1.1622536670632948 1.1620840408657034 1.1620588525082456 1.1619405814737447
          1.1623784982704362 1.1621480314347936 1.1625767448136957 1.1616124057755193 1.1622536670632952 1.1620174789549025
          1.1614037215383932 1.1619826538866997 1.1620295766957924 1.1621005375840763 1.1620057162520891 1.1618849806345675
          1.1622536670632955 1.16202720555759 1.162016814319773 1.161916202022872 1.162023275669554 1.1620319441680373
          1.1620901722271153 1.1620315014058384 1.162149709508586 1.162061338851096 1.162253667063295 1.1620496092564419
          1.1619852243216773 1.162028804227061 1.1620215881808584 1.162067611124813 1.162017286287935 1.1622536670632955
          1.162253667063295 1.1620282916059796 1.1620634937954513 1.162010450477913 1.1620226774816516 1.1622536670632946
          1.1619943325617244 1.1620631219965118 1.1622536670632948 1.1620282266441018 1.162253667063295 1.1620629821693356
          1.1622536670632952 1.162063298197241 1.162253667063295 1.1620283198637065 1.1620222819882837 1.1620241666101252
          1.1620246184532363 1.1620205620463013 1.1620218455943394 1.1620227386441815 1.1620208642420227 1.1620327413094806
          1.1620426496829057 1.162016394420206 1.162010879180735 1.1620230302950105 1.1620223551123905 1.162026950840857
          1.1620180522314763 1.1620283545757 1.1620634009533104 1.1622536670632952
        </DataArray>
        <DataArray type="Float64" Name="stream" format="ascii" RangeMin="-0.10179879329281583" RangeMax="0.004954265740064737">
          -0.00015521026932292168 -0.000009465408626949394 -0.0007123054585748358 -0.00002151131390336347 -0.0007761318049244645 -0.001802078982181651
          -0.0002608522332584653 -0.0035570704224233375 -0.0015309649834784086 -0.0009355374011740169 -0.0022916463030962825 -0.004825247352396696
          -0.0078461938476952 -0.00847040849642666 0.00032092847455728914 -0.013523241899964664 -0.015367973565825026 -0.002327599909776594
          -0.0035736607210433585 0.004954265740064737 -0.006969009648097652 -0.008659806281640064 -0.026382297653329313 -0.011275747376924161
          -0.003143906563332401 -0.017663116034306647 -0.032507322451437407 -0.01868499965601927 -0.053551533074086874 -0.0276368805540331
          -0.04576603239704685 -0.0030191942922872857 -0.004508670068437177 -0.03674594084766493 -0.09793371055815069 -0.00842103349767201
          -0.0724900665493534 -0.013109096772226917 -0.038724673043307345 -0.03942122592285544 -0.019158423963126767 -0.04888948458868818
          -0.10179879329281583 -0.043535472240973476 -0.08618550087310928 -0.02848118592583315 -0.04387192180416564 -0.0036476942259624796
          -0.005233398031751712 -0.03700544238303282 -0.06328861530723813 -0.009273950723247226 -0.0476688602612702 -0.0993230525419613
          -0.014324784900863507 -0.09006300085073074 -0.04194650362001862 -0.020090458669332942 -0.07545739227719048 -0.05730669289279455
          -0.04320469604673731 -0.027233866724011534 -0.09903710084021151 -0.09370086200551961 -0.04660012133370469 -0.035322705346039734
          -0.06741593403714168 -0.08440429055967538 -0.054255280847188565 -0.041014002726513524 -0.09954806285734082 -0.09631232230224028
          -0.04341936172576971 -0.0770472764897684 -0.0902252324273592 -0.046265477930306706 -0.02791690449034883 -0.06316839672416082
          -0.0998147364153665 -0.03430297195296549 -0.09795773037478976 -0.052591425183816404 -0.08487532119244703 -0.0723454213957122
          -0.04005702293428311 -0.09436483632923617 -0.04289893524182786 -0.060904103346124366 -0.09998795419691518 -0.09921474676100125
          -0.04587127099343455 -0.09091096367313023 -0.08073828325495697 -0.09758884155187308 -0.06966191677777374 -0.09999999999999702
          -0.09982426530732655 -0.08785482709870146 -0.09575482035182747 -0.039464410587144526 -0.07814299866771832 -0.09921525484934925
          -0.04250930255546557 -0.093795379759964 -0.09821917624942603 -0.08573242351231494 -0.09687406137513593 -0.09225695350651834
          -0.09521906026906365 -0.005866945047768361 -0.003964460098450587 -0.010265292583152091 -0.015503571521047189 -0.022736037175185787
          -0.029288025259591302 -0.02459168077925403 -0.035589102621179106 -0.0397265518012874 -0.03658786776417731 -0.045568396111514343
          -0.05158856990280792 -0.049968371278166994 -0.060666297072367426 -0.06936935561803308 -0.07786509718052335 -0.042549485287892715
          -0.0449064709737512 -0.0855211895963096 -0.09215787023575932 -0.09521906026906365
        </DataArray>
      </PointData>
      <CellData>
        <DataArray type="UInt8" Name="vtkGhostType" format="ascii" RangeMin="0" RangeMax="0">
          0 0 0 0 0 0
          0 0 0 0 0 0
          0 0 0 0 0 0
          0 0 0 0 0 0
          0 0 0 0 0 0
          0 0 0 0 0 0
          0 0 0 0 0 0
          0 0 0 0 0 0
          0 0 0 0 0 0
          0 0 0 0 0 0
          0 0 0 0 0 0
          0 0 0 0 0 0
          0 0 0 0 0 0
          0 0 0 0 0 0
          0 0 0 0 0 0
          0 0 0 0 0 0
          0 0 0 0 0 0
          0 0 0
        </DataArray>
      </CellData>
      <Points>
        <DataArray type="Float32" Name="Points" NumberOfComponents="3" format="ascii" RangeMin="0" RangeMax="3.1286985764484094">
          -1.5 0 0 -1.2999999523162842 0 0
          -1.5 0.3888888955116272 0 -1.100000023841858 0 0
          -1.3001110553741455 0.3888888955116272 0 -1.1002229452133179 0.3888888955116272 0
          -0.8999999761581421 0 0 -0.9003344178199768 0.3888888955116272 0
          -1.5 0.7777777910232544 0 -0.699999988079071 0 0
          -1.3004289865493774 0.7777777910232544 0 -1.1008570194244385 0.7777777910232544 0
          -0.7004457712173462 0.3888888955116272 0 -0.9012860059738159 0.7777777910232544 0
          -0.5 0 0 -0.5005573034286499 0.3888888955116272 0
          -0.7017146944999695 0.7777777910232544 0 -1.5 1.1666669845581055 0
          -1.3009259700775146 1.1666669845581055 0 -0.30000001192092896 0 0
          -1.1018520593643188 1.1666669845581055 0 -0.3006686866283417 0.3888888955116272 0
          -0.5021433234214783 0.7777777910232544 0 -0.9027777910232544 1.1666669845581055 0
          -0.10000000149011612 0 0 -0.7037037014961243 1.1666669845581055 0
          -0.30257201194763184 0.7777777910232544 0 -0.1007801964879036 0.3888888955116272 0
          0 0 0 -0.5046296119689941 1.1666669845581055 0
          -4.440892098500626e-16 0.3888888955116272 0 -1.5 1.555556058883667 0
          -1.3015780448913574 1.555556058883667 0 -0.1030007004737854 0.7777777910232544 0
          0.10000000149011612 0 0 -1.1031550168991089 1.555556058883667 0
          0.1007801964879036 0.3888888955116272 0 -0.9047325253486633 1.555556058883667 0
          -0.3055556118488312 1.1666669845581055 0 4.440892098500626e-16 0.7777777910232544 0
          -0.706309974193573 1.555556058883667 0 0.1030007004737854 0.7777777910232544 0
          0.30000001192092896 0 0 -0.10648149996995926 1.1666669845581055 0
          0.3006686866283417 0.3888888955116272 0 -0.5078874826431274 1.555556058883667 0
          -4.440892098500626e-16 1.1666669845581055 0 -1.5 1.944443941116333 0
          -1.3023580312728882 1.944443941116333 0 -0.3094649910926819 1.555556058883667 0
          0.30257201194763184 0.7777777910232544 0 -1.1047149896621704 1.944443941116333 0
          0.10648149996995926 1.1666669845581055 0 0.5 0 0
          -0.9070730209350586 1.944443941116333 0 0.5005573034286499 0.3888888955116272 0
          -0.11104249954223633 1.555556058883667 0 -0.7094306945800781 1.944443941116333 0
          0.5021433234214783 0.7777777910232544 0 0.3055556118488312 1.1666669845581055 0
          4.440892098500626e-16 1.555556058883667 0 -0.5117884278297424 1.944443941116333 0
          0.699999988079071 0 0 0.7004457712173462 0.3888888955116272 0
          0.11104249954223633 1.555556058883667 0 -0.31414610147476196 1.944443941116333 0
          0.5046296119689941 1.1666669845581055 0 0.7017146944999695 0.7777777910232544 0
          0.3094649910926819 1.555556058883667 0 -0.11650379747152328 1.944443941116333 0
          0.8999999761581421 0 0 0.9003344178199768 0.3888888955116272 0
          -4.440892098500626e-16 1.944443941116333 0 0.7037037014961243 1.1666669845581055 0
          0.9012860059738159 0.7777777910232544 0 0.11650379747152328 1.944443941116333 0
          -0.5162037014961243 2.3333330154418945 0 0.5078874826431274 1.555556058883667 0
          1.100000023841858 0 0 -0.3194443881511688 2.3333330154418945 0
          1.1002229452133179 0.3888888955116272 0 0.31414610147476196 1.944443941116333 0
          0.9027777910232544 1.1666669845581055 0 0.706309974193573 1.555556058883667 0
          -0.12268520146608353 2.3333330154418945 0 1.1008570194244385 0.7777777910232544 0
          -4.440892098500626e-16 2.3333330154418945 0 0.5117884278297424 1.944443941116333 0
          1.2999999523162842 0 0 1.3001110553741455 0.3888888955116272 0
          0.12268520146608353 2.3333330154418945 0 1.1018520593643188 1.1666669845581055 0
          0.9047325253486633 1.555556058883667 0 1.3004289865493774 0.7777777910232544 0
          0.7094306945800781 1.944443941116333 0 1.5 0 0
          1.5 0.3888888955116272 0 1.1031550168991089 1.555556058883667 0
          1.3009259700775146 1.1666669845581055 0 -0.12940670549869537 2.722222089767456 0
          0.9070730209350586 1.944443941116333 0 1.5 0.7777777910232544 0
          0 2.722222089767456 0 1.3015780448913574 1.555556058883667 0
          1.5 1.1666669845581055 0 1.1047149896621704 1.944443941116333 0
          1.5 1.555556058883667 0 1.3023580312728882 1.944443941116333 0
          1.5 1.944443941116333 0 -1.3032410144805908 2.3333330154418945 0
          -1.5 2.3333330154418945 0 -1.1064809560775757 2.3333330154418945 0
          -0.9097222089767456 2.3333330154418945 0 -0.7129629850387573 2.3333330154418945 0
          -0.5210047960281372 2.722222089767456 0 -0.716803789138794 2.722222089767456 0
          -0.32520580291748047 2.722222089767456 0 -0.13648830354213715 3.1111109256744385 0
          -0.33127570152282715 3.1111109256744385 0 0.12940670549869537 2.722222089767456 0
          0.3194443881511688 2.3333330154418945 0 0.32520580291748047 2.722222089767456 0
          0.5162037014961243 2.3333330154418945 0 0.7129629850387573 2.3333330154418945 0
          0.9097222089767456 2.3333330154418945 0 -4.440892098500626e-16 3.1111109256744385 0
          0.13648830354213715 3.1111109256744385 0 1.1064809560775757 2.3333330154418945 0
          1.3032410144805908 2.3333330154418945 0 1.5 2.3333330154418945 0
          <InformationKey name="L2_NORM_RANGE" location="vtkDataArray" length="2">
            <Value index="0">
              0
            </Value>
            <Value index="1">
              3.1286985764
            </Value>
          </InformationKey>
        </DataArray>
      </Points>
      <Cells>
        <DataArray type="Int64" Name="connectivity" format="ascii" RangeMin="0" RangeMax="129">
          47 48 109 110 31 32
          48 47 17 18 32 31
          8 10 18 17 2 4
          10 8 0 1 4 2
          48 51 111 109 32 35
          51 48 18 20 35 32
          10 11 20 18 4 5
          11 10 1 3 5 4
          51 54 112 111 35 37
          54 51 20 23 37 35
          11 13 23 20 5 7
          13 11 3 6 7 5
          54 57 113 112 37 40
          57 54 23 25 40 37
          13 16 25 23 7 12
          16 13 6 9 12 7
          113 76 114 115 57 61
          76 113 40 45 61 57
          25 29 45 40 16 22
          29 25 12 15 22 16
          9 14 15 12 76 79
          116 114 61 65 79 76
          45 49 65 61 29 38
          49 45 22 26 38 29
          15 21 26 22 14 19
          21 15 116 99 117 118
          79 84 99 116 65 69
          84 79 49 56 69 65
          38 43 56 49 26 33
          43 38 21 27 33 26
          19 24 27 21 84 86
          102 99 69 72 86 84
          56 60 72 69 43 46
          60 56 33 39 46 43
          27 30 39 33 24 28
          30 27 86 90 119 102
          72 75 90 86 60 64
          75 72 46 52 64 60
          39 41 52 46 30 36
          41 39 28 34 36 30
          90 120 121 119 75 81
          120 90 64 68 81 75
          52 59 68 64 41 50
          59 52 36 44 50 41
          34 42 44 36 81 87
          122 120 68 77 87 81
          59 66 77 68 50 58
          66 59 44 55 58 50
          42 53 55 44 87 94
          123 122 77 83 94 87
          66 73 83 77 58 67
          73 66 55 63 67 58
          53 62 63 55 94 100
          124 123 83 92 100 94
          73 82 92 83 67 74
          82 73 63 71 74 67
          62 70 71 63 92 97
          105 100 82 91 97 92
          74 85 91 82 71 80
          85 74 70 78 80 71
          91 98 103 97 85 93
          98 91 80 89 93 85
          78 88 89 80 93 101
          104 98 89 96 101 93
          88 95 96 89 99 102
          125 117 102 119 126 125
          100 105 127 124 105 107
          128 127 97 103 107 105
          107 108 129 128 103 106
          108 107 98 104 106 103
        </DataArray>
        <DataArray type="Int64" Name="offsets" format="ascii" RangeMin="4" RangeMax="420">
          4 8 12 16 20 24
          28 32 36 40 44 48
          52 56 60 64 68 72
          76 80 84 88 92 96
          100 104 108 112 116 120
          124 128 132 136 140 144
          148 152 156 160 164 168
          172 176 180 184 188 192
          196 200 204 208 212 216
          220 224 228 232 236 240
          244 248 252 256 260 264
          268 272 276 280 284 288
          292 296 300 304 308 312
          316 320 324 328 332 336
          340 344 348 352 356 360
          364 368 372 376 380 384
          388 392 396 400 404 408
          412 416 420
        </DataArray>
        <DataArray type="UInt8" Name="types" format="ascii" RangeMin="9" RangeMax="9">
          9 9 9 9 9 9
          9 9 9 9 9 9
          9 9 9 9 9 9
          9 9 9 9 9 9
          9 9 9 9 9 9
          9 9 9 9 9 9
          9 9 9 9 9 9
          9 9 9 9 9 9
          9 9 9 9 9 9
          9 9 9 9 9 9
          9 9 9 9 9 9
          9 9 9 9 9 9
          9 9 9 9 9 9
          9 9 9 9 9 9
          9 9 9 9 9 9
          9 9 9 9 9 9
          9 9 9 9 9 9
          9 9 9
        </DataArray>
      </Cells>
    </Piece>
  </UnstructuredGrid>
</VTKFile>
