<?xml version="1.0"?>
<VTKFile type="UnstructuredGrid" version="0.1" byte_order="LittleEndian" header_type="UInt32" compressor="vtkZLibDataCompressor">
  <UnstructuredGrid>
    <Piece NumberOfPoints="129" NumberOfCells="106">
      <PointData>
        <DataArray type="Float64" Name="Velocity" NumberOfComponents="3" format="ascii" RangeMin="0" RangeMax="0.018740154503442474">
          0.00040737268264406934 0.016636044550257606 0 0.0006432436466429492 0.016488436001987405 0
          0.00013346533173923605 0.015169177349449434 0 0.000704537481877654 0.01622357881632565 0
          0.00028743972005819407 0.015118337309112766 0 0.0007095278475234001 0.015937415285572354 0
          0.0003456369309409041 0.01500809092555453 0 0.00004234107819210686 0.013724273958080895 0
          0.0005963173645482933 0.015379049097044142 0 0.0003961869391781725 0.014897762120884207 0
          0.00010711918424951465 0.013715750812696999 0 0.00015191978416135427 0.013677507241171507 0
          0.0003946959167604597 0.014735442097892758 0 0.00040681464679914736 0.012976638043045663 0
          0.00020626210803578043 0.013638259795518907 0 0.00036726757743456295 0.014310246831877024 0
          0 0 0 0.00003193568484882725 0.012342532096032829 0
          0.00023691660462688002 0.013579150629338049 0 0.00006516111202451054 0.012334307263138618 0
          0.00029706758821589074 0.012074286245244696 0 0.0002569649666332649 0.013478597872810806 0
          0.00010721329641663613 0.012315773825174962 0 0.00014014977757284552 0.01229232076637124 0
          0 0 0 0.00026426441644659265 0.013107643002484261 0
          0.00017021724051659998 0.01226108279193543 0 0.00024764051848738186 0.011035435413138535 0
          0.00005038810156569179 0.010985685577068287 0 0.0001948516220214233 0.012185248305230384 0
          0.00008009026624419824 0.010973700646667129 0 0 0 0
          0.00021938630206053827 0.01184927498576175 0 0.0001102021868634312 0.010961822319295806 0
          0.00013808935266892974 0.01094125137850732 0 0.00022578241065063231 0.009941990760967231 0
          0.00016677601615655568 0.0108778562466481 0 0.000039823817798267935 0.009650793109927579 0
          0 0 0 0.0000675860638976733 0.009643125313495357 0
          0.00019882981856506055 0.010567220276864825 0 0.00009507273705308683 0.009635567824798224 0
          0.0002155972347829549 0.008830851990936875 0 0.0001231324368642095 0.009620410080145081 0
          0 0 0 0.00015359577224854926 0.009563483681441574 0
          0.00003432836957406593 0.008321954170057419 0 0.00018939530496689394 0.00927674595083279 0
          0.000060667294303651254 0.008316493972867364 0 0.00008762578281984457 0.008311306702284665 0
          0.00021067011938935565 0.007717999712721357 0 0.0001157155743211069 0.008298623642576691 0
          0 0 0 0.00014732042770632114 0.008246354747399043 0
          0.00003096958537254779 0.006995774444777253 0 0.00018491249468377546 0.007984673303915113 0
          0.000056993252341153156 0.006991732242232651 0 0.00020811889739322242 0.006610823821632139 0
          0.0000836513112407733 0.006987667581049073 0 0.00011193548734045322 0.0069764043850671364 0
          0 0 0 0.00014420287273297916 0.006928401453077049 0
          0.00018271753528653623 0.006694358195974748 0 0.000029010506643778466 0.005670963879202434 0
          0.000054832606655952354 0.005667827966905237 0 0.00020673872821708184 0.00551262956329851 0
          0.00008136889308757445 0.005664347996120173 0 0 0 0
          0.00010977168857329023 0.005654027227229685 0 0.0001425108482018822 0.0056106461339791025 0
          0.00018160003158085303 0.005407409326513901 0 0.000028038171832278636 0.0043468363616880334 0
          0.00005361193530722952 0.0043442764832883896 0 0.0002057709042598832 0.004424739320184279 0
          0.00007996655769398897 0.004341020836640119 0 0 0 0
          0.00010842339981265159 0.0043314624469121266 0 0.00014145374584456638 0.004293340545581503 0
          0.0001809795302226691 0.004124245085234068 0 0.000027345694637803675 0.003019596516089962 0
          0.00020597054484017274 0.0033476535795012863 0 0.0000523459596485365 0.0030174096760997027 0
          0.00007816937190396889 0.0030141236392387527 0 0 0 0
          0.00010634893835181902 0.0030051358340698053 0 0.00013947749888065797 0.0029728849830351622 0
          0.00017884384245481222 0.002840632468635862 0 0.000058450045137159456 0.0016662907385726622 0
          0.00020322593746280315 0.0022747431058591783 0 0.00008384529235827554 0.0016645677393177793 0
          0 0 0 0.00011012282682187902 0.0016613365880965292 0
          0.0001393713704537225 0.0016526906931870755 0 0.00017529425604723148 0.001626004286698568 0
          0.00021957406498507304 0.001534916249647078 0 0.00023871537467867743 0.0011946110849241354 0
          0 0 0 0 0 0
          0 0 0 0 0 0
          0 0 0 0 0 0
          0 0 0 0 0 0
          0 0 0 0.00004719194973984431 0.01687957093052169 0
          0.00035146526027067526 0.016853260109866916 0 0.00008273371525058248 0.015197306168611723 0
          0.00031734634897002956 0.018558392871846185 0 0.001321486879583722 0.018693503236150877 0
          0.0014429384970308656 0.01809335782687152 0 0.0016121785675395905 0.01756381182066663 0
          0.0014262622813809855 0.016911954094889325 0 -0.000010322285480354743 0.012341806828789253 0
          0.000019584158106517036 0.010990637886087888 0 -0.00000957603358492376 0.010990398602141679 0
          0.000007303992177104535 0.013722021690426415 0 -0.0000868115380604495 0.01521451196933149 0
          0.000008743710652292513 0.00832486948055021 0 0.000005865485125711167 0.006998135213230328 0
          0.00001340958377313295 0.009654608338433082 0 0.0011292137091394039 0.016149225736726253 0
          0.0006627049482429426 0.013554751497071221 0 0 0 0
          0.00003313900212997822 0.001667285099342497 0 0 0 0
          0.000002732040323694118 0.003020932789649766 0 0.0000030566050172597947 0.0043484476505934455 0
          0.000003948689733634936 0.005672900184026769 0
          <InformationKey name="L2_NORM_RANGE" location="vtkDataArray" length="2">
            <Value index="0">
              0
            </Value>
            <Value index="1">
              0.018740154503
            </Value>
          </InformationKey>
        </DataArray>
        <DataArray type="Float64" Name="Pressure" format="ascii" RangeMin="-42.365571920574716" RangeMax="15.800414633824468">
          11.286078972084391 11.28477364876917 6.781652800658378 11.283155644102553 6.781188304709115 11.281518320937218
          6.7804947046657436 2.2834463533482543 11.279999884945134 6.779665678946055 2.2833258839698676 2.28304468517423
          6.778769146198778 11.278813074861315 2.282640401349199 6.77791610623789 11.278266926888735 -2.208534468752661
          2.2821401612428187 -2.2086087718937897 6.777171269867792 2.2815901066885913 -2.208796451572515 -2.2090708107512835
          6.776780455404132 2.2810247153962337 -2.209414959025932 2.280475689366394 -6.694387044704185 -2.209813198686574
          -6.694527617415902 2.2801549102748826 -2.2102473637326496 -6.694737341644617 -6.69500962122662 -2.2107078317668463
          -6.695336023697158 -11.174107989246975 -2.2109960601355847 -11.174223842349173 -6.695709584060539 -11.174401865223057
          -6.696127953141782 -11.174638552964781 -6.69639987650226 -11.174930344135248 -15.647815526283352 -11.17527407318609
          -15.647918009548304 -15.648079339801695 -11.175671068880796 -15.648297837071281 -11.175933941849955 -15.64857169385974
          -20.115528272799743 -15.648899741686328 -20.115623363251885 -15.6492847626469 -20.115775543088606 -20.115983953382425
          -15.649541915912975 -20.11624776586694 -20.11656665909817 -24.57724376170031 -24.57733448841536 -20.116944096772155
          -24.57748108493031 -20.117197273405374 -24.577683171694222 -24.577940449078216 -24.578253241925623 -29.032990167111127
          -29.033077813171488 -24.5786253729475 -29.033220169919645 -24.578875050693366 -29.033417256550262 -29.033669104396292
          -29.033976216908908 -33.48276180110117 -29.03434333926281 -33.48284633561189 -33.4829839281236 -29.034591611979366
          -33.483175087009556 -33.48342086591856 -33.48372253149919 -37.926551817164444 -33.48408329578221 -37.9266328890112
          -33.48432356069228 -37.92676428839034 -37.9269456726042 -37.927177916306995 -37.92746628673865 -37.927818534348205
          -42.36427626951969 -42.364355669775605 -37.92805941416836 -42.36448311432017 -42.36465591292914 -42.364868411701124
          -42.36511151932148 -42.36540089599704 -42.365571920574716 11.287310165462804 11.28693967206489 6.781778619148004
          15.800414633824468 15.798682177655213 15.796015139946169 15.792820828298604 15.78931148149789 -2.208507334312279
          -6.694327774508539 -6.694318262704051 2.2834591547288188 6.781885992357479 -15.647775606758781 -20.11549253208227
          -11.17406142208754 15.786310605181411 15.78412313922454 15.783224390089668 -37.92652255245274 -42.36424742579051
          -33.48273119233237 -29.032958258792068 -24.577210375798572
        </DataArray>
        <DataArray type="Float64" Name="Temperature" format="ascii" RangeMin="299.9999999999909" RangeMax="300.08713150908835">
          300.05447753068586 300.0626813105303 300.05703602297746 300.0595435965304 300.0612571330818 300.0597179434248
          300.0593456414844 300.0585312299958 300.05816875810467 300.06008583725065 300.06082904598554 300.0596937176213
          300.0596685853238 300.0491193793197 300.0601473269584 300.0581093454035 299.99999999999096 300.060320517686
          300.0599025515575 300.05979221282837 300.0489580945584 300.0596619271704 300.0600821755199 300.059956531684
          299.999999999991 300.05803169177 300.0599492548983 300.04876649176896 300.06005649271935 300.05963199302016
          300.05998174827363 299.9999999999909 300.05794569986756 300.05999995205985 300.0599283021708 300.04856076422567
          300.0596078680158 300.05999193855774 299.999999999991 300.0600072460901 300.05785392104156 300.05998742306605
          300.04834832574755 300.05992495053385 299.9999999999911 300.05957919540475 300.0600070755962 300.0577588216644
          300.0600002003846 300.05998823093154 300.0481336805562 300.0599163238449 299.99999999999096 300.05955005728117
          300.0600034460483 300.0576618290096 300.06000138197453 300.04791948043555 300.05998556588594 300.05990851897036
          299.999999999991 300.05951975123406 300.05756249031396 300.0600039078292 300.0600002732431 300.04771068733424
          300.0599833267118 299.999999999991 300.05989961828084 300.05948897902283 300.0574688681769 300.06000865742953
          300.06000461746675 300.0474937112654 300.0599858132982 299.9999999999911 300.0598948677911 300.05945704147217
          300.0573626023025 300.0598863753565 300.0473706353145 300.05988353573275 300.05986475682784 299.99999999999096
          300.0597721089583 300.0593193157249 300.0571212652419 300.0627607060482 300.04663107764367 300.06275810849877
          299.999999999991 300.0627446168342 300.06267634967014 300.06233103248564 300.0605616564892 300.0512524903003
          299.999999999991 299.9999999999911 299.999999999991 299.999999999991 299.999999999991 299.999999999991
          299.99999999999096 299.999999999991 299.99999999999096 300.0268358423593 300.0693062362492 300.0669541565571
          300.03953086868944 300.08713150908835 300.0496518227741 300.0610268310415 300.0596347006177 300.0600442122149
          300.0599363885007 300.0600044979125 300.05961890711745 300.062792013251 300.06000135575505 300.06000525991107
          300.06001945441767 300.0582017925183 300.04922751094836 299.99999999999096 300.06276109096314 299.999999999991
          300.05988612763576 300.0600095838465 300.0600040950829
        </DataArray>
        <DataArray type="Float64" Name="Density" format="ascii" RangeMin="1.161916202022872" RangeMax="1.1622536670632955">
          1.1620426496829057 1.162010879180735 1.1620327413094806 1.1620230302950105 1.162016394420206 1.1620223551123905
          1.1620237969044354 1.162026950840857 1.1620283545757 1.1620209303949083 1.1620180522314763 1.16202244893014
          1.1620225462584284 1.1620634009533104 1.1620206922682261 1.162028584661944 1.1622536670632952 1.162020021565719
          1.1620216401925516 1.162022067494024 1.1620640255951002 1.1620225720430484 1.1620209445754277 1.1620214311474133
          1.162253667063295 1.1620288853895777 1.1620214593277185 1.1620647676568372 1.1620210440353573 1.1620226879671998
          1.1620213334928797 1.1622536670632955 1.162029218408836 1.1620212629963524 1.162021540469906 1.162065564423631
          1.1620227813946444 1.1620212940296795 1.162253667063295 1.162021234749275 1.1620295738392175 1.162021311516508
          1.162066387182501 1.162021553449561 1.1622536670632948 1.16202289243335 1.1620212354095347 1.1620299421292732
          1.1620212620346828 1.1620213083879438 1.162067218488995 1.1620215868575505 1.1622536670632952 1.1620230052748397
          1.1620212494654292 1.1620303177516398 1.1620212574588225 1.1620680480729455 1.1620213187086794 1.162021617082957
          1.162253667063295 1.1620231226393012 1.162030702459744 1.162021247677123 1.162021261752529 1.1620688567169812
          1.1620213273801725 1.162253667063295 1.1620216515520534 1.1620232418090735 1.1620310650296148 1.1620212292836805
          1.1620212449289595 1.1620696970543862 1.1620213177505432 1.1622536670632948 1.1620216699489536 1.1620233654918146
          1.162031476565083 1.1620217028370319 1.1620701737218961 1.1620217138338516 1.1620217865576572 1.1622536670632952
          1.162022145348981 1.1620238988548066 1.1620324111913292 1.162010571716872 1.162073038003051 1.1620105817760342
          1.162253667063295 1.1620106340232967 1.1620108983919664 1.1620122356552292 1.1620190877271774 1.1620551396640133
          1.162253667063295 1.1622536670632948 1.162253667063295 1.162253667063295 1.162253667063295 1.162253667063295
          1.1622536670632952 1.162253667063295 1.1622536670632952 1.162149709508586 1.1619852243216773 1.1619943325617244
          1.1621005375840763 1.161916202022872 1.162061338851096 1.162017286287935 1.1620226774816516 1.1620210915931874
          1.1620215091545307 1.162021245391949 1.1620227386441815 1.162010450477913 1.1620212575603608 1.1620212424410108
          1.1620211874709476 1.1620282266441018 1.1620629821693356 1.1622536670632952 1.1620105702262666 1.162253667063295
          1.1620217037963634 1.1620212256960107 1.1620212469519589
        </DataArray>
        <DataArray type="Float64" Name="stream" format="ascii" RangeMin="-0.07701525574280994" RangeMax="-0.05180185936384915">
          -0.05855628183431902 -0.06209137452415844 -0.055356935056798444 -0.06561577388332254 -0.05844173865915531 -0.0690554506988529
          -0.06184069731293129 -0.05373165546746343 -0.0723973674267454 -0.06527109986104192 -0.05566395366425173 -0.05857079112897421
          -0.0687092315173361 -0.07544507992025823 -0.061718505213158914 -0.0720692136963733 -0.07688588390767939 -0.05412481574232171
          -0.06505539944643564 -0.05602529042985461 -0.07514984557064824 -0.0683439235701251 -0.05879528862019872 -0.061773933641512284
          -0.07664189892940576 -0.07168418624649928 -0.06484285811198384 -0.07476310970678281 -0.056451583649496095 -0.06807245373928869
          -0.05903898643634639 -0.0762871484100081 -0.07122938558254066 -0.06190650095234369 -0.06482759057735371 -0.07428000205620255
          -0.06777598657236546 -0.05699617357240314 -0.07582434263386588 -0.05931779423518957 -0.0708716656549388 -0.06203915096810819
          -0.07371733658066941 -0.06488964774714225 -0.07526197560738813 -0.06770387002625318 -0.05753153464655887 -0.07048554595578925
          -0.059628038936316886 -0.06220471800823004 -0.07327172016893688 -0.06493964510100236 -0.07462524433240332 -0.06770913987896904
          -0.05807749943484436 -0.0703553780529292 -0.05996122011098438 -0.07280748176659428 -0.06238333670640941 -0.06501431096145052
          -0.07397986010702967 -0.06768918017687059 -0.07030136011994687 -0.05863876016289058 -0.06031114419506795 -0.07254254418854271
          -0.06257961009999995 -0.07348030060811521 -0.0650941565122317 -0.06768739683636253 -0.07018552617979541 -0.05921527458047026
          -0.06067789092301757 -0.0722086585556201 -0.06278930447250379 -0.07301316074283166 -0.06518637146493166 -0.06767517797233998
          -0.07002243702950885 -0.05980943460868601 -0.07184599395076902 -0.06106167342452279 -0.06301433273577461 -0.07254689336476776
          -0.06528524116748802 -0.06764662264313148 -0.06982921508745123 -0.0604333925244171 -0.07146488038341396 -0.06146552060361614
          -0.07207134613137693 -0.06325484720558656 -0.06538690905498068 -0.06760301995874396 -0.06961157473983684 -0.07105761681119514
          -0.060827640733243704 -0.062101282947994704 -0.07157989562995541 -0.06402570438370384 -0.0661963685233567 -0.06834295740044205
          -0.0701523291425472 -0.07125496453880298 -0.07157989562995541 -0.053313268157380266 -0.0552644550997554 -0.053592638548558884
          -0.055226018733336324 -0.05885307487117868 -0.06250911135587607 -0.06605812534162693 -0.06946857017343935 -0.052491284448189
          -0.05469642494931263 -0.05274307788808462 -0.05198377602031248 -0.05180185936384915 -0.056316171540849204 -0.0570440461964483
          -0.0556206037770746 -0.07273995760883442 -0.07567594357486354 -0.07701525574280994 -0.06034313949754143 -0.060827640733243704
          -0.05943386293766138 -0.05860282076124604 -0.0578067967135874
        </DataArray>
      </PointData>
      <CellData>
        <DataArray type="UInt8" Name="vtkGhostType" format="ascii" RangeMin="0" RangeMax="1">
          1 1 1 0 1 1
          1 1 1 1 1 1
          1 1 0 1 0 0
          0 0 0 0 0 0
          0 0 0 0 0 0
          0 0 0 0 0 0
          0 0 0 0 0 0
          0 0 0 0 1 0
          0 0 0 0 0 1
          0 0 0 0 0 1
          1 1 1 1 1 0
          0 0 0 0 0 0
          0 0 0 0 0 0
          0 0 0 0 0 0
          0 0 0 0 0 0
          0 0 0 0 0 0
          0 0 0 0 0 0
          0 0 0 0
        </DataArray>
      </CellData>
      <Points>
        <DataArray type="Float32" Name="Points" NumberOfComponents="3" format="ascii" RangeMin="1.9479310498498923" RangeMax="7.158910531638177">
          0.3194443881511688 2.3333330154418945 0 0.5162037014961243 2.3333330154418945 0
          0.12940670549869537 2.722222089767456 0 0.7129629850387573 2.3333330154418945 0
          0.32520580291748047 2.722222089767456 0 0.9097222089767456 2.3333330154418945 0
          0.5210047960281372 2.722222089767456 0 -4.440892098500626e-16 3.1111109256744385 0
          1.1064809560775757 2.3333330154418945 0 0.716803789138794 2.722222089767456 0
          0.13648830354213715 3.1111109256744385 0 0.33127570152282715 3.1111109256744385 0
          0.9126029014587402 2.722222089767456 0 1.3032410144805908 2.3333330154418945 0
          0.526063084602356 3.1111109256744385 0 1.1084020137786865 2.722222089767456 0
          1.5 2.3333330154418945 0 -4.440892098500626e-16 3.5 0
          0.7208505272865295 3.1111109256744385 0 0.14374999701976776 3.5 0
          1.3042010068893433 2.722222089767456 0 0.9156379103660583 3.1111109256744385 0
          0.3375000059604645 3.5 0 0.53125 3.5 0
          1.5 2.722222089767456 0 1.1104249954223633 3.1111109256744385 0
          0.7250000238418579 3.5 0 1.3052129745483398 3.1111109256744385 0
          0.15101170539855957 3.8888890743255615 0 0.918749988079071 3.5 0
          0.3437243103981018 3.8888890743255615 0 1.5 3.1111109256744385 0
          1.1124999523162842 3.5 0 0.536436915397644 3.8888890743255615 0
          0.7291495203971863 3.8888890743255615 0 1.306249976158142 3.5 0
          0.9218621253967285 3.8888890743255615 0 0.15809330344200134 4.277778148651123 0
          1.5 3.5 0 0.3497942090034485 4.277778148651123 0
          1.1145750284194946 3.8888890743255615 0 0.5414952039718628 4.277778148651123 0
          1.3072869777679443 3.8888890743255615 0 0.7331961989402771 4.277778148651123 0
          1.5 3.8888890743255615 0 0.9248970746994019 4.277778148651123 0
          0.1648148000240326 4.6666669845581055 0 1.1165980100631714 4.277778148651123 0
          0.35555559396743774 4.6666669845581055 0 0.5462962985038757 4.6666669845581055 0
          1.308298945426941 4.277778148651123 0 0.7370370030403137 4.6666669845581055 0
          1.5 4.277778148651123 0 0.9277778267860413 4.6666669845581055 0
          0.17099620401859283 5.055555820465088 0 1.1185189485549927 4.6666669845581055 0
          0.360853910446167 5.055555820465088 0 1.309259057044983 4.6666669845581055 0
          0.5507115721702576 5.055555820465088 0 0.7405692934989929 5.055555820465088 0
          1.5 4.6666669845581055 0 0.9304270148277283 5.055555820465088 0
          1.1202850341796875 5.055555820465088 0 0.1764574944972992 5.444444179534912 0
          0.3655349910259247 5.444444179534912 0 1.3101420402526855 5.055555820465088 0
          0.5546125173568726 5.444444179534912 0 1.5 5.055555820465088 0
          0.743690013885498 5.444444179534912 0 0.9327675104141235 5.444444179534912 0
          1.121845006942749 5.444444179534912 0 0.18101850152015686 5.8333330154418945 0
          0.3694444000720978 5.8333330154418945 0 1.3109220266342163 5.444444179534912 0
          0.5578703880310059 5.8333330154418945 0 1.5 5.444444179534912 0
          0.7462962865829468 5.8333330154418945 0 0.9347221851348877 5.8333330154418945 0
          1.123147964477539 5.8333330154418945 0 0.18449929356575012 6.222221851348877 0
          1.3115739822387695 5.8333330154418945 0 0.3724279999732971 6.222221851348877 0
          0.5603566765785217 6.222221851348877 0 1.5 5.8333330154418945 0
          0.7482852935791016 6.222221851348877 0 0.936214029788971 6.222221851348877 0
          1.1241430044174194 6.222221851348877 0 0.18671980500221252 6.611111164093018 0
          1.3120709657669067 6.222221851348877 0 0.3743312954902649 6.611111164093018 0
          1.5 6.222221851348877 0 0.5619426965713501 6.611111164093018 0
          0.7495542168617249 6.611111164093018 0 0.9371656179428101 6.611111164093018 0
          1.1247769594192505 6.611111164093018 0 1.3123890161514282 6.611111164093018 0
          0.1875 7 0 0.375 7 0
          1.5 6.611111164093018 0 0.5625 7 0
          0.75 7 0 0.9375 7 0
          1.125 7 0 1.3125 7 0
          1.5 7 0 -4.440892098500626e-16 2.3333330154418945 0
          0.12268520146608353 2.3333330154418945 0 0 2.722222089767456 0
          0.11650379747152328 1.944443941116333 0 0.31414610147476196 1.944443941116333 0
          0.5117884278297424 1.944443941116333 0 0.7094306945800781 1.944443941116333 0
          0.9070730209350586 1.944443941116333 0 -0.14374999701976776 3.5 0
          -4.440892098500626e-16 3.8888890743255615 0 -0.15101170539855957 3.8888890743255615 0
          -0.13648830354213715 3.1111109256744385 0 -0.12940670549869537 2.722222089767456 0
          -4.440892098500626e-16 4.6666669845581055 0 -4.440892098500626e-16 5.055555820465088 0
          -4.440892098500626e-16 4.277778148651123 0 1.1047149896621704 1.944443941116333 0
          1.3023580312728882 1.944443941116333 0 1.5 1.944443941116333 0
          -4.440892098500626e-16 6.611111164093018 0 0 7 0
          -4.440892098500626e-16 6.222221851348877 0 -4.440892098500626e-16 5.8333330154418945 0
          -4.440892098500626e-16 5.444444179534912 0
          <InformationKey name="L2_NORM_RANGE" location="vtkDataArray" length="2">
            <Value index="0">
              1.9479310498
            </Value>
            <Value index="1">
              7.1589105316
            </Value>
          </InformationKey>
        </DataArray>
      </Points>
      <Cells>
        <DataArray type="Int64" Name="connectivity" format="ascii" RangeMin="0" RangeMax="128">
          105 106 2 107 106 0
          4 2 108 109 0 106
          0 1 6 4 109 110
          1 0 110 111 3 1
          111 112 5 3 113 17
          114 115 116 7 17 113
          117 107 7 116 118 46
          54 119 120 37 46 118
          114 28 37 120 17 19
          28 114 7 10 19 17
          107 2 10 7 46 48
          56 54 37 39 48 46
          28 30 39 37 19 22
          30 28 10 11 22 19
          2 4 11 10 48 49
          58 56 39 41 49 48
          30 33 41 39 22 23
          33 30 11 14 23 22
          4 6 14 11 41 43
          51 49 33 34 43 41
          23 26 34 33 14 18
          26 23 6 9 18 14
          1 3 9 6 43 45
          53 51 34 36 45 43
          26 29 36 34 18 21
          29 26 9 12 21 18
          3 5 12 9 45 47
          55 53 36 40 47 45
          29 32 40 36 21 25
          32 29 12 15 25 21
          5 8 15 12 112 121
          8 5 47 50 57 55
          40 42 50 47 32 35
          42 40 25 27 35 32
          15 20 27 25 8 13
          20 15 121 122 13 8
          42 44 52 50 35 38
          44 42 27 31 38 35
          20 24 31 27 13 16
          24 20 122 123 16 13
          124 87 96 125 126 79
          87 124 127 71 79 126
          128 63 71 127 119 54
          63 128 87 89 97 96
          79 81 89 87 71 72
          81 79 63 64 72 71
          54 56 64 63 89 91
          99 97 81 82 91 89
          72 74 82 81 64 66
          74 72 56 58 66 64
          91 92 100 99 82 84
          92 91 74 76 84 82
          66 68 76 74 58 59
          68 66 49 51 59 58
          92 93 101 100 84 85
          93 92 76 77 85 84
          68 69 77 76 59 61
          69 68 51 53 61 59
          93 94 102 101 85 86
          94 93 77 78 86 85
          69 70 78 77 61 62
          70 69 53 55 62 61
          94 95 103 102 86 88
          95 94 78 80 88 86
          70 73 80 78 62 65
          73 70 55 57 65 62
          95 98 104 103 88 90
          98 95 80 83 90 88
          73 75 83 80 65 67
          75 73 57 60 67 65
          50 52 60 57
        </DataArray>
        <DataArray type="Int64" Name="offsets" format="ascii" RangeMin="4" RangeMax="424">
          4 8 12 16 20 24
          28 32 36 40 44 48
          52 56 60 64 68 72
          76 80 84 88 92 96
          100 104 108 112 116 120
          124 128 132 136 140 144
          148 152 156 160 164 168
          172 176 180 184 188 192
          196 200 204 208 212 216
          220 224 228 232 236 240
          244 248 252 256 260 264
          268 272 276 280 284 288
          292 296 300 304 308 312
          316 320 324 328 332 336
          340 344 348 352 356 360
          364 368 372 376 380 384
          388 392 396 400 404 408
          412 416 420 424
        </DataArray>
        <DataArray type="UInt8" Name="types" format="ascii" RangeMin="9" RangeMax="9">
          9 9 9 9 9 9
          9 9 9 9 9 9
          9 9 9 9 9 9
          9 9 9 9 9 9
          9 9 9 9 9 9
          9 9 9 9 9 9
          9 9 9 9 9 9
          9 9 9 9 9 9
          9 9 9 9 9 9
          9 9 9 9 9 9
          9 9 9 9 9 9
          9 9 9 9 9 9
          9 9 9 9 9 9
          9 9 9 9 9 9
          9 9 9 9 9 9
          9 9 9 9 9 9
          9 9 9 9 9 9
          9 9 9 9
        </DataArray>
      </Cells>
    </Piece>
  </UnstructuredGrid>
</VTKFile>
