<?xml version="1.0"?>
<VTKFile type="UnstructuredGrid" version="0.1" byte_order="LittleEndian" header_type="UInt32" compressor="vtkZLibDataCompressor">
  <UnstructuredGrid>
    <Piece NumberOfPoints="132" NumberOfCells="109">
      <PointData>
        <DataArray type="Float64" Name="Velocity" NumberOfComponents="3" format="ascii" RangeMin="0" RangeMax="0.017898879228430073">
          0 0 0 -0.0003821106348406156 0.013257828280292594 0
          -0.0005324029626270765 0.015625581496331625 0 -0.0005800099046378016 0.016087233953820355 0
          -0.0006244203399347059 0.016366232618474946 0 0 0 0
          -0.0002790867398976826 0.012323681535304755 0 -0.00031834605014341433 0.014479486769716486 0
          -0.00032489432679819186 0.014874169131683148 0 -0.0002832090770910345 0.0150161306360205 0
          -0.00021824637528151947 0.015072588279680825 0 -0.00015467072890719413 0.015123890291059372 0
          0 0 0 -0.00023434660091040116 0.011256755731829111 0
          -0.0002342592382249542 0.013244563434007288 0 -0.0002068585025330194 0.013570102481931903 0
          -0.000173775750981299 0.013645119938537682 0 -0.00012911408043293077 0.013689427961181406 0
          -0.0000702208767655102 0.013724971154938816 0 0.000007303992177104535 0.013722021690426415 0
          0 0 0 -0.00021669640311267058 0.010144531900611112 0
          -0.00019809934371017857 0.011960216457241867 0 -0.0001623838774404071 0.0122514588366505 0
          -0.00012709661822434687 0.012309261999113766 0 -0.00008977025811785638 0.012328485678075008 0
          -0.00004843799065126775 0.01233513069089652 0 -0.000010322285480354743 0.012341806828789253 0
          0 0 0 -0.00020914608803712653 0.009019387876258902 0
          -0.00018474059628426076 0.010663126798935031 0 -0.00014532437381511998 0.0109287587658079 0
          -0.00011022789422293622 0.010974699920000601 0 -0.0000765437067097724 0.010985017420953785 0
          -0.000043413864908969924 0.010989566675784513 0 -0.00000957603358492376 0.010990398602141679 0
          0.000019584158106517036 0.010990637886087888 0 0 0 0
          -0.00020628578361958638 0.00789731661905943 0 -0.00017998808546043632 0.00936370771399321 0
          -0.00013949679767100154 0.00960463550566959 0 -0.00010468436666982717 0.009644744806011525 0
          -0.00007325376945543915 0.009652051612869542 0 -0.000042935585746112226 0.009653366584871237 0
          -0.000014038130044746744 0.0096540535934798 0 0.00001340958377313295 0.009654608338433082 0
          0 0 0 -0.00020512031383634888 0.0067841155030798905 0
          -0.00017867090133827368 0.008066767979412776 0 -0.00013806993354315011 0.00828182022213178 0
          -0.00010369273948368507 0.008317369948809203 0 -0.0000731971035424217 0.008322937925409515 0
          -0.00004456034095412509 0.008323682138396064 0 -0.000017006955653819933 0.008324255413410177 0
          0.000008743710652292513 0.00832486948055021 0 0 0 0
          -0.00020464416432619537 0.005682190444374069 0 -0.00017859043606072156 0.006774357986953694 0
          -0.000138228532766127 0.00696084953475179 0 -0.00010402151568389417 0.00699164138883529 0
          -0.00007414470431893472 0.006996303257322589 0 -0.00004628513944099355 0.006996795462879651 0
          -0.00001952462231258334 0.006997493102914296 0 0.000005865485125711167 0.006998135213230328 0
          0 0 0 -0.00020448818260798696 0.004592232800304408 0
          -0.00017903584227740854 0.005487323084074347 0 -0.00013841320858554162 0.005641555241750973 0
          -0.0001045301271350163 0.005667351765100748 0 -0.00007507668237216603 0.005671162193322532 0
          -0.0000476926588830473 0.005671560611030191 0 -0.000021293981227465952 0.005672316693037138 0
          0.000003948689733634936 0.005672900184026769 0 0 0 0
          -0.00020421840198592278 0.0035145629960918745 0 -0.00017767587280403951 0.004204347984602896 0
          -0.00013871839441537137 0.004325168204666718 0 -0.00010489163266469426 0.004344407836134323 0
          -0.00007531211961953055 0.0043468861165218975 0 -0.00004813387636548594 0.004347173118850189 0
          -0.000022084069691619135 0.004347955787849023 0 0.0000030566050172597947 0.0043484476505934455 0
          0 0 0 -0.0002019638067194407 0.0024429768233419358 0
          -0.00018371501658998035 0.0029317443636146523 0 -0.00014040306586871054 0.0030080090454750463 0
          -0.00010363564011472981 0.0030180341708601066 0 -0.00007369827666903195 0.0030192770376651357 0
          -0.00004716749058564229 0.0030197192499311076 0 -0.0000219254887099396 0.0030205635214675675 0
          0.000002732040323694118 0.003020932789649766 0 0 0 0
          -0.00022381784077118994 0.0014081696023279244 0 -0.00016161274314363538 0.0016337963242166742 0
          -0.000107207887965588 0.0016610620867659742 0 -0.00007126150520531116 0.0016647959034353788 0
          -0.000043060881687595476 0.0016658276620284962 0 -0.000017326073631251937 0.0016664246006621308 0
          0.00000787913876765245 0.001667101920874492 0 0.00003313900212997822 0.001667285099342497 0
          0 0 0 0 0 0
          0 0 0 0 0 0
          0 0 0 0 0 0
          0 0 0 0 0 0
          0 0 0 0 0 0
          -0.0006304325851200776 0.013868486848909956 0 -0.0010141647604449133 0.01646747046407264 0
          -0.0012367042648124271 0.017355622138407828 0 -0.0010639518951910398 0.01765665845578865 0
          -0.0004730439983937811 0.016712752145976506 0 -0.0013536631693371048 0.01784761815083194 0
          -0.0001134586560532086 0.016801317838881752 0 -0.0000868115380604495 0.01521451196933149 0
          0.0001901225776640425 0.016727936805388737 0 0.00003193568484882725 0.012342532096032829 0
          0.00004234107819210686 0.013724273958080895 0 0.00008273371525058248 0.015197306168611723 0
          0.00003432836957406593 0.008321954170057419 0 0.00003096958537254779 0.006995774444777253 0
          0.000039823817798267935 0.009650793109927579 0 0.00005038810156569179 0.010985685577068287 0
          0.00006516111202451054 0.012334307263138618 0 0.000058450045137159456 0.0016662907385726622 0
          0 0 0 0.000027345694637803675 0.003019596516089962 0
          0.000028038171832278636 0.0043468363616880334 0 0.000029010506643778466 0.005670963879202434 0
          <InformationKey name="L2_NORM_RANGE" location="vtkDataArray" length="2">
            <Value index="0">
              0
            </Value>
            <Value index="1">
              0.017898879228
            </Value>
          </InformationKey>
        </DataArray>
        <DataArray type="Float64" Name="Pressure" format="ascii" RangeMin="-42.36548327562202" RangeMax="15.797794014255421">
          11.280574630665138 11.28106779398116 11.282091608811884 11.283336973622966 11.284757131415052 6.778292825826999
          6.778650922551764 6.779299089519073 6.780003997516647 6.780666735959442 6.781261040436445 6.781725895264947
          2.2811526865963776 2.2814531431959235 2.2819409623049416 2.282403740555969 2.28282596267143 2.28316286006584
          2.2833753972850106 2.2834591547288188 -2.2103359034715413 -2.210060872106163 -2.2096401178125973 -2.209270234417961
          -2.2089607417738337 -2.208722461285725 -2.208566760640548 -2.208507334312279 -6.695962475003872 -6.695699061093469
          -6.695306334437447 -6.694975434918709 -6.694706036991859 -6.694503403617975 -6.694372999705859 -6.694318262704051
          -6.694327774508539 -11.175643648281518 -11.175386279598374 -11.17500597691629 -11.174690046033957 -11.17443598604057
          -11.17424515178991 -11.17411927960828 -11.174059638328103 -11.17406142208754 -15.64934869619498 -15.649095082135416
          -15.648720884659957 -15.648411182028028 -15.648162188358917 -15.64797400673055 -15.647847180694475 -15.647782063856884
          -15.647775606758781 -20.11706779843969 -20.11681693426488 -20.1164465520976 -20.116139776074 -20.11589254002202
          -20.11570433403369 -20.11557516458397 -20.115504962093837 -20.11549253208227 -24.57878718329047 -24.578538836875968
          -24.578171250434913 -24.577866770665 -24.577620708153482 -24.577432286507126 -24.57730126759897 -24.57722741079341
          -24.577210375798572 -29.034529138617767 -29.03428245913636 -29.033918997388522 -29.033617210873604 -29.03337313521557
          -29.033185750918687 -29.03305436649433 -29.032978476970513 -29.032958258792068 -33.48428021428184 -33.48403857227263
          -33.483677192035216 -33.483380485670004 -33.48314219456924 -33.4829589206589 -33.48282947649858 -33.48275338468158
          -33.48273119233237 -37.92800464813249 -37.9277642105022 -37.92742274077546 -37.92714828849029 -37.926922943218194
          -37.92674678675653 -37.926620827710686 -37.926545709996866 -37.92652255245274 -42.36548327562202 -42.365359510456365
          -42.3651144689092 -42.36486045746983 -42.364642616512704 -42.36447010824367 -42.36434586403323 -42.36427104072102
          -42.36424742579051 15.786779350005492 15.787592117499075 15.789528634359069 15.792123914034471 15.794672870544927
          11.285904534963343 15.797794014255421 11.28655785193695 6.781885992357479 11.287084205643886 -2.208534468752661
          2.2834463533482543 6.781778619148004 -15.647815526283352 -20.115528272799743 -11.174107989246975 -6.694387044704185
          -2.2086087718937897 -37.926551817164444 -42.36427626951969 -33.48276180110117 -29.032990167111127 -24.57724376170031
        </DataArray>
        <DataArray type="Float64" Name="Temperature" format="ascii" RangeMin="299.9999999999909" RangeMax="300.0669541565571">
          299.999999999991 300.04914591132376 300.0581777214122 300.0597368256779 300.059250175615 299.99999999999096
          300.04896459156953 300.0581164556214 300.0596634058562 300.06018095322213 300.05913350019955 300.05984951224445
          299.9999999999911 300.04876461582836 300.058034358183 300.0596662778356 300.0598769466123 300.0601634885165
          300.0601029194229 300.05961890711745 299.99999999999096 300.0485529032833 300.0579464679587 300.05963138878974
          300.0599555673994 300.05996181017235 300.0599740310669 300.0600442122149 299.99999999999096 300.04833732323027
          300.05785307204786 300.0596084305806 300.05992717026663 300.059996615945 300.0600087154917 300.0600044979125
          300.0599363885007 299.999999999991 300.0481204674676 300.05775696254153 300.0595789458851 300.05992516138065
          300.05998869245906 300.06000079524074 300.06000257637567 300.06001945441767 299.9999999999911 300.0479048092429
          300.05765917205906 300.0595497134485 300.05991626663297 300.05998783741967 300.0600017005831 300.06000491721744
          300.06000135575505 299.9999999999911 300.0476949827774 300.0575592594464 300.0595191739499 300.0599084226539
          300.05998566226594 300.06000103967807 300.06000388114575 300.06000525991107 299.999999999991 300.0474770177404
          300.0574650573247 300.0594883136492 300.0598994974871 300.0599832717712 300.06000034328736 300.06000381985433
          300.0600040950829 299.9999999999909 300.0473541705418 300.05735910521344 300.0594560512294 300.059894614375
          300.05998576794036 300.060004592807 300.0600086725705 300.0600095838465 299.99999999999113 300.0466085005278
          300.0571113356489 300.059317671458 300.05977211147024 300.0598648750449 300.05988359778473 300.05988639724
          300.05988612763576 299.9999999999911 300.0512550842932 300.0605917763284 300.0623438339088 300.06268018113
          300.0627455664836 300.06275831562425 300.0627607267662 300.06276109096314 299.999999999991 299.99999999999096
          299.999999999991 299.99999999999096 299.99999999999096 299.9999999999909 299.99999999999096 299.9999999999911
          299.999999999991 299.999999999991 300.0492853100262 300.0582324646547 300.0595886649603 300.0617639846866
          300.0640145244649 300.0432046114984 300.0584654570703 300.062792013251 300.0422070954696 300.060320517686
          300.0585312299958 300.0669541565571 300.0600070755962 300.0600034460483 300.05999193855774 300.06005649271935
          300.05979221282837 300.0627607060482 299.999999999991 300.0598863753565 300.06000865742953 300.0600039078292
        </DataArray>
        <DataArray type="Float64" Name="Density" format="ascii" RangeMin="1.1619943325617244" RangeMax="1.1622536670632955">
          1.162253667063295 1.162063298197241 1.1620283198637065 1.1620222819882837 1.1620241666101252 1.1622536670632952
          1.1620640004327307 1.1620285571263567 1.1620225663166328 1.1620205620463013 1.1620246184532363 1.1620218455943394
          1.1622536670632948 1.1620647749222044 1.162028875063412 1.1620225551944954 1.1620217393510954 1.1620206296805613
          1.1620208642420227 1.1620227386441815 1.1622536670632952 1.162065594868472 1.1620292154342629 1.1620226903071662
          1.1620214348817315 1.1620214107057771 1.1620213633787682 1.1620210915931874 1.1622536670632952 1.162066429794487
          1.1620295771271025 1.1620227792160336 1.1620215448533537 1.16202127591589 1.1620212290588272 1.162021245391949
          1.1620215091545307 1.162253667063295 1.162067269662444 1.162029949329075 1.16202289339965 1.162021552633029
          1.1620213066006184 1.162021259731025 1.1620212528333493 1.1620211874709476 1.1622536670632948 1.1620681048936197
          1.1620303280411857 1.1620230066063801 1.1620215870791113 1.1620213099118697 1.1620212562249697 1.162021243768136
          1.1620212575603608 1.1622536670632948 1.1620689175398995 1.1620307149719011 1.162023124874916 1.1620216174559552
          1.1620213183354353 1.1620212587844099 1.1620212477804581 1.1620212424410108 1.162253667063295 1.1620697617076197
          1.1620310797878832 1.162023244385828 1.1620216520198432 1.162021327592937 1.1620212614812733 1.162021248017817
          1.1620212469519589 1.1622536670632955 1.1620702374892349 1.162031490108252 1.1620233693266722 1.1620216709303408
          1.1620213179261973 1.1620212450244576 1.1620212292250451 1.1620212256960107 1.1622536670632946 1.1620731254436583
          1.1620324496457046 1.1620239052224723 1.1620221453392532 1.1620217860998459 1.1620217135935471 1.1620217027522852
          1.1620217037963634 1.1622536670632948 1.1620551296178538 1.1620189710846425 1.1620121860808301 1.162010883554406
          1.1620106303457234 1.1620105809739287 1.1620105716366405 1.1620105702262666 1.162253667063295 1.1622536670632952
          1.162253667063295 1.1622536670632952 1.1622536670632952 1.1622536670632955 1.1622536670632952 1.1622536670632948
          1.162253667063295 1.162253667063295 1.1620627583188814 1.1620281078608643 1.1620228557611663 1.162014431591399
          1.1620057162520891 1.1620863087715998 1.16202720555759 1.162010450477913 1.1620901722271153 1.162020021565719
          1.162026950840857 1.1619943325617244 1.1620212354095347 1.1620212494654292 1.1620212940296795 1.1620210440353573
          1.162022067494024 1.162010571716872 1.162253667063295 1.1620217028370319 1.1620212292836805 1.162021247677123
        </DataArray>
        <DataArray type="Float64" Name="stream" format="ascii" RangeMin="-0.03582231111694405" RangeMax="-0.011568895940669984">
          -0.011568895940669984 -0.013023254369885554 -0.016028988731982934 -0.01936542089404574 -0.022786208596619433 -0.011877154937375997
          -0.013096390357324439 -0.016030670716304964 -0.01925120576002106 -0.022625201404742327 -0.026041620958340426 -0.029404944332847696
          -0.012198146134193946 -0.013334296137981486 -0.01607727899467318 -0.019222676431773632 -0.02243222771374058 -0.025784471890175305
          -0.02912225944485162 -0.03227349943355118 -0.012546267095962549 -0.013616509789262387 -0.016208962475838168 -0.019123651223428947
          -0.022259018084722713 -0.02541697948467812 -0.028706655930612224 -0.03185822681354204 -0.012939592482144376 -0.013923529401754888
          -0.016402602253491206 -0.019170817025480378 -0.022039705651331596 -0.025125372153589773 -0.02820299509570108 -0.03133412305086455
          -0.03369653584372869 -0.01336307968702233 -0.014268808625923331 -0.016604667301218713 -0.019291066634154638 -0.022025212695877493
          -0.024806330409624926 -0.027816952044763255 -0.030731036715135454 -0.03326134744012297 -0.013821924902279513 -0.014644430766037962
          -0.016846232902435233 -0.019411061867593504 -0.02209682154353515 -0.024747499470754365 -0.027417209614470674 -0.0302719279612087
          -0.032719149284250654 -0.014310016149209787 -0.015052247687248244 -0.01711262057765035 -0.019568943702066022 -0.022159410028492595
          -0.02478524484968303 -0.02731964668162834 -0.029811062905645266 -0.03230445090809946 -0.014827433876264576 -0.015489008591892877
          -0.017410001841524414 -0.019746976001755304 -0.022257944884314713 -0.024805111834982706 -0.02731922369439111 -0.029673772969260673
          -0.031870303004981546 -0.01537156042459171 -0.015954053422410637 -0.017733586266575226 -0.01995226765365781 -0.022371267898570697
          -0.024855770393367338 -0.027297769710929058 -0.029638507984448094 -0.03165756630940604 -0.015942375068101245 -0.01644448927490019
          -0.018084450006234223 -0.020181002663359777 -0.022507052880778262 -0.024916308499502653 -0.02730562067259934 -0.029555527047212996
          -0.0313726996351334 -0.01653572646611945 -0.01697126491196902 -0.018467459006238748 -0.02043553540403216 -0.02266181073430721
          -0.02499586895787065 -0.027313153279480598 -0.029436670920025096 -0.031057227464218302 -0.016837033103888822 -0.01754772831511723
          -0.019219535608894247 -0.021282471560162546 -0.023548297949550205 -0.02587820949575317 -0.02813150471669374 -0.03008128137717264
          -0.03137211954333667 -0.011568895940669984 -0.012888870428723784 -0.015846921897203062 -0.019168069771072292 -0.02262881379114963
          -0.02620030225977483 -0.026248197595866267 -0.02953705769689887 -0.03253611774571105 -0.032875993919199195 -0.0339677711247704
          -0.03437502592619354 -0.034555524749108 -0.03480253456941885 -0.03415526493847248 -0.03532164441988604 -0.03566991231752351
          -0.03582231111694405 -0.03181128251421193 -0.03180056724442738 -0.03237270718600625 -0.03291118088069878 -0.03346597543707684
        </DataArray>
      </PointData>
      <CellData>
        <DataArray type="UInt8" Name="vtkGhostType" format="ascii" RangeMin="0" RangeMax="1">
          0 0 1 0 0 1
          0 0 1 0 0 1
          0 1 1 0 1 1
          1 0 0 0 0 0
          0 0 0 0 0 0
          0 0 0 0 0 0
          0 0 0 0 0 0
          0 0 0 0 0 0
          0 0 0 0 0 0
          0 0 0 0 0 0
          0 0 1 0 0 0
          0 0 0 0 0 0
          0 0 0 0 0 0
          0 0 0 0 0 0
          0 0 0 0 0 0
          0 0 0 0 0 0
          0 0 0 0 0 0
          0 0 0 0 0 0
          0
        </DataArray>
      </CellData>
      <Points>
        <DataArray type="Float32" Name="Points" NumberOfComponents="3" format="ascii" RangeMin="2.0106689521162995" RangeMax="7.158910531638177">
          -1.5 2.3333330154418945 0 -1.3032410144805908 2.3333330154418945 0
          -1.1064809560775757 2.3333330154418945 0 -0.9097222089767456 2.3333330154418945 0
          -0.7129629850387573 2.3333330154418945 0 -1.5 2.722222089767456 0
          -1.3042010068893433 2.722222089767456 0 -1.1084020137786865 2.722222089767456 0
          -0.9126029014587402 2.722222089767456 0 -0.716803789138794 2.722222089767456 0
          -0.5210047960281372 2.722222089767456 0 -0.32520580291748047 2.722222089767456 0
          -1.5 3.1111109256744385 0 -1.3052129745483398 3.1111109256744385 0
          -1.1104249954223633 3.1111109256744385 0 -0.9156379103660583 3.1111109256744385 0
          -0.7208505272865295 3.1111109256744385 0 -0.526063084602356 3.1111109256744385 0
          -0.33127570152282715 3.1111109256744385 0 -0.13648830354213715 3.1111109256744385 0
          -1.5 3.5 0 -1.306249976158142 3.5 0
          -1.1124999523162842 3.5 0 -0.918749988079071 3.5 0
          -0.7250000238418579 3.5 0 -0.53125 3.5 0
          -0.3375000059604645 3.5 0 -0.14374999701976776 3.5 0
          -1.5 3.8888890743255615 0 -1.3072869777679443 3.8888890743255615 0
          -1.1145750284194946 3.8888890743255615 0 -0.9218621253967285 3.8888890743255615 0
          -0.7291495203971863 3.8888890743255615 0 -0.536436915397644 3.8888890743255615 0
          -0.3437243103981018 3.8888890743255615 0 -0.15101170539855957 3.8888890743255615 0
          -4.440892098500626e-16 3.8888890743255615 0 -1.5 4.277778148651123 0
          -1.308298945426941 4.277778148651123 0 -1.1165980100631714 4.277778148651123 0
          -0.9248970746994019 4.277778148651123 0 -0.7331961989402771 4.277778148651123 0
          -0.5414952039718628 4.277778148651123 0 -0.3497942090034485 4.277778148651123 0
          -0.15809330344200134 4.277778148651123 0 -4.440892098500626e-16 4.277778148651123 0
          -1.5 4.6666669845581055 0 -1.309259057044983 4.6666669845581055 0
          -1.1185189485549927 4.6666669845581055 0 -0.9277778267860413 4.6666669845581055 0
          -0.7370370030403137 4.6666669845581055 0 -0.5462962985038757 4.6666669845581055 0
          -0.35555559396743774 4.6666669845581055 0 -0.1648148000240326 4.6666669845581055 0
          -4.440892098500626e-16 4.6666669845581055 0 -1.5 5.055555820465088 0
          -1.3101420402526855 5.055555820465088 0 -1.1202850341796875 5.055555820465088 0
          -0.9304270148277283 5.055555820465088 0 -0.7405692934989929 5.055555820465088 0
          -0.5507115721702576 5.055555820465088 0 -0.360853910446167 5.055555820465088 0
          -0.17099620401859283 5.055555820465088 0 -4.440892098500626e-16 5.055555820465088 0
          -1.5 5.444444179534912 0 -1.3109220266342163 5.444444179534912 0
          -1.121845006942749 5.444444179534912 0 -0.9327675104141235 5.444444179534912 0
          -0.743690013885498 5.444444179534912 0 -0.5546125173568726 5.444444179534912 0
          -0.3655349910259247 5.444444179534912 0 -0.1764574944972992 5.444444179534912 0
          -4.440892098500626e-16 5.444444179534912 0 -1.5 5.8333330154418945 0
          -1.3115739822387695 5.8333330154418945 0 -1.123147964477539 5.8333330154418945 0
          -0.9347221851348877 5.8333330154418945 0 -0.7462962865829468 5.8333330154418945 0
          -0.5578703880310059 5.8333330154418945 0 -0.3694444000720978 5.8333330154418945 0
          -0.18101850152015686 5.8333330154418945 0 -4.440892098500626e-16 5.8333330154418945 0
          -1.5 6.222221851348877 0 -1.3120709657669067 6.222221851348877 0
          -1.1241430044174194 6.222221851348877 0 -0.936214029788971 6.222221851348877 0
          -0.7482852935791016 6.222221851348877 0 -0.5603566765785217 6.222221851348877 0
          -0.3724279999732971 6.222221851348877 0 -0.18449929356575012 6.222221851348877 0
          -4.440892098500626e-16 6.222221851348877 0 -1.5 6.611111164093018 0
          -1.3123890161514282 6.611111164093018 0 -1.1247769594192505 6.611111164093018 0
          -0.9371656179428101 6.611111164093018 0 -0.7495542168617249 6.611111164093018 0
          -0.5619426965713501 6.611111164093018 0 -0.3743312954902649 6.611111164093018 0
          -0.18671980500221252 6.611111164093018 0 -4.440892098500626e-16 6.611111164093018 0
          -1.5 7 0 -1.3125 7 0
          -1.125 7 0 -0.9375 7 0
          -0.75 7 0 -0.5625 7 0
          -0.375 7 0 -0.1875 7 0
          0 7 0 -1.5 1.944443941116333 0
          -1.3023580312728882 1.944443941116333 0 -1.1047149896621704 1.944443941116333 0
          -0.9070730209350586 1.944443941116333 0 -0.7094306945800781 1.944443941116333 0
          -0.5162037014961243 2.3333330154418945 0 -0.5117884278297424 1.944443941116333 0
          -0.3194443881511688 2.3333330154418945 0 -0.12940670549869537 2.722222089767456 0
          -0.12268520146608353 2.3333330154418945 0 -4.440892098500626e-16 3.5 0
          -4.440892098500626e-16 3.1111109256744385 0 0 2.722222089767456 0
          0.1648148000240326 4.6666669845581055 0 0.17099620401859283 5.055555820465088 0
          0.15809330344200134 4.277778148651123 0 0.15101170539855957 3.8888890743255615 0
          0.14374999701976776 3.5 0 0.18671980500221252 6.611111164093018 0
          0.1875 7 0 0.18449929356575012 6.222221851348877 0
          0.18101850152015686 5.8333330154418945 0 0.1764574944972992 5.444444179534912 0
          <InformationKey name="L2_NORM_RANGE" location="vtkDataArray" length="2">
            <Value index="0">
              2.0106689521
            </Value>
            <Value index="1">
              7.1589105316
            </Value>
          </InformationKey>
        </DataArray>
      </Points>
      <Cells>
        <DataArray type="Int64" Name="connectivity" format="ascii" RangeMin="0" RangeMax="131">
          5 6 13 12 0 1
          6 5 109 110 1 0
          6 7 14 13 1 2
          7 6 110 111 2 1
          7 8 15 14 2 3
          8 7 111 112 3 2
          8 9 16 15 3 4
          9 8 112 113 4 3
          9 10 17 16 4 114
          10 9 113 115 114 4
          10 11 18 17 114 116
          11 10 11 117 19 18
          116 118 117 11 55 56
          65 64 46 47 56 55
          37 38 47 46 28 29
          38 37 20 21 29 28
          12 13 21 20 56 57
          66 65 47 48 57 56
          38 39 48 47 29 30
          39 38 21 22 30 29
          13 14 22 21 57 58
          67 66 48 49 58 57
          39 40 49 48 30 31
          40 39 22 23 31 30
          14 15 23 22 49 50
          59 58 40 41 50 49
          31 32 41 40 23 24
          32 31 15 16 24 23
          50 51 60 59 41 42
          51 50 32 33 42 41
          24 25 33 32 16 17
          25 24 51 52 61 60
          42 43 52 51 33 34
          43 42 25 26 34 33
          17 18 26 25 52 53
          62 61 43 44 53 52
          34 35 44 43 26 27
          35 34 18 19 27 26
          53 54 63 62 44 45
          54 53 35 36 45 44
          27 119 36 35 19 120
          119 27 117 121 120 19
          54 122 123 63 45 124
          122 54 36 125 124 45
          119 126 125 36 91 92
          101 100 82 83 92 91
          73 74 83 82 64 65
          74 73 92 93 102 101
          83 84 93 92 74 75
          84 83 65 66 75 74
          93 94 103 102 84 85
          94 93 75 76 85 84
          66 67 76 75 94 95
          104 103 85 86 95 94
          76 77 86 85 67 68
          77 76 58 59 68 67
          95 96 105 104 86 87
          96 95 77 78 87 86
          68 69 78 77 59 60
          69 68 96 97 106 105
          87 88 97 96 78 79
          88 87 69 70 79 78
          60 61 70 69 97 98
          107 106 88 89 98 97
          79 80 89 88 70 71
          80 79 61 62 71 70
          98 99 108 107 89 90
          99 98 80 81 90 89
          71 72 81 80 62 63
          72 71 99 127 128 108
          90 129 127 99 81 130
          129 90 72 131 130 81
          63 123 131 72
        </DataArray>
        <DataArray type="Int64" Name="offsets" format="ascii" RangeMin="4" RangeMax="436">
          4 8 12 16 20 24
          28 32 36 40 44 48
          52 56 60 64 68 72
          76 80 84 88 92 96
          100 104 108 112 116 120
          124 128 132 136 140 144
          148 152 156 160 164 168
          172 176 180 184 188 192
          196 200 204 208 212 216
          220 224 228 232 236 240
          244 248 252 256 260 264
          268 272 276 280 284 288
          292 296 300 304 308 312
          316 320 324 328 332 336
          340 344 348 352 356 360
          364 368 372 376 380 384
          388 392 396 400 404 408
          412 416 420 424 428 432
          436
        </DataArray>
        <DataArray type="UInt8" Name="types" format="ascii" RangeMin="9" RangeMax="9">
          9 9 9 9 9 9
          9 9 9 9 9 9
          9 9 9 9 9 9
          9 9 9 9 9 9
          9 9 9 9 9 9
          9 9 9 9 9 9
          9 9 9 9 9 9
          9 9 9 9 9 9
          9 9 9 9 9 9
          9 9 9 9 9 9
          9 9 9 9 9 9
          9 9 9 9 9 9
          9 9 9 9 9 9
          9 9 9 9 9 9
          9 9 9 9 9 9
          9 9 9 9 9 9
          9 9 9 9 9 9
          9 9 9 9 9 9
          9
        </DataArray>
      </Cells>
    </Piece>
  </UnstructuredGrid>
</VTKFile>
