<?xml version="1.0"?>
<VTKFile type="UnstructuredGrid" version="0.1" byte_order="LittleEndian" header_type="UInt32" compressor="vtkZLibDataCompressor">
  <UnstructuredGrid>
    <Piece NumberOfPoints="132" NumberOfCells="109">
      <PointData>
        <DataArray type="Float64" Name="Velocity" NumberOfComponents="3" format="ascii" RangeMin="0" RangeMax="0.02025021350196653">
          0 0 0 -0.0005099932043735045 0.012516176225112877 0
          -0.0006894666201875954 0.016850318407343905 0 -0.0007412262732660602 0.017564328543335395 0
          -0.0005001931077840555 0.018204994592006196 0 0 0 0
          -0.00039872034268056966 0.01157716499792797 0 -0.0004834929041505065 0.0156999042314373 0
          -0.00047238528300494464 0.01628406503064998 0 -0.00046109652641970755 0.016338404899053457 0
          -0.0004230543043796803 0.016390845676743274 0 -0.00030249447702911103 0.016568213001088614 0
          0 0 0 -0.00037291739863659634 0.010548830392716136 0
          -0.00041506742587205103 0.014332742884062213 0 -0.0003647430565803453 0.014814763004029867 0
          -0.00028664363309293533 0.014917754929350428 0 -0.00019249831012939367 0.014980624884802184 0
          -0.00008905541033445846 0.01499429419349588 0 0.00001533573114680109 0.014976485191057074 0
          0 0 0 -0.0003564219612944841 0.00946755981414131 0
          -0.00038086804385373263 0.012911786024712787 0 -0.00032105432656858585 0.013373253125533068 0
          -0.0002557163810201421 0.013443682964290663 0 -0.00018418421377927596 0.013455076507201544 0
          -0.00010535177331038453 0.013462017677845944 0 -0.00002181534823067488 0.01348449861737342 0
          0 0 0 -0.000349633170625141 0.008382773363991833 0
          -0.0003715636536787137 0.011484605395563091 0 -0.00030982771467188974 0.011911011161251803 0
          -0.00024057271744723496 0.011971612087827207 0 -0.00017019730135518774 0.011983031978022073 0
          -0.00009914646563921603 0.011987530870354913 0 -0.000025302285896700027 0.011989023020535707 0
          0.00003132322036047963 0.011978082116327851 0 0 0 0
          -0.00034568676167390233 0.007306407171697171 0 -0.00036691472024796834 0.01005650785892935 0
          -0.00030533257955389637 0.010449984467795374 0 -0.00023866281778733844 0.010506941931967235 0
          -0.00017216968061462 0.010514801579919759 0 -0.00010482593696992115 0.010514902221354532 0
          -0.00003644759838261624 0.010518447815141696 0 0.000020603960117770992 0.01050924959519698 0
          0 0 0 -0.00034253979166343207 0.00624246035313597 0
          -0.000365067567539068 0.008636334191949507 0 -0.00030556254427421825 0.008992684526012013 0
          -0.00024025608169458978 0.009045162609907106 0 -0.00017534538370311825 0.009051733868576162 0
          -0.00011058069931035863 0.009051788822109452 0 -0.00004471320713866911 0.009053074436855522 0
          0.000012166454809225957 0.00904633200059124 0 0 0 0
          -0.0003401446102695438 0.0051934426918637255 0 -0.0003645141217488712 0.0072262654944167115 0
          -0.0003072588532240239 0.007539825810207346 0 -0.0002435405094498022 0.007586717780045632 0
          -0.00018023264327410304 0.007592145331506983 0 -0.00011688102180484883 0.0075912694682715165 0
          -0.00005250016463642648 0.007591503581111249 0 0.000005554372029648036 0.007586228539590102 0
          0 0 0 -0.0003386343620772614 0.004160546802877363 0
          -0.0003659698512593623 0.005827865330320647 0 -0.00031108576591420967 0.006091883288546596 0
          -0.00024893024319916357 0.006131349765441441 0 -0.00018676149206880988 0.006134648103915646 0
          -0.00012417521208757387 0.006132465201296039 0 -0.00006034784030711782 0.006131108345926478 0
          -6.390227172414775e-7 0.006126693796984533 0 0 0 0
          -0.00034022346926620983 0.0031451081421678406 0 -0.0003695090309155935 0.004441808940483183 0
          -0.00031927514984619876 0.004650905397461824 0 -0.0002595144629918833 0.004679171975884244 0
          -0.00019729609471252907 0.00467800341155572 0 -0.00013388090329063962 0.004673444358823831 0
          -0.00006924064677371611 0.004670329531338502 0 -0.000007029614032594278 0.0046662049193651745 0
          0 0 0 -0.00034050770353366566 0.002155457194941257 0
          -0.0003943265978756383 0.003080975912341355 0 -0.0003492946054030055 0.0032191805250186833 0
          -0.00028338281778728103 0.0032279834558878173 0 -0.0002156602154013143 0.0032210991012004975 0
          -0.00014853078069054781 0.003214689835618345 0 -0.00008153033167090928 0.0032106048816033517 0
          -0.00001623312340204297 0.003206926446723879 0 0 0 0
          -0.00043852672206368126 0.0011937910630794857 0 -0.0004407800219521363 0.0017045872269758622 0
          -0.0003454425898794522 0.0017517857976696583 0 -0.0002600696397487834 0.0017481840561258677 0
          -0.00018452814125735628 0.0017419543736565402 0 -0.00011370283955169924 0.0017375985882113198 0
          -0.000044937019587187876 0.0017351617263279273 0 0.000022326132036509794 0.0017326297309131489 0
          0 0 0 0 0 0
          0 0 0 0 0 0
          0 0 0 0 0 0
          0 0 0 0 0 0
          0 0 0 0 0 0
          -0.0006837607737899543 0.01310974368488746 0 -0.0012237634051938118 0.017936019804662577 0
          -0.0016500102892491597 0.01839994006794994 0 -0.002608754495191712 0.018204059548925344 0
          -0.00012872395209147583 0.01831849878151126 0 -0.0029764087980146403 0.02003028051581726 0
          0.000037919421756418825 0.018087962489136022 0 -0.00008723382200057084 0.016677415963327863 0
          0.00009272687335826202 0.018449251558312528 0 0.000049659219354097894 0.0134657645781504 0
          0.00006490679769953489 0.014979231273023887 0 0.00013822134816363074 0.016574262624436564 0
          0.0000660819026108983 0.009038529505620105 0 0.00006090168670105922 0.00758030948869573 0
          0.00007368933476464834 0.010499141107331383 0 0.00008621383437325963 0.011963584745251742 0
          0.0001085340972551167 0.013448782229553508 0 0.00008822422070164926 0.0017303903813544186 0
          0 0 0 0.000047591576894823184 0.003203824594736948 0
          0.00005340646927520787 0.004662326071209866 0 0.00005689112433671095 0.006121960980290608 0
          <InformationKey name="L2_NORM_RANGE" location="vtkDataArray" length="2">
            <Value index="0">
              0
            </Value>
            <Value index="1">
              0.020250213502
            </Value>
          </InformationKey>
        </DataArray>
        <DataArray type="Float64" Name="Pressure" format="ascii" RangeMin="-42.006168552968994" RangeMax="15.700437260026721">
          11.252438864059794 11.252917900093763 11.253312768001551 11.253990528528453 11.253921438303024 6.811155247028036
          6.811628311694063 6.812120048657506 6.812412392417427 6.812779086842024 6.813275671462462 6.813412462960962
          2.370417513147333 2.37089194188713 2.371389514810415 2.3718192967206013 2.372142970726654 2.372321790864183
          2.372452044763999 2.3726479841062784 -2.0696861884764433 -2.0692161626213506 -2.0686887032678514 -2.0682717842658365
          -2.0679413130982907 -2.067682566775038 -2.0675086580396322 -2.0674666205218575 -6.509149135685307 -6.508681357298029
          -6.508153049558732 -6.507723804176365 -6.507381137742379 -6.507125278578337 -6.506955685234544 -6.506856065350127
          -6.506860947621574 -10.947980866519243 -10.947518551507919 -10.946990601587569 -10.946559844491896 -10.946213210500968
          -10.945948537680605 -10.94576431534043 -10.945664973658381 -10.945655175303623 -15.386197183350625 -15.385739820324899
          -15.385215949292862 -15.384784847693709 -15.384434912639652 -15.384164578299318 -15.38397431448348 -15.383862886480314
          -15.383845337923718 -19.823813473989702 -19.823361028668373 -19.822840577281433 -19.8224090775454 -19.822055198063453
          -19.821778483910062 -19.82157959451812 -19.82145963392286 -19.821431861031286 -24.260837793996174 -24.260387759902592
          -24.259869160529206 -24.259432100915028 -24.25906964384368 -24.258782333395082 -24.25857205106455 -24.25844044985155
          -24.25840098752588 -28.697319802348215 -28.69687387623745 -28.6963419019019 -28.695890050148726 -28.695507473083072
          -28.695198960279594 -28.69496929472347 -28.69482152158695 -28.694767116789443 -33.133318941022196 -33.1328455280898
          -33.132292925317245 -33.13178231598732 -33.13134857810106 -33.13100037866124 -33.13074121334495 -33.13057220151934
          -33.130500495751285 -37.569160769847244 -37.56857953530801 -37.567734151118934 -37.56710091896419 -37.56659411558418
          -37.56619915514645 -37.56590925295594 -37.56571987110081 -37.565631934301926 -42.006168552968994 -42.00563175664524
          -42.004958746147224 -42.004298916424034 -42.00376322645711 -42.00334871897813 -42.00304634965063 -42.00284976134275
          -42.002753663619 15.694074521416898 15.694516889443381 15.694703296752161 15.694542205925073 15.69728350768537
          11.253302570100429 15.700437260026721 11.253903775305593 6.812983457869148 11.25562308427004 -2.067464642701699
          2.3725738588392526 6.813111123627926 -15.383886574561458 -19.821468084324525 -10.945701081240461 -6.506912532368999
          -2.0675189538940093 -37.56563827304884 -42.00275428443307 -33.13051425540458 -28.694789284100096 -24.258430883349728
        </DataArray>
        <DataArray type="Float64" Name="Temperature" format="ascii" RangeMin="299.99015508028134" RangeMax="300.18479000174085">
          299.99999999999363 300.07639961220946 300.09845472042525 300.1003121148336 300.1152331026648 299.9999999999937
          300.0761313832534 300.0982099103352 300.10220727668457 300.0986318139336 300.1015719171664 300.1208875156476
          299.9999999999938 300.07578121920335 300.0980717868079 300.1013338357386 300.1029223185575 300.10280155453796
          300.0988810978842 300.09717050622174 299.99999999999375 300.0754279451926 300.09785728918666 300.10157821687505
          300.1019282427899 300.1019815674182 300.1027639550424 300.10329098567735 299.99999999999386 300.07506485610577
          300.0976617322369 300.10142822301157 300.10211701286516 300.10224819062677 300.1021242585823 300.10197632929464
          300.10228411471286 299.9999999999937 300.07469977274735 300.09744610723044 300.101392995593 300.10206465245443
          300.1021738589765 300.10221778481787 300.10226247823414 300.10218817913506 299.99999999999375 300.07433597126794
          300.09723276980793 300.1013222038385 300.10205513138584 300.1021868306672 300.1022060884895 300.1021990734791
          300.1022174685118 299.99999999999375 300.07398195788693 300.0970128773218 300.1012575476036 300.1020374209282
          300.1021794695646 300.1022056411887 300.10221307672055 300.1022094208926 299.9999999999938 300.0736129780432
          300.09680305949564 300.10118857483155 300.10201853417755 300.1021749145236 300.10220412036597 300.10220873097904
          300.1022103673635 299.99999999999375 300.0733779734937 300.096579871953 300.10112525924154 300.10201160830974
          300.10218259999004 300.1022151856048 300.10222147805024 300.10222238049056 299.9999999999938 300.07262415836664
          300.0963677918004 300.1010623292762 300.1019750309813 300.1021512232649 300.10218568870243 300.1021928737385
          300.1021929786144 299.9999999999938 300.07147477155127 300.0920764022971 300.09582651034776 300.0965243154331
          300.0966537512821 300.09667875891546 300.09669832181544 300.0967147555305 299.9999999999938 299.99999999999375
          299.9999999999938 299.99999999999375 299.99999999999375 299.99999999999375 299.99999999999375 299.9999999999938
          299.9999999999938 299.99999999999375 300.0766633367851 300.0980791707588 300.1039879295339 300.0601450468279
          300.0938823377767 300.18479000174085 300.0030482825444 300.12593286832936 299.99015508028134 300.1020366973447
          300.1022483118318 300.10555041635155 300.102214938784 300.10220955047214 300.1021868302646 300.1023286100738
          300.10166615788916 300.09670095867256 299.99999999999375 300.1021918895148 300.1022212885565 300.10220922708487
        </DataArray>
        <DataArray type="Float64" Name="Density" format="ascii" RangeMin="1.162110238107162" RangeMax="1.16286422029988">
          1.1628260592835962 1.1625300031454977 1.1624445654345725 1.1624373707801563 1.162379577266363 1.162826059283596
          1.1625310422958215 1.162445513717999 1.1624300299245884 1.1624438794554826 1.1624324909612935 1.1623576775104776
          1.1628260592835955 1.162532398875071 1.162446048746677 1.1624334131617502 1.1624272602543055 1.1624277280253081
          1.1624429138450758 1.1624495399160686 1.1628260592835957 1.162533767505905 1.1624468796153626 1.1624324665596022
          1.1624311107486285 1.1624309041981533 1.1624278736644074 1.1624258322502719 1.1628260592835953 1.1625351741650163
          1.1624476371173198 1.1624330475556266 1.1624303795568247 1.1624298714466186 1.1624303514909062 1.1624309244877788
          1.1624297322966253 1.162826059283596 1.1625365885536534 1.1624484723552815 1.1624331840078939 1.162430582372264
          1.1624301593663278 1.1624299892218912 1.1624298161043447 1.1624301038979412 1.1628260592835957 1.1625379979795192
          1.1624492987333144 1.1624334582175642 1.162430619251656 1.1624301091211608 1.1624300345269993 1.162430061699272
          1.1624299904470858 1.1628260592835957 1.162539369487987 1.1624501505040932 1.1624337086616021 1.1624306878522508
          1.1624301376340072 1.1624300362595952 1.1624300074584561 1.162430021619112 1.1628260592835955 1.162540798982539
          1.1624509632510505 1.1624339758257396 1.162430761009168 1.1624301552777212 1.1624300421504217 1.1624300242914556
          1.1624300179530072 1.1628260592835957 1.1625417094344377 1.1624518277879738 1.162434221077046 1.1624307878361853
          1.1624301255084675 1.162429999289805 1.162429974916352 1.1624299714207975 1.1628260592835955 1.1625446298658793
          1.1624526493006195 1.1624344648347478 1.1624309295167345 1.1624302470445858 1.1624301135445017 1.1624300857136411
          1.1624300853074097 1.1628260592835955 1.1625490828498588 1.1624692726555481 1.1624547460110801 1.1624520429913263
          1.1624515416096375 1.162451444740315 1.1624513689616693 1.1624513053042096 1.1628260592835955 1.1628260592835957
          1.1628260592835955 1.1628260592835957 1.1628260592835957 1.1628260592835957 1.1628260592835957 1.1628260592835955
          1.1628260592835955 1.1628260592835957 1.162528981447481 1.1624460201445461 1.1624231327008654 1.162592978586442
          1.1624622770297557 1.162110238107162 1.162814243995697 1.1623381373648818 1.16286422029988 1.1624306906550164
          1.1624298709771375 1.1624170805941354 1.162430000245852 1.1624300211171925 1.1624301091227203 1.1624295599463115
          1.1624321259234063 1.1624513587475678 1.1628260592835957 1.1624300895259798 1.162429975650346 1.162430022369816
        </DataArray>
        <DataArray type="Float64" Name="stream" format="ascii" RangeMin="-0.043167382805614635" RangeMax="-0.01708226151206886">
          -0.01708226151206886 -0.018480965597073764 -0.021565359170311608 -0.025194963602660467 -0.028946575566864655 -0.017452847608359436
          -0.01858636814259508 -0.021596640239128974 -0.025106143464725714 -0.02878911632901779 -0.032496726754886004 -0.03615105168929618
          -0.01783524293234456 -0.01889015778016173 -0.021703101312513223 -0.025122324643633634 -0.028622953834373063 -0.032265043118439196
          -0.0358797053972812 -0.03929827011099046 -0.018250491576303093 -0.01924753678184139 -0.021906283268827546 -0.025066654203850125
          -0.02847594445619457 -0.03189995542012137 -0.0354528444351426 -0.03886021379218234 -0.018714932915047208 -0.019632098476873618
          -0.02217784714084046 -0.025171888817854912 -0.02828454304945951 -0.03162112049106194 -0.034939904653471784 -0.03831255760633982
          -0.040859145394400415 -0.01921109405732544 -0.020057726071690596 -0.022459116234897745 -0.02535646414501093 -0.028313520075106888
          -0.03131530284490975 -0.0345519992427102 -0.037683849232206856 -0.04039952232787389 -0.019744322012210297 -0.020515146062904572
          -0.022782307997362437 -0.025540984740978566 -0.02843454790006891 -0.031286105566002864 -0.0341518563417946 -0.03720877472688808
          -0.03982882206303412 -0.020307860068836954 -0.021006049992838487 -0.023131555358062307 -0.02576594645329526 -0.028547248585991274
          -0.031360097810045486 -0.03407121617280441 -0.03673404699261569 -0.039393140157205714 -0.020902073853013667 -0.021527023624632838
          -0.02351359675019526 -0.02601315337201712 -0.028699371171214492 -0.03141754346804681 -0.03409499954815039 -0.036601439022574477
          -0.03893831869664774 -0.02152412130906661 -0.02207811260035465 -0.023924443489473604 -0.026291164660417143 -0.02886988510202042
          -0.03151046756357223 -0.034099836232837924 -0.03657883900629226 -0.03871747580547536 -0.02218223155875751 -0.022657355469167695
          -0.024367672855283663 -0.026599838608285513 -0.029070336991350393 -0.03161943094654557 -0.034140183274974215 -0.036509998823361124
          -0.0384233046182067 -0.022852878425949297 -0.023286465575736777 -0.024858597477615117 -0.02694619315524755 -0.029297184201152023
          -0.03175202384270496 -0.03418208822783282 -0.036404346076499366 -0.03809712027660572 -0.02318334067570836 -0.023936651691039278
          -0.02570657054936054 -0.027882743496267338 -0.030262528767416794 -0.03270142891317642 -0.03505413793901113 -0.03708512682590248
          -0.03842485633564256 -0.01708226151206886 -0.018318970019030073 -0.021334913430359113 -0.02490708168754506 -0.028530067646197574
          -0.03267712603855931 -0.03243213509143525 -0.03629216465748604 -0.039579342200664974 -0.039924587766917916 -0.04114830362434454
          -0.04158159620310503 -0.041784529503381615 -0.04206615791673982 -0.04137687201926324 -0.0426209595448529 -0.042996442158133356
          -0.043167382805614635 -0.03888410569499385 -0.03886762600579939 -0.03947940674222043 -0.04005193176981653 -0.0406435789911635
        </DataArray>
      </PointData>
      <CellData>
        <DataArray type="UInt8" Name="vtkGhostType" format="ascii" RangeMin="0" RangeMax="1">
          0 0 1 0 0 1
          0 0 1 0 0 1
          0 1 1 0 1 1
          1 0 0 0 0 0
          0 0 0 0 0 0
          0 0 0 0 0 0
          0 0 0 0 0 0
          0 0 0 0 0 0
          0 0 0 0 0 0
          0 0 0 0 0 0
          0 0 1 0 0 0
          0 0 0 0 0 0
          0 0 0 0 0 0
          0 0 0 0 0 0
          0 0 0 0 0 0
          0 0 0 0 0 0
          0 0 0 0 0 0
          0 0 0 0 0 0
          0
        </DataArray>
      </CellData>
      <Points>
        <DataArray type="Float32" Name="Points" NumberOfComponents="3" format="ascii" RangeMin="2.0106689521162995" RangeMax="7.158910531638177">
          -1.5 2.3333330154418945 0 -1.3032410144805908 2.3333330154418945 0
          -1.1064809560775757 2.3333330154418945 0 -0.9097222089767456 2.3333330154418945 0
          -0.7129629850387573 2.3333330154418945 0 -1.5 2.722222089767456 0
          -1.3042010068893433 2.722222089767456 0 -1.1084020137786865 2.722222089767456 0
          -0.9126029014587402 2.722222089767456 0 -0.716803789138794 2.722222089767456 0
          -0.5210047960281372 2.722222089767456 0 -0.32520580291748047 2.722222089767456 0
          -1.5 3.1111109256744385 0 -1.3052129745483398 3.1111109256744385 0
          -1.1104249954223633 3.1111109256744385 0 -0.9156379103660583 3.1111109256744385 0
          -0.7208505272865295 3.1111109256744385 0 -0.526063084602356 3.1111109256744385 0
          -0.33127570152282715 3.1111109256744385 0 -0.13648830354213715 3.1111109256744385 0
          -1.5 3.5 0 -1.306249976158142 3.5 0
          -1.1124999523162842 3.5 0 -0.918749988079071 3.5 0
          -0.7250000238418579 3.5 0 -0.53125 3.5 0
          -0.3375000059604645 3.5 0 -0.14374999701976776 3.5 0
          -1.5 3.8888890743255615 0 -1.3072869777679443 3.8888890743255615 0
          -1.1145750284194946 3.8888890743255615 0 -0.9218621253967285 3.8888890743255615 0
          -0.7291495203971863 3.8888890743255615 0 -0.536436915397644 3.8888890743255615 0
          -0.3437243103981018 3.8888890743255615 0 -0.15101170539855957 3.8888890743255615 0
          -4.440892098500626e-16 3.8888890743255615 0 -1.5 4.277778148651123 0
          -1.308298945426941 4.277778148651123 0 -1.1165980100631714 4.277778148651123 0
          -0.9248970746994019 4.277778148651123 0 -0.7331961989402771 4.277778148651123 0
          -0.5414952039718628 4.277778148651123 0 -0.3497942090034485 4.277778148651123 0
          -0.15809330344200134 4.277778148651123 0 -4.440892098500626e-16 4.277778148651123 0
          -1.5 4.6666669845581055 0 -1.309259057044983 4.6666669845581055 0
          -1.1185189485549927 4.6666669845581055 0 -0.9277778267860413 4.6666669845581055 0
          -0.7370370030403137 4.6666669845581055 0 -0.5462962985038757 4.6666669845581055 0
          -0.35555559396743774 4.6666669845581055 0 -0.1648148000240326 4.6666669845581055 0
          -4.440892098500626e-16 4.6666669845581055 0 -1.5 5.055555820465088 0
          -1.3101420402526855 5.055555820465088 0 -1.1202850341796875 5.055555820465088 0
          -0.9304270148277283 5.055555820465088 0 -0.7405692934989929 5.055555820465088 0
          -0.5507115721702576 5.055555820465088 0 -0.360853910446167 5.055555820465088 0
          -0.17099620401859283 5.055555820465088 0 -4.440892098500626e-16 5.055555820465088 0
          -1.5 5.444444179534912 0 -1.3109220266342163 5.444444179534912 0
          -1.121845006942749 5.444444179534912 0 -0.9327675104141235 5.444444179534912 0
          -0.743690013885498 5.444444179534912 0 -0.5546125173568726 5.444444179534912 0
          -0.3655349910259247 5.444444179534912 0 -0.1764574944972992 5.444444179534912 0
          -4.440892098500626e-16 5.444444179534912 0 -1.5 5.8333330154418945 0
          -1.3115739822387695 5.8333330154418945 0 -1.123147964477539 5.8333330154418945 0
          -0.9347221851348877 5.8333330154418945 0 -0.7462962865829468 5.8333330154418945 0
          -0.5578703880310059 5.8333330154418945 0 -0.3694444000720978 5.8333330154418945 0
          -0.18101850152015686 5.8333330154418945 0 -4.440892098500626e-16 5.8333330154418945 0
          -1.5 6.222221851348877 0 -1.3120709657669067 6.222221851348877 0
          -1.1241430044174194 6.222221851348877 0 -0.936214029788971 6.222221851348877 0
          -0.7482852935791016 6.222221851348877 0 -0.5603566765785217 6.222221851348877 0
          -0.3724279999732971 6.222221851348877 0 -0.18449929356575012 6.222221851348877 0
          -4.440892098500626e-16 6.222221851348877 0 -1.5 6.611111164093018 0
          -1.3123890161514282 6.611111164093018 0 -1.1247769594192505 6.611111164093018 0
          -0.9371656179428101 6.611111164093018 0 -0.7495542168617249 6.611111164093018 0
          -0.5619426965713501 6.611111164093018 0 -0.3743312954902649 6.611111164093018 0
          -0.18671980500221252 6.611111164093018 0 -4.440892098500626e-16 6.611111164093018 0
          -1.5 7 0 -1.3125 7 0
          -1.125 7 0 -0.9375 7 0
          -0.75 7 0 -0.5625 7 0
          -0.375 7 0 -0.1875 7 0
          0 7 0 -1.5 1.944443941116333 0
          -1.3023580312728882 1.944443941116333 0 -1.1047149896621704 1.944443941116333 0
          -0.9070730209350586 1.944443941116333 0 -0.7094306945800781 1.944443941116333 0
          -0.5162037014961243 2.3333330154418945 0 -0.5117884278297424 1.944443941116333 0
          -0.3194443881511688 2.3333330154418945 0 -0.12940670549869537 2.722222089767456 0
          -0.12268520146608353 2.3333330154418945 0 -4.440892098500626e-16 3.5 0
          -4.440892098500626e-16 3.1111109256744385 0 0 2.722222089767456 0
          0.1648148000240326 4.6666669845581055 0 0.17099620401859283 5.055555820465088 0
          0.15809330344200134 4.277778148651123 0 0.15101170539855957 3.8888890743255615 0
          0.14374999701976776 3.5 0 0.18671980500221252 6.611111164093018 0
          0.1875 7 0 0.18449929356575012 6.222221851348877 0
          0.18101850152015686 5.8333330154418945 0 0.1764574944972992 5.444444179534912 0
          <InformationKey name="L2_NORM_RANGE" location="vtkDataArray" length="2">
            <Value index="0">
              2.0106689521
            </Value>
            <Value index="1">
              7.1589105316
            </Value>
          </InformationKey>
        </DataArray>
      </Points>
      <Cells>
        <DataArray type="Int64" Name="connectivity" format="ascii" RangeMin="0" RangeMax="131">
          5 6 13 12 0 1
          6 5 109 110 1 0
          6 7 14 13 1 2
          7 6 110 111 2 1
          7 8 15 14 2 3
          8 7 111 112 3 2
          8 9 16 15 3 4
          9 8 112 113 4 3
          9 10 17 16 4 114
          10 9 113 115 114 4
          10 11 18 17 114 116
          11 10 11 117 19 18
          116 118 117 11 55 56
          65 64 46 47 56 55
          37 38 47 46 28 29
          38 37 20 21 29 28
          12 13 21 20 56 57
          66 65 47 48 57 56
          38 39 48 47 29 30
          39 38 21 22 30 29
          13 14 22 21 57 58
          67 66 48 49 58 57
          39 40 49 48 30 31
          40 39 22 23 31 30
          14 15 23 22 49 50
          59 58 40 41 50 49
          31 32 41 40 23 24
          32 31 15 16 24 23
          50 51 60 59 41 42
          51 50 32 33 42 41
          24 25 33 32 16 17
          25 24 51 52 61 60
          42 43 52 51 33 34
          43 42 25 26 34 33
          17 18 26 25 52 53
          62 61 43 44 53 52
          34 35 44 43 26 27
          35 34 18 19 27 26
          53 54 63 62 44 45
          54 53 35 36 45 44
          27 119 36 35 19 120
          119 27 117 121 120 19
          54 122 123 63 45 124
          122 54 36 125 124 45
          119 126 125 36 91 92
          101 100 82 83 92 91
          73 74 83 82 64 65
          74 73 92 93 102 101
          83 84 93 92 74 75
          84 83 65 66 75 74
          93 94 103 102 84 85
          94 93 75 76 85 84
          66 67 76 75 94 95
          104 103 85 86 95 94
          76 77 86 85 67 68
          77 76 58 59 68 67
          95 96 105 104 86 87
          96 95 77 78 87 86
          68 69 78 77 59 60
          69 68 96 97 106 105
          87 88 97 96 78 79
          88 87 69 70 79 78
          60 61 70 69 97 98
          107 106 88 89 98 97
          79 80 89 88 70 71
          80 79 61 62 71 70
          98 99 108 107 89 90
          99 98 80 81 90 89
          71 72 81 80 62 63
          72 71 99 127 128 108
          90 129 127 99 81 130
          129 90 72 131 130 81
          63 123 131 72
        </DataArray>
        <DataArray type="Int64" Name="offsets" format="ascii" RangeMin="4" RangeMax="436">
          4 8 12 16 20 24
          28 32 36 40 44 48
          52 56 60 64 68 72
          76 80 84 88 92 96
          100 104 108 112 116 120
          124 128 132 136 140 144
          148 152 156 160 164 168
          172 176 180 184 188 192
          196 200 204 208 212 216
          220 224 228 232 236 240
          244 248 252 256 260 264
          268 272 276 280 284 288
          292 296 300 304 308 312
          316 320 324 328 332 336
          340 344 348 352 356 360
          364 368 372 376 380 384
          388 392 396 400 404 408
          412 416 420 424 428 432
          436
        </DataArray>
        <DataArray type="UInt8" Name="types" format="ascii" RangeMin="9" RangeMax="9">
          9 9 9 9 9 9
          9 9 9 9 9 9
          9 9 9 9 9 9
          9 9 9 9 9 9
          9 9 9 9 9 9
          9 9 9 9 9 9
          9 9 9 9 9 9
          9 9 9 9 9 9
          9 9 9 9 9 9
          9 9 9 9 9 9
          9 9 9 9 9 9
          9 9 9 9 9 9
          9 9 9 9 9 9
          9 9 9 9 9 9
          9 9 9 9 9 9
          9 9 9 9 9 9
          9 9 9 9 9 9
          9 9 9 9 9 9
          9
        </DataArray>
      </Cells>
    </Piece>
  </UnstructuredGrid>
</VTKFile>
