<?xml version="1.0"?>
<VTKFile type="UnstructuredGrid" version="0.1" byte_order="LittleEndian" header_type="UInt32" compressor="vtkZLibDataCompressor">
  <UnstructuredGrid>
    <Piece NumberOfPoints="51" NumberOfCells="75">
      <PointData>
        <DataArray type="Float64" Name="nsi_BC" NumberOfComponents="3" format="ascii" RangeMin="0" RangeMax="100">
          0 0 0 0 0 0
          0 0 0 0 0 0
          0 0 0 0 0 0
          0 0 0 0 0 0
          0 0 0 0 0 0
          0 0 0 0 0 0
          0 0 0 0 0 0
          0 0 0 0 0 0
          0 0 0 0 0 0
          0 0 0 0 0 0
          0 0 0 0 0 0
          0 0 0 0 0 0
          0 0 0 0 0 0
          0 0 0 0 0 0
          0 0 0 0 0 0
          0 0 0 0 0 0
          0 0 0 0 0 0
          0 0 0 0 0 0
          0 0 0 0 0 0
          0 0 0 0 0 0
          0 0 0 0 0 0
          0 0 0 0 0 0
          0 0 0 100 0 0
          0 0 0 100 0 0
          100 0 0 100 0 0
          100 0 0
          <InformationKey name="L2_NORM_RANGE" location="vtkDataArray" length="2">
            <Value index="0">
              0
            </Value>
            <Value index="1">
              100
            </Value>
          </InformationKey>
        </DataArray>
        <DataArray type="Float64" Name="nsi_FIXNO" NumberOfComponents="3" format="ascii" RangeMin="1" RangeMax="1.4142135623730951">
          0 1 0 -1 -1 0
          0 1 0 -1 -1 0
          -1 -1 0 0 1 0
          -1 -1 0 -1 -1 0
          -1 -1 0 0 1 0
          -1 -1 0 -1 -1 0
          -1 -1 0 -1 -1 0
          0 1 0 0 1 0
          -1 -1 0 0 1 0
          0 1 0 -1 -1 0
          -1 -1 0 -1 -1 0
          0 1 0 0 1 0
          -1 -1 0 -1 -1 0
          -1 -1 0 0 1 0
          -1 -1 0 0 1 0
          1 1 0 -1 -1 0
          -1 -1 0 1 1 0
          0 1 0 -1 -1 0
          1 1 0 -1 -1 0
          -1 -1 0 -1 -1 0
          0 1 0 -1 -1 0
          0 1 0 -1 -1 0
          -1 -1 0 1 1 0
          0 1 0 1 1 0
          1 1 0 1 1 0
          1 1 0
          <InformationKey name="L2_NORM_RANGE" location="vtkDataArray" length="2">
            <Value index="0">
              1
            </Value>
            <Value index="1">
              1.4142135624
            </Value>
          </InformationKey>
        </DataArray>
        <DataArray type="Float64" Name="tem_BC" format="ascii" RangeMin="0" RangeMax="1">
          0 0 0 0 0 0
          0 0 0 0 0 0
          0 0 0 0 0 0
          0 0 0 0 0 0
          0 0 0 0 0 0
          0 0 0 0 0 0
          0 0 0 0 0 0
          0 0 0 1 0 1
          1 1 1
        </DataArray>
        <DataArray type="Float64" Name="tem_FIXNO" format="ascii" RangeMin="-1" RangeMax="1">
          -1 -1 -1 -1 -1 -1
          -1 -1 -1 -1 -1 -1
          -1 -1 -1 -1 -1 -1
          -1 -1 -1 -1 -1 -1
          -1 -1 -1 -1 -1 -1
          1 -1 -1 1 -1 -1
          1 -1 -1 -1 -1 -1
          -1 -1 -1 1 -1 1
          1 1 1
        </DataArray>
        <DataArray type="Float64" Name="Velocity" NumberOfComponents="3" format="ascii" RangeMin="0" RangeMax="113.68391522631431">
          100.00606579828074 0 0 97.13936597495781 1.1200406356184225 0
          91.99463276834693 0 0 91.94736568457705 0.01442665359439873 0
          98.46343200070123 -0.705898689629701 0 94.51352769839347 0 0
          91.96689058908595 0.5798260859847463 0 93.51815578055744 -0.2466296281509922 0
          97.03667410481653 -0.7204302348381256 0 95.40432290883169 0 0
          94.09255840677874 0.19424471959453551 0 93.35864711140903 0.2871041907974499 0
          93.74079064308532 -0.34853037298321804 0 94.291445058988 0.23767012741436108 0
          99.25078494098378 0 0 96.20400992574378 0 0
          94.07419750523931 0.5778026448062897 0 91.43775805674113 0 0
          94.53548548188938 0 0 93.58435584121456 1.9476529872280675 0
          92.02830094891821 -3.7521438185464517 0 93.57356058257574 0.3723767450891896 0
          95.28934781572391 0 0 99.85010320348177 0 0
          99.44249937268788 -3.6700322756031047 0 85.57546486341064 -6.457680536486222 0
          96.63973117633402 3.7865131051729612 0 94.18796060503236 0 0
          112.94429416601476 -12.946775526151002 0 96.74142977432204 0 0
          0 0 0 102.76534663730868 0.2398804789708098 0
          92.69461877909194 26.380549586347012 0 0 0 0
          98.31831886335873 0 0 110.6642158218898 9.197932783959585 0
          0 0 0 99.46450557527632 19.00563323667369 0
          106.80613112942073 -15.577238102322386 0 56.88829067716354 -9.285998442895355 0
          94.19098538174164 0 0 93.46942165641403 3.8275282425470256 0
          99.80895543878253 0 0 92.94157984621826 6.30853648696843 0
          96.4906106742937 -7.950175919624891 0 99.99999999994148 0 0
          90.24391740076351 0 0 99.9999999999415 0 0
          99.99999999994148 0 0 99.9999999999415 0 0
          99.99999999994148 0 0
          <InformationKey name="L2_NORM_RANGE" location="vtkDataArray" length="2">
            <Value index="0">
              0
            </Value>
            <Value index="1">
              113.68391523
            </Value>
          </InformationKey>
        </DataArray>
        <DataArray type="Float64" Name="Pressure" format="ascii" RangeMin="0" RangeMax="2513170.71122755">
          0 0 254532.60137833367 311982.700608205 0 546573.2435684442
          260158.09560166273 669347.3892168286 0 837377.7928642045 545987.8729991419 375966.7129529332
          964545.8451929017 830216.0768762738 0 1133734.8793881873 689558.0047408099 254545.77190385456
          547491.0543368709 1122775.8077555709 1224455.3061980763 998064.2668023319 841737.22640646 1435821.5916594653
          1437655.1911900535 1408135.7810171065 1369228.4793903986 1133801.5788381274 1605688.253742155 1776832.3891178938
          1597581.800161391 1811162.360691023 1526785.000047974 1884339.5656140207 1428427.7451457807 1600099.9319470525
          1895419.063856076 2017137.7568816515 1899405.0361750966 2123887.234496209 2127183.0491852583 2195085.68159949
          1792756.887208 2265388.3165617534 2242486.2785839196 2488216.69490348 2135211.2337183496 2513170.71122755
          2512997.0735159633 2507129.958949835 2487029.210600429
        </DataArray>
        <DataArray type="Float64" Name="Temperature" format="ascii" RangeMin="-0.15865916685218584" RangeMax="1.0000000000004376">
          0.00020144208267525607 0.00016267438219085166 -0.00046130507194371023 0.000057207298026034796 0.00013482410546659246 0.0006570086351054377
          -0.0002867213916575305 -0.0008755797923461876 -0.00008048403652632725 0.0005837813766285233 0.0004434788323808889 0.00031206741757613916
          0.002037504055290537 -0.0005610194590698163 0.0001864451476750395 -0.00680281974509042 -0.00044207875669324554 -0.00010749041147110788
          -0.0001861071050383777 0.0013519795056594766 0.0008289862184657493 0.0004044873091325369 0.0003615933740853583 0.03196695609903108
          0.002042495972179181 -0.0062721690506412995 -0.0031732801831562806 0.0013933409324782603 0.04128697035570085 -0.009210998371702493
          0 -0.05977514295375018 0.01812366371445376 0 -0.0050997589066357485 0.023750671443457168
          0 -0.10874465647408554 -0.11134780618507353 -0.15865916685218584 0.09031276573576455 0.21976485468843227
          -0.0073280808663868345 0.24987079369876614 0.24787976155037528 1.0000000000004376 0.17619984059624272 1.0000000000004376
          1.0000000000004376 1.0000000000004376 1.0000000000004376
        </DataArray>
        <DataArray type="Float64" Name="CN2" format="ascii" RangeMin="4.9364759981486716e-20" RangeMax="1.7695022434927807e-10">
          1.81995952153385e-19 9.373927736416048e-20 4.196944503379272e-18 8.299311642792628e-18 4.9364759981486716e-20 4.214810156316921e-17
          2.4232427896707632e-18 1.7353644075403748e-16 9.965704769477703e-20 1.4387721012177471e-15 3.627516964351708e-17 6.4557735656963e-18
          1.6170576660870717e-15 2.72325151045762e-16 6.526737805957715e-20 3.198373758200127e-14 4.5847238487448164e-17 1.1199383023417824e-18
          1.3255506830632633e-17 1.1522165484225222e-15 2.9941062167475276e-15 3.521159090992672e-16 5.4383109291368224e-17 3.4740600720438255e-13
          2.894204400754728e-13 6.721197265372632e-14 2.5164736156282294e-14 1.4042282579474424e-15 1.1201646144278403e-12 1.131408554842451e-12
          1.573162235057843e-13 4.0683537982547e-12 5.216000798779817e-13 3.221857530394976e-12 5.698504244232138e-14 8.75052906133679e-13
          3.847639555182908e-12 1.4731150265969107e-11 1.0856611047318888e-11 2.747210880679242e-11 4.755387799165307e-11 8.007768820140396e-11
          3.3456119099469165e-12 9.587235368832394e-11 8.073153405457004e-11 1.7504884937147203e-10 6.283433155953764e-11 1.7678388501183026e-10
          1.6891968261706617e-10 1.582193538666029e-10 1.7695022434927807e-10
        </DataArray>
        <DataArray type="Float64" Name="CT2" format="ascii" RangeMin="4.403201003067872e-8" RangeMax="0.2393025124323136">
          1.6233554891164722e-7 8.361289482781175e-8 2.978300826688611e-7 4.361492202073428e-7 4.403201003067872e-8 8.992850276692044e-7
          1.6663236839545424e-7 0.0000026151148841420508 8.889106905136018e-8 0.000014605519991193374 7.753792349624422e-7 2.541837225152144e-7
          0.000012728005404579114 0.000002807159741667678 5.821675257663548e-8 0.0001874100542423702 6.559834953871879e-7 7.946930539334793e-8
          2.82018912084487e-7 0.000006873843737074418 0.000015224690893667194 0.000002604853637534494 5.469624112302966e-7 0.0013143459804972864
          0.0010918799614778728 0.0002635581728580086 0.00010397864355635432 0.00000822823241462845 0.003436336718568289 0.0028645771405816606
          0.00048692572016586816 0.009926450268065263 0.0017585034049057073 0.007298354803401757 0.0002175651051003049 0.0027013886965019476
          0.008619394743468936 0.029268287830146428 0.02418438488814643 0.04943195252255531 0.0856246903033418 0.1360383767418214
          0.008328943374278724 0.15340076285780066 0.13170900450291892 0.23651396974132052 0.1124684510553922 0.23431814226230005
          0.2239242950517458 0.21068472601898372 0.2393025124323136
        </DataArray>
        <DataArray type="Float64" Name="CN2_MEAN" format="ascii" RangeMin="4.926216540552402e-19" RangeMax="8.841041612996833e-10">
          8.674395397178792e-19 8.487940079111353e-19 1.226198489744115e-15 9.034999703214336e-16 4.926216540552402e-19 1.5079680634578356e-14
          1.5974904327655345e-16 1.032211658190264e-14 2.6266675633470207e-18 3.7044693116297686e-14 1.6212100604980516e-15 9.49712339057134e-16
          2.0280385193877202e-14 8.224905048168201e-15 1.3785665748117656e-18 1.0787563571289567e-13 6.131896107238099e-15 3.5496090032971737e-16
          3.810663571866542e-15 5.700566636604268e-14 7.50979176600475e-14 3.540409336127439e-14 2.7894640240343485e-14 8.322037214716715e-13
          7.274577344198736e-13 3.9333608580204683e-13 2.372467800715709e-13 8.090261768124295e-14 2.9949064143430676e-12 2.21597807941731e-12
          5.73277809474808e-13 7.762583000482958e-12 1.5874438181623947e-12 5.254635484959606e-12 4.686216348671089e-13 2.5683233013935602e-12
          5.977437113349019e-12 2.3924046175292457e-11 1.718683430083912e-11 3.79702640426641e-11 2.2386843154200664e-10 3.943597926865935e-10
          5.934314777227231e-12 4.66131564002871e-10 4.2996483001358044e-10 8.304283046121564e-10 3.644739219812434e-10 8.841041612996833e-10
          8.833825081887741e-10 8.734845699125304e-10 8.403452074727617e-10
        </DataArray>
        <DataArray type="Float64" Name="CN2_FROM_MEAN" format="ascii" RangeMin="3.4383729233241755e-20" RangeMax="5.768037471930159e-10">
          9.361275601688254e-20 5.729283531299196e-20 7.054781380716967e-18 1.3130356571852295e-17 3.4383729233241755e-20 2.293315899687866e-16
          4.664118644361395e-18 5.693927266581182e-16 7.043140701521663e-20 7.08816367267531e-15 1.3064075959664393e-16 2.4392195758928176e-17
          5.5497347698028434e-15 2.378841397420523e-15 4.8410917476262247e-20 9.218567437058424e-14 7.809711807526045e-16 3.917122073658209e-18
          2.300284486122129e-16 1.2262225427405965e-14 1.9835572290435626e-14 1.0321010184213956e-14 6.0927621175587804e-15 1.0193499595468366e-12
          8.175611151291153e-13 2.2289338611336411e-13 1.3980825808536195e-13 2.844092369950022e-14 1.936057927049159e-12 3.0531885999564646e-12
          5.667603077845328e-13 8.988602690808955e-12 1.1350410169289023e-12 6.8575715235542045e-12 2.7646252697163554e-13 3.0913927728806875e-12
          9.558687517280091e-12 1.3700145092644834e-11 1.3788956396404896e-11 3.922679448979685e-11 1.9221321503452693e-10 2.994454199405301e-10
          8.174457118740538e-12 3.380795508112858e-10 3.1351514750183434e-10 5.276398435089521e-10 2.887459862572574e-10 5.678321258648669e-10
          5.768037471930159e-10 5.587278135844576e-10 5.542215603667468e-10
        </DataArray>
      </PointData>
      <CellData>
        <DataArray type="UInt8" Name="vtkGhostType" format="ascii" RangeMin="0" RangeMax="0">
          0 0 0 0 0 0
          0 0 0 0 0 0
          0 0 0 0 0 0
          0 0 0 0 0 0
          0 0 0 0 0 0
          0 0 0 0 0 0
          0 0 0 0 0 0
          0 0 0 0 0 0
          0 0 0 0 0 0
          0 0 0 0 0 0
          0 0 0 0 0 0
          0 0 0 0 0 0
          0 0 0
        </DataArray>
      </CellData>
      <Points>
        <DataArray type="Float32" Name="Points" NumberOfComponents="3" format="ascii" RangeMin="0" RangeMax="17.88854381999832">
          16 8 0 16 6 0
          14 8 0 13.571430206298828 5.4463372230529785 0
          16 4 0 12 8 0
          14 3.464102029800415 0 11.101200103759766 5.649384021759033 0
          16 2 0 10 8 0
          12 3.464102029800415 0 13.166669845581055 1.776708960533142 0
          9.0526123046875 5.597301006317139 0 10 3.464102029800415 0
          16 0 0 8 8 0
          11 1.7320510149002075 0 14 0 0
          12 0 0 8 3.464102029800415 0
          7.214476108551025 5.006220817565918 0 8.865592002868652 1.8541419506072998 0
          10 0 0 6 8 0
          5.868243217468262 6.172163009643555 0 5.61288595199585 4.4169921875 0
          6.193554878234863 2.464600086212158 0 8 0 0
          4.574699878692627 4.995409965515137 0 4 8 0
          4.5 4 0 3.80739688873291 6.614357948303223 0
          4.723260879516602 3.0721371173858643 0 3.75 4.433012962341309 0
          6 0 0 4.8942999839782715 1.5862879753112793 0
          3.75 3.5669870376586914 0 3.0087170600891113 5.149643898010254 0
          3.5546820163726807 2.3947041034698486 0 2.864197015762329 3.831125020980835 0
          2 8 0 1.7273950576782227 6.389729976654053 0
          4 0 0 1.5482569932937622 4.574378967285156 0
          1.6611889600753784 2.800034999847412 0 0 8 0
          2 0 0 0 6 0
          0 4 0 0 2 0
          0 0 0
          <InformationKey name="L2_NORM_RANGE" location="vtkDataArray" length="2">
            <Value index="0">
              0
            </Value>
            <Value index="1">
              17.88854382
            </Value>
          </InformationKey>
        </DataArray>
      </Points>
      <Cells>
        <DataArray type="Int64" Name="connectivity" format="ascii" RangeMin="0" RangeMax="50">
          30 36 32 36 33 39
          33 30 28 32 36 38
          39 33 37 28 30 25
          30 32 25 36 39 38
          33 28 37 32 38 35
          39 37 43 28 25 24
          35 38 42 43 37 41
          24 25 20 32 35 26
          39 43 44 28 24 31
          41 37 31 26 35 34
          31 24 23 20 25 19
          44 43 48 48 43 47
          43 41 47 47 41 45
          32 26 25 28 31 37
          24 20 15 39 44 38
          35 42 34 44 48 49
          44 49 46 50 46 49
          14 8 17 15 23 24
          27 22 21 21 22 16
          27 21 26 16 22 18
          16 18 11 11 18 17
          16 11 10 11 17 8
          10 11 6 6 11 8
          10 6 3 3 4 1
          10 3 7 7 3 5
          10 7 13 13 7 12
          10 13 16 12 7 9
          13 12 19 16 13 21
          19 12 20 20 12 15
          19 25 26 21 13 19
          21 19 26 0 2 1
          4 3 6 29 40 31
          29 31 23 5 9 7
          46 42 38 8 4 6
          2 5 3 34 27 26
          40 45 41 40 41 31
          9 15 12 38 44 46
          1 2 3
        </DataArray>
        <DataArray type="Int64" Name="offsets" format="ascii" RangeMin="3" RangeMax="225">
          3 6 9 12 15 18
          21 24 27 30 33 36
          39 42 45 48 51 54
          57 60 63 66 69 72
          75 78 81 84 87 90
          93 96 99 102 105 108
          111 114 117 120 123 126
          129 132 135 138 141 144
          147 150 153 156 159 162
          165 168 171 174 177 180
          183 186 189 192 195 198
          201 204 207 210 213 216
          219 222 225
        </DataArray>
        <DataArray type="UInt8" Name="types" format="ascii" RangeMin="5" RangeMax="5">
          5 5 5 5 5 5
          5 5 5 5 5 5
          5 5 5 5 5 5
          5 5 5 5 5 5
          5 5 5 5 5 5
          5 5 5 5 5 5
          5 5 5 5 5 5
          5 5 5 5 5 5
          5 5 5 5 5 5
          5 5 5 5 5 5
          5 5 5 5 5 5
          5 5 5 5 5 5
          5 5 5
        </DataArray>
      </Cells>
    </Piece>
  </UnstructuredGrid>
</VTKFile>
