<?xml version="1.0"?>
<VTKFile type="UnstructuredGrid" version="0.1" byte_order="LittleEndian" header_type="UInt32" compressor="vtkZLibDataCompressor">
  <UnstructuredGrid>
    <Piece NumberOfPoints="37" NumberOfCells="52">
      <PointData>
        <DataArray type="Float64" Name="nsi_SBC" NumberOfComponents="3" format="ascii" RangeMin="0" RangeMax="0">
          0 0 0 0 0 0
          0 0 0 0 0 0
          0 0 0 0 0 0
          0 0 0 0 0 0
          0 0 0 0 0 0
          0 0 0 0 0 0
          0 0 0 0 0 0
          0 0 0 0 0 0
          0 0 0 0 0 0
          0 0 0 0 0 0
          0 0 0 0 0 0
          0 0 0 0 0 0
          0 0 0 0 0 0
          0 0 0 0 0 0
          0 0 0 0 0 0
          0 0 0 0 0 0
          0 0 0 0 0 0
          0 0 0 0 0 0
          0 0 0
          <InformationKey name="L2_NORM_RANGE" location="vtkDataArray" length="2">
            <Value index="0">
              0
            </Value>
            <Value index="1">
              0
            </Value>
          </InformationKey>
        </DataArray>
        <DataArray type="Float64" Name="nsi_SFIXNO" NumberOfComponents="3" format="ascii" RangeMin="0" RangeMax="1.7320508075688772">
          0 0 0 0 0 0
          0 0 0 -1 -1 -1
          0 0 0 0 0 0
          -1 -1 -1 -1 -1 -1
          -1 -1 -1 0 0 0
          0 0 0 -1 -1 -1
          -1 -1 -1 -1 -1 -1
          -1 -1 -1 -1 -1 -1
          0 0 0 0 0 0
          -1 -1 -1 -1 -1 -1
          -1 -1 -1 -1 -1 -1
          -1 -1 -1 -1 -1 -1
          0 0 0 0 0 0
          0 0 0 0 0 0
          -1 -1 -1 0 0 0
          0 0 0 -1 -1 -1
          0 0 0 0 0 0
          0 0 0 0 0 0
          0 0 0
          <InformationKey name="L2_NORM_RANGE" location="vtkDataArray" length="2">
            <Value index="0">
              0
            </Value>
            <Value index="1">
              1.7320508076
            </Value>
          </InformationKey>
        </DataArray>
        <DataArray type="Float64" Name="nsi_UBC" NumberOfComponents="3" format="ascii" RangeMin="0" RangeMax="1">
          0 0 0 0 0 0
          0 0 0 0 0 0
          0 0 0 0 0 0
          0 0 0 0 0 0
          0 0 0 0 0 0
          0 0 0 0 0 0
          0 0 0 0 0 0
          0 0 0 0 0 0
          0 0 0 0 0 0
          0 0 0 0 0 0
          0 0 0 0 0 0
          0 0 0 0 0 0
          0 0 0 1 0 0
          1 0 0 0 0 0
          0 0 0 0 0 0
          1 0 0 0 0 0
          0 0 0 1 0 0
          1 0 0 0 0 0
          1 0 0
          <InformationKey name="L2_NORM_RANGE" location="vtkDataArray" length="2">
            <Value index="0">
              0
            </Value>
            <Value index="1">
              1
            </Value>
          </InformationKey>
        </DataArray>
        <DataArray type="Float64" Name="nsi_UFIXNO" NumberOfComponents="3" format="ascii" RangeMin="1.4142135623730951" RangeMax="1.4142135623730951">
          1 1 0 1 1 0
          1 1 0 -1 -1 0
          1 1 0 1 1 0
          -1 -1 0 -1 -1 0
          -1 -1 0 1 1 0
          1 1 0 -1 -1 0
          -1 -1 0 -1 -1 0
          -1 -1 0 -1 -1 0
          1 1 0 1 1 0
          -1 -1 0 -1 -1 0
          -1 -1 0 -1 -1 0
          -1 -1 0 -1 -1 0
          1 1 0 1 1 0
          1 1 0 1 1 0
          -1 -1 0 1 1 0
          1 1 0 -1 -1 0
          1 1 0 1 1 0
          1 1 0 1 1 0
          1 1 0
          <InformationKey name="L2_NORM_RANGE" location="vtkDataArray" length="2">
            <Value index="0">
              1.4142135624
            </Value>
            <Value index="1">
              1.4142135624
            </Value>
          </InformationKey>
        </DataArray>
        <DataArray type="Float64" Name="tem_BC" format="ascii" RangeMin="0" RangeMax="462">
          0 0 0 0 0 0
          0 0 0 0 0 0
          0 0 0 0 0 0
          0 0 0 0 0 0
          0 462 462 0 0 0
          462 0 0 462 462 0
          462
        </DataArray>
        <DataArray type="Float64" Name="tem_FIXNO" format="ascii" RangeMin="-1" RangeMax="1">
          -1 -1 -1 -1 -1 -1
          -1 -1 -1 -1 -1 -1
          -1 -1 -1 -1 -1 -1
          -1 -1 -1 -1 -1 -1
          -1 1 1 -1 -1 -1
          1 -1 -1 1 1 -1
          1
        </DataArray>
        <DataArray type="Float64" Name="Velocity" NumberOfComponents="3" format="ascii" RangeMin="0" RangeMax="1.0000000000000075">
          0 0 0 0 0 0
          0 0 0 -0.015658081948695883 -0.018976841796541324 0
          0 0 0 0 0 0
          -0.023367418626786512 -0.004715542871518933 0 -0.021579395238519223 -0.05366515770164855 0
          -0.04436927462723594 -0.01925247782883579 0 0 0 0
          0 0 0 -0.03448556938181055 0.0027098729655769655 0
          -0.04562007659832576 -0.04522952478341543 0 -0.07340984318574037 0.006051564170101323 0
          -0.01877325274088994 0.009831952040085986 0 -0.027300560913085543 -0.08911118616253826 0
          0 0 0 0 0 0
          -0.03988528677409419 0.0259604627675725 0 0.22367194174982807 -0.016703409187644958 0
          -0.014389607331512424 0.02171617828494296 0 0.11004900493043474 0.002926939578103871 0
          -0.05318373704394525 0.051889697003553704 0 -0.023851649464139032 0.05285990374867638 0
          0 0 0 1.0000000000000075 0 0
          1.0000000000000075 0 0 0 0 0
          0.264735381718717 0.018204231815975375 0 0 0 0
          1.0000000000000075 0 0 -0.03158035441676462 0.09180807391321692 0
          0 0 0 1.0000000000000075 0 0
          1.0000000000000075 0 0 0 0 0
          1.0000000000000075 0 0
          <InformationKey name="L2_NORM_RANGE" location="vtkDataArray" length="2">
            <Value index="0">
              0
            </Value>
            <Value index="1">
              1
            </Value>
          </InformationKey>
        </DataArray>
        <DataArray type="Float64" Name="Pressure" format="ascii" RangeMin="-85473.73685692559" RangeMax="68652.6529339041">
          0 -1083.4427105057034 530.7744635503856 1104.089551995328 -4313.109750820233 6340.881981217945
          -2811.7092204046307 9869.18608722623 -1580.9444097987673 -11058.791065473157 21678.1000102474 -8580.659234899462
          8706.731878413393 -9259.374999910155 -13891.262680623746 35597.97165628948 -13599.706669389212 68652.6529339041
          -14839.403968621024 9982.618212863574 -17790.080874514046 -10794.210054293922 -27578.865949954663 -24611.662017788785
          -15196.761559416673 47703.49181744264 39082.9879421696 -15678.122176422496 -26307.589633945838 -21355.493137288882
          9021.877620377973 -52692.31262845147 -36709.66212826994 -25664.52371198675 -53447.93290434621 -85473.73685692559
          -62733.49389674534
        </DataArray>
        <DataArray type="Float64" Name="Sigma" NumberOfComponents="6" format="ascii" RangeMin="222.80442373624115" RangeMax="27331.30200927332">
          200.0704727059143 -74.14433947695042 0 -64.157884248136 0 0
          328.1566412461769 -234.87069375246577 0 -414.2090272229635 0 0
          153.12976914074306 -498.2676848371918 0 542.5243502973669 0 0
          1032.4263412966654 -1001.0143478471082 0 -431.7425134731429 0 0
          381.71260393119036 -41.56420896416114 0 -1285.312453021045 0 0
          781.813622860954 -948.8098502985878 0 2175.046391295324 0 0
          448.28135073138185 -349.5205327042667 0 -192.40967465973583 0 0
          2215.036994944444 -2284.343002077665 0 -682.6292542371802 0 0
          857.2275199214122 -1268.9207595613698 0 -1010.4684229194294 0 0
          -330.2773469813174 164.1850090586244 0 -1040.5782298023828 0 0
          1022.8579567308642 -4347.545771862899 0 3663.0343628634864 0 0
          -164.8014779879331 194.3407996126876 0 -224.29086373559647 0 0
          775.8775341324462 614.6333294443184 0 -2335.444457995358 0 0
          -349.57009167083453 111.43244486284307 0 -2596.7802058000575 0 0
          -711.3406487114838 530.2595331427505 0 -446.1176198361325 0 0
          -156.04266467728692 3053.9766473707905 0 317.03602918452464 0 0
          -122.46904844004979 98.00067359798948 0 -306.01019992315236 0 0
          -641.0343893962456 7090.059133784681 0 13208.784679109904 0 0
          -1286.3898507521524 1911.8743962927354 0 -757.3420558667734 0 0
          -2873.73044755239 154.00363507393737 0 9395.45450687865 0 0
          -935.4909702901182 593.47403605259 0 -417.99956483545316 0 0
          404.4512749773283 -174.6155596846349 0 6378.389191023616 0 0
          -218.82043957749292 -1196.4268345174346 0 -2148.025046109936 0 0
          -2152.940542176883 2364.8309505546094 0 -779.669506145006 0 0
          -435.70944614116274 287.7614142709921 0 -115.18566752063981 0 0
          1691.5647532510823 -5207.360659537358 0 19503.584631058606 0 0
          934.1567932543647 172.520374776798 0 26587.029990870407 0 0
          -309.10742900088934 629.4721888956245 0 536.3819655777688 0 0
          1485.8564770041505 1023.7065669406654 0 9923.823039155877 0 0
          -961.9611735226196 1336.3958602467771 0 2197.891696779643 0 0
          -19.85656759635281 1815.6825652300229 0 22854.52653842016 0 0
          443.5762940998496 -3502.2229177937434 0 -71.2901993677476 0 0
          -1087.3286500124839 4466.0474142003295 0 4100.658749212507 0 0
          698.4983331937763 -2693.9112919389518 0 22925.879253046547 0 0
          -330.2293914367645 -274.40359052731367 0 27327.929316738304 0 0
          461.62351963437976 -6849.921932484758 0 13310.82454261423 0 0
          -1533.2324187860766 5285.880700448812 0 19058.435748577813 0 0
          <InformationKey name="L2_NORM_RANGE" location="vtkDataArray" length="2">
            <Value index="0">
              222.80442374
            </Value>
            <Value index="1">
              27331.302009
            </Value>
          </InformationKey>
        </DataArray>
        <DataArray type="Float64" Name="Temperature" format="ascii" RangeMin="-0.4908065985759286" RangeMax="462.000000000002">
          -0.01366758066985199 -0.003302758624517655 0.030639972810378103 -0.023645502551276436 -0.024335908531002034 -0.09579852336013155
          0.044782074771406034 0.18944709903346824 -0.13259816338372646 -0.027605617978814546 -0.0034364949514520517 0.02699298759487675
          0.14265066775765087 0.042856944692615764 0.001836951476429223 -0.4908065985759286 0.0084442557490847 0.6368845902120979
          -0.025448999865876527 0.4851061060680352 0.007501167435773555 -0.40109329174955816 -0.07306270291678715 -0.0003082854127097
          -0.0016027084752951782 462.000000000002 462.00000000000193 -0.005238562205048975 0.7319899604409663 -0.004032405106651638
          462.0000000000019 -0.37496816594381915 0.09737739483849113 462.000000000002 462.000000000002 0.4057504274129565
          462.00000000000193
        </DataArray>
      </PointData>
      <CellData>
        <DataArray type="UInt8" Name="vtkGhostType" format="ascii" RangeMin="0" RangeMax="0">
          0 0 0 0 0 0
          0 0 0 0 0 0
          0 0 0 0 0 0
          0 0 0 0 0 0
          0 0 0 0 0 0
          0 0 0 0 0 0
          0 0 0 0 0 0
          0 0 0 0 0 0
          0 0 0 0
        </DataArray>
      </CellData>
      <Points>
        <DataArray type="Float32" Name="Points" NumberOfComponents="3" format="ascii" RangeMin="0" RangeMax="1.4142135623730951">
          1 0 0 0.800000011920929 0 0
          1 0.20000000298023224 0 0.8223291039466858 0.28333330154418945 0
          0.6000000238418579 0 0 1 0.4000000059604645 0
          0.6535897850990295 0.20000000298023224 0 0.8267949223518372 0.5 0
          0.6535897850990295 0.4000000059604645 0 0.4000000059604645 0 0
          1 0.6000000238418579 0 0.466100811958313 0.2836605906486511 0
          0.6535897850990295 0.6000000238418579 0 0.48038479685783386 0.5 0
          0.30186039209365845 0.20196330547332764 0 0.8223291039466858 0.7166666984558105 0
          0.20000000298023224 0 0 1 0.800000011920929 0
          0.30717968940734863 0.4000000059604645 0 0.6535897850990295 0.800000011920929 0
          0.15644900500774384 0.34039270877838135 0 0.4859890937805176 0.7571429014205933 0
          0.30717968940734863 0.6000000238418579 0 0.17320510745048523 0.5 0
          0 0 0 1 1 0
          0.800000011920929 1 0 0 0.20000000298023224 0
          0.31155261397361755 0.8147618770599365 0 0 0.4000000059604645 0
          0.6000000238418579 1 0 0.16459409892559052 0.7166666984558105 0
          0 0.6000000238418579 0 0.4000000059604645 1 0
          0.20000000298023224 1 0 0 0.800000011920929 0
          0 1 0
          <InformationKey name="L2_NORM_RANGE" location="vtkDataArray" length="2">
            <Value index="0">
              0
            </Value>
            <Value index="1">
              1.4142135624
            </Value>
          </InformationKey>
        </DataArray>
      </Points>
      <Cells>
        <DataArray type="Int64" Name="connectivity" format="ascii" RangeMin="0" RangeMax="36">
          24 16 27 10 17 15
          35 32 31 15 17 26
          10 15 7 31 32 23
          7 15 12 10 7 5
          23 32 29 12 15 19
          5 7 3 19 15 26
          12 19 21 3 7 8
          21 30 33 12 21 13
          8 7 12 13 21 22
          12 13 8 22 21 28
          13 22 18 8 13 11
          22 28 31 31 28 34
          22 31 23 22 23 18
          18 23 20 20 23 29
          20 29 27 20 27 14
          18 20 14 14 27 16
          18 14 11 11 13 18
          8 11 6 6 11 9
          8 6 3 3 6 1
          1 0 2 30 21 19
          9 4 6 25 26 17
          2 5 3 2 3 1
          34 36 35 16 9 14
          33 34 28 28 21 33
          4 1 6 26 30 19
          35 31 34 11 14 9
        </DataArray>
        <DataArray type="Int64" Name="offsets" format="ascii" RangeMin="3" RangeMax="156">
          3 6 9 12 15 18
          21 24 27 30 33 36
          39 42 45 48 51 54
          57 60 63 66 69 72
          75 78 81 84 87 90
          93 96 99 102 105 108
          111 114 117 120 123 126
          129 132 135 138 141 144
          147 150 153 156
        </DataArray>
        <DataArray type="UInt8" Name="types" format="ascii" RangeMin="5" RangeMax="5">
          5 5 5 5 5 5
          5 5 5 5 5 5
          5 5 5 5 5 5
          5 5 5 5 5 5
          5 5 5 5 5 5
          5 5 5 5 5 5
          5 5 5 5 5 5
          5 5 5 5 5 5
          5 5 5 5
        </DataArray>
      </Cells>
    </Piece>
  </UnstructuredGrid>
</VTKFile>
