<?xml version="1.0"?>
<VTKFile type="UnstructuredGrid" version="0.1" byte_order="LittleEndian" header_type="UInt32" compressor="vtkZLibDataCompressor">
  <UnstructuredGrid>
    <Piece NumberOfPoints="223" NumberOfCells="380">
      <PointData>
        <DataArray type="Float64" Name="ale_BC" NumberOfComponents="3" format="ascii" RangeMin="0" RangeMax="1">
          0 0 0 0 0 0
          0 0 0 0 0 0
          0 0 0 0 0 0
          0 0 0 0 0 0
          0 0 0 0 0 0
          0 0 0 0 0 0
          0 0 0 0 0 0
          0 0 0 0 0 0
          0 0 0 0 0 0
          0 0 0 0 0 0
          0 0 0 0 0 0
          0 0 0 0 0 0
          0 0 0 0 0 0
          0 0 0 0 0 0
          0 0 0 0 0 0
          0 0 0 0 0 0
          0 0 0 0 0 0
          0 0 0 0 0 0
          0 0 0 0 0 0
          0 0 0 0 0 0
          0 0 0 0 0 0
          0 0 0 0 0 0
          0 0 0 0 0 0
          0 0 0 0 0 0
          0 0 0 0 0 0
          0 0 0 0 0 0
          0 0 0 0 0 0
          0 0 0 0 0 0
          0 0 0 0 0 0
          0 0 0 0 0 0
          0 0 0 0 0 0
          0 0 0 0 0 0
          0 0 0 0 0 0
          0 0 0 0 0 0
          0 0 0 0 0 0
          0 0 0 0 0 0
          0 0 0 0 0 0
          0 0 0 0 0 0
          0 0 0 0 1 0
          0 1 0 0 0 0
          0 1 0 0 1 0
          0 0 0 0 1 0
          0 0 0 0 0 0
          0 1 0 0 0 0
          0 0 0 0 0 0
          0 0 0 0 1 0
          0 1 0 0 0 0
          0 0 0 0 0 0
          0 1 0 0 0 0
          0 1 0 0 0 0
          0 0 0 0 0 0
          0 1 0 0 1 0
          0 0 0 0 0 0
          0 0 0 0 0 0
          0 1 0 0 0 0
          0 0 0 0 1 0
          0 0 0 0 0 0
          0 0 0 0 0 0
          0 0 0 0 1 0
          0 1 0 0 0 0
          0 0 0 0 0 0
          0 0 0 0 0 0
          0 0 0 0 1 0
          0 1 0 0 0 0
          0 0 0 0 0 0
          0 1 0 0 0 0
          0 1 0 0 0 0
          0 0 0 0 0 0
          0 0 0 0 0 0
          0 1 0 0 0 0
          0 1 0 0 0 0
          0 0 0 0 0 0
          0 1 0 0 0 0
          0 0 0 0 1 0
          0 0 0 0 1 0
          0 0 0 0 0 0
          0 1 0 0 0 0
          0 0 0 0 0 0
          0 1 0 0 1 0
          0 0 0 0 0 0
          0 0 0 0 0 0
          0 0 0 0 1 0
          0 0 0 0 1 0
          0 0 0 0 0 0
          0 1 0 0 1 0
          0 0 0 0 1 0
          0 1 0 0 1 0
          0 1 0 0 0 0
          0 0 0 0 0 0
          0 0 0 0 0 0
          0 0 0 0 0 0
          0 0 0 0 0 0
          0 0 0 0 0 0
          0 0 0 0 0 0
          0 0 0 0 0 0
          0 0 0 0 0 0
          0 0 0 0 0 0
          0 0 0 0 0 0
          0 0 0 0 0 0
          0 0 0 0 0 0
          0 0 0 0 0 0
          0 0 0 0 0 0
          0 0 0 0 0 0
          0 0 0 0 0 0
          0 0 0 0 0 0
          0 0 0 0 0 0
          0 0 0 0 0 0
          0 0 0 0 0 0
          0 0 0 0 0 0
          0 0 0 0 0 0
          0 0 0 0 0 0
          0 0 0
          <InformationKey name="L2_NORM_RANGE" location="vtkDataArray" length="2">
            <Value index="0">
              0
            </Value>
            <Value index="1">
              1
            </Value>
          </InformationKey>
        </DataArray>
        <DataArray type="Float64" Name="ale_FIXNO" NumberOfComponents="3" format="ascii" RangeMin="1.4142135623730951" RangeMax="1.4142135623730951">
          1 1 0 1 1 0
          1 1 0 -1 -1 0
          1 1 0 1 1 0
          -1 -1 0 -1 -1 0
          1 1 0 -1 -1 0
          1 1 0 -1 -1 0
          -1 -1 0 1 1 0
          1 1 0 -1 -1 0
          -1 -1 0 -1 -1 0
          -1 -1 0 1 1 0
          -1 -1 0 1 1 0
          -1 -1 0 -1 -1 0
          -1 -1 0 -1 -1 0
          -1 -1 0 -1 -1 0
          1 1 0 -1 -1 0
          -1 -1 0 -1 -1 0
          1 1 0 -1 -1 0
          1 1 0 -1 -1 0
          -1 -1 0 -1 -1 0
          1 1 0 -1 -1 0
          -1 -1 0 1 1 0
          -1 -1 0 -1 -1 0
          -1 -1 0 -1 -1 0
          1 1 0 -1 -1 0
          -1 -1 0 -1 -1 0
          -1 -1 0 -1 -1 0
          -1 -1 0 -1 -1 0
          -1 -1 0 -1 -1 0
          -1 -1 0 -1 -1 0
          1 1 0 -1 -1 0
          -1 -1 0 -1 -1 0
          -1 -1 0 -1 -1 0
          -1 -1 0 -1 -1 0
          -1 -1 0 -1 -1 0
          -1 -1 0 -1 -1 0
          -1 -1 0 -1 -1 0
          -1 -1 0 -1 -1 0
          -1 -1 0 -1 -1 0
          -1 -1 0 1 1 0
          1 1 0 -1 -1 0
          1 1 0 1 1 0
          -1 -1 0 1 1 0
          -1 -1 0 -1 -1 0
          1 1 0 -1 -1 0
          -1 -1 0 -1 -1 0
          -1 -1 0 1 1 0
          1 1 0 -1 -1 0
          -1 -1 0 -1 -1 0
          1 1 0 -1 -1 0
          1 1 0 -1 -1 0
          -1 -1 0 -1 -1 0
          1 1 0 1 1 0
          -1 -1 0 -1 -1 0
          -1 -1 0 -1 -1 0
          1 1 0 -1 -1 0
          -1 -1 0 1 1 0
          -1 -1 0 -1 -1 0
          1 1 0 -1 -1 0
          -1 -1 0 1 1 0
          1 1 0 -1 -1 0
          -1 -1 0 -1 -1 0
          -1 -1 0 1 1 0
          -1 -1 0 1 1 0
          1 1 0 -1 -1 0
          -1 -1 0 -1 -1 0
          1 1 0 -1 -1 0
          1 1 0 -1 -1 0
          -1 -1 0 -1 -1 0
          -1 -1 0 -1 -1 0
          1 1 0 -1 -1 0
          1 1 0 -1 -1 0
          -1 -1 0 -1 -1 0
          1 1 0 -1 -1 0
          -1 -1 0 1 1 0
          -1 -1 0 1 1 0
          -1 -1 0 -1 -1 0
          1 1 0 -1 -1 0
          -1 -1 0 -1 -1 0
          1 1 0 1 1 0
          -1 -1 0 -1 -1 0
          -1 -1 0 -1 -1 0
          -1 -1 0 1 1 0
          -1 -1 0 1 1 0
          -1 -1 0 -1 -1 0
          1 1 0 1 1 0
          -1 -1 0 1 1 0
          1 1 0 1 1 0
          1 1 0 -1 -1 0
          -1 -1 0 -1 -1 0
          -1 -1 0 -1 -1 0
          -1 -1 0 -1 -1 0
          -1 -1 0 -1 -1 0
          -1 -1 0 -1 -1 0
          -1 -1 0 -1 -1 0
          -1 -1 0 -1 -1 0
          1 1 0 -1 -1 0
          -1 -1 0 -1 -1 0
          1 1 0 -1 -1 0
          -1 -1 0 -1 -1 0
          -1 -1 0 -1 -1 0
          -1 -1 0 1 1 0
          -1 -1 0 -1 -1 0
          -1 -1 0 -1 -1 0
          -1 -1 0 -1 -1 0
          -1 -1 0 1 1 0
          -1 -1 0 -1 -1 0
          -1 -1 0 -1 -1 0
          1 1 0 -1 -1 0
          1 1 0 -1 -1 0
          -1 -1 0 1 1 0
          1 1 0 1 1 0
          1 1 0
          <InformationKey name="L2_NORM_RANGE" location="vtkDataArray" length="2">
            <Value index="0">
              1.4142135624
            </Value>
            <Value index="1">
              1.4142135624
            </Value>
          </InformationKey>
        </DataArray>
        <DataArray type="Float64" Name="Density" format="ascii" RangeMin="0.9909212624104757" RangeMax="1.0091432768689448">
          1 1 1 1 1 1
          1 1 1 1 1 1
          1 1 1 1 0.9999999906524342 1
          1 0.999999962218449 1 1 1 1.000000272298883
          1 0.9999999832842583 1 1 1.000000520823942 1.0000005312501221
          1 1 1 1 1 0.9999999809739766
          1 1 1 1.0000000105379185 1.0000000333324774 1
          1.0000001545040837 1.0000001326935812 1 0.9999974298474458 0.9999901590901953 1
          0.9999999711224594 1.000002573342311 1.000004945051377 1.0000000057636864 0.9999999534931713 1.0000029069506875
          1.0000059321381416 0.9999999526821494 1.0000142736124824 1.0000082973057474 1 1.0000102961507427
          1 0.999998209870991 1.0000174909960267 0.9999998772276599 0.999998089315567 1.00002056008932
          0.9999999700705419 1.0008942657570163 0.9999936527725253 1.0005694475260938 1.0012778387943984 1.0000308486941272
          1.0001905022414102 1.0014495942284751 1.0000059878707734 0.9998497335903075 0.9999822427241518 0.9966849088053418
          0.9952409133461741 1.0017638208919055 0.998249446068741 0.9939685220121955 1.0000255756949503 0.9998878905949172
          0.9995035661408184 0.9999956402697643 0.9928861139466876 1.000003012256902 0.9999795975567234 1.001796408880608
          0.9999998126784307 1.0015418355629857 0.9920326518573844 0.9999677500628986 0.9991475496942559 1.0000264760818613
          1.0031554515618175 1.0018314454740176 0.9914116072456045 0.9999999515572375 0.9999738408377258 0.9987776807291108
          1.0046619904371104 0.9910398608173651 1.0019212300484284 1.0000082949274114 1.0000339458021525 0.999972849021333
          1.0059924540185259 0.9986268823591733 0.9999950364733238 0.9909212624104757 0.9999465709193393 1.0020187527331055
          1.0000776842402146 1.000030093906735 1.0000006664641665 1.0071088613582602 0.9910519595567835 0.9984352582837439
          0.9999867368518934 0.9999996951439255 1.001846357615488 0.9999999473494944 0.999962163346294 1.0079941514285924
          0.9914353182578015 0.9981771652917174 1.0000456225327718 1.0020631508868352 1.008629908883747 0.9999511220010758
          0.992062721819584 0.9999955648766108 0.9999938991954475 1.0000422056109615 0.9980814225798943 1.0001156819996966
          1.009012626591263 1.0016872048257666 0.9929400329349006 1.0000006265671924 0.9999575248771422 0.9981420462233002
          1.0091432768689448 1.000025174725617 1.0014857577687741 0.9940496884015336 1.000110372656641 1.0090190756313868
          0.9980523850468709 0.9999934919344827 0.9953726947720763 0.9999591015607919 1.0000298928681721 1.001155678561365
          1.0086402474692995 0.9968667685659179 1.0000002778163108 0.9981250866082194 1.0000563445256487 1.0008297776555928
          0.99995504726006 1.00801174155095 1.0000006315060845 0.9984710575680222 1.0000240129097715 0.9982500546810679
          1.0071441878988732 1.0001215226044817 1.0005234717879206 1.0060610246792872 1.0017592973522707 1.0047732408309324
          1.0033270413841513 0.9983481371012806 0.9999678527445722 1.0001699997274238 0.9999966083716244 0.999995908055087
          0.9984508554901204 0.9998058760810318 0.9988419391339298 0.9994623696960119 0.9999698091889226 0.9991363185047247
          1.000000761216877 0.9999948696674213 0.9999825003151189 0.9999631050765613 1.0000014074276184 0.9999793076937677
          0.9999794520695963 0.9999725284195207 1 0.9999829117608678 0.9999850328664447 0.9999959372457468
          0.9999727543433081 0.9999770810997058 1.0000035921331427 1 1.0001466181967924 0.9999833619729122
          1.000313792063575 1.0001508659528002 1.000111762155709 0.9999593705335398 0.9999874933682431 1
          1.0001016993802712 1.0000760144108427 0.9999812101494352 1.0002760096238237 1 1.0001049018108203
          0.9999868460257628 1.0000583234735139 1.0001680185261168 1 1.0000785324146517 1
          1
        </DataArray>
        <DataArray type="Float64" Name="Momentum" NumberOfComponents="3" format="ascii" RangeMin="1.918912820950482e-21" RangeMax="1.61462923601604">
          -3.6411185880645484e-20 4.1040840051584933e-20 0 1.918912820950482e-21 0 0
          8.034310935294844e-21 1.0743282462311715e-17 0 -1.0031552625236407e-18 5.395672219834557e-18 0
          7.718584907570153e-21 0 0 4.087535927091631e-21 -4.926781261040114e-18 0
          -1.2426835389670454e-18 1.291345692038773e-18 0 -7.439555523610694e-19 -6.739047013117917e-19 0
          -1.2885811795294906e-20 0 0 5.49650270652465e-18 4.704867119792226e-18 0
          -2.395866740753561e-18 6.047086413286506e-18 0 2.596923322809751e-18 5.35821715742139e-18 0
          -1.4218548408186337e-18 -2.79308346742833e-19 0 -4.851881678348058e-18 0 0
          2.2521298135267586e-18 1.4141300311430152e-20 0 -1.9756127408218235e-19 2.1220640307815031e-19 0
          -6.461414165160314e-7 -1.7794343578034375e-7 0 4.1064019247999804e-19 6.416902827335882e-18 0
          1.4728151005818675e-18 -7.14177719285761e-19 0 -0.0000022007896405964068 0 0
          -2.7098197496157408e-18 7.578403094116426e-18 0 1.2015767304213404e-17 -7.208471928513937e-21 0
          3.67133823235923e-18 3.298491956496357e-18 0 0.00000942578011737018 4.107170970965408e-7 0
          1.3275088468037724e-18 1.949187488842555e-18 0 -0.000001035149752106877 -0.0000014044195513242107 0
          -4.016912063801438e-18 -4.5507624800165874e-18 0 -1.972235837055202e-17 4.471175678498762e-18 0
          0.00003371722619834505 0 0 0.000015120652743427907 0.000011427844992657258 0
          -4.321961628543241e-18 -7.139922034083784e-21 0 -1.1370686863644119e-17 9.460916124206535e-18 0
          4.6520541728681e-21 5.202153804864426e-21 0 -2.2142205554480875e-18 -8.027045123753579e-18 0
          -1.1266579373120124e-20 0 0 -7.359549831708871e-7 -0.000001700097081928875 0
          -2.1418589542155823e-17 -7.1400845678516e-18 0 -1.7183397107756887e-17 -2.565977932406539e-17 0
          -9.882110448006838e-18 0 0 -0.00001106299242962289 0.000017999445084793445 0
          -0.0000028141339575287435 -0.0000013155817439507198 0 -6.619060781316378e-18 0 0
          -0.0000079106015871055 0.000006091581446977705 0 -0.00000982188021329611 0.000004555164222416512 0
          -8.474176795246004e-18 -1.7577842911408422e-18 0 -0.00015454536538346778 -0.0001089253939337759 0
          -0.0006632545413873602 0 0 -5.740578189939064e-18 2.4021831866134883e-17 0
          0.0000019541273306503933 -5.052326914223417e-7 0 -0.0001235816024509748 -0.0000024630346536053264 0
          -0.00017289810729593098 0.00011310686734945984 0 -0.000006969840812722028 -0.0000023897590181274075 0
          0.0000016819005406332348 -0.00003224635784535773 0 0.00015026141012364262 0.00006309186729857962 0
          -0.00015037748933969923 0.0002048479738424402 0 -0.0000030434740290980774 0.0000021300468866943455 0
          -0.004479356989165884 0.002573550484096576 0 -0.0017780597099346538 -0.000019178145664366787 0
          -4.950991100147636e-20 0 0 -0.005248197532828721 0.0010294040324329214 0
          -1.7203838958195794e-17 2.4708116177771327e-17 0 0.00010769899859213316 0.000006433184714306657 0
          -0.007950751128590651 0.0054337173782373 0 0.000007809864915047488 0.0000030120312898105263 0
          -0.00012339331878351206 -0.001015302780901285 0 -0.005053686119052462 0.006058283167874641 0
          -0.0000011001813272119907 0.0000024394037598996698 0 0.0033656084646229265 0.028527918366126507 0
          0.0018967820241872762 -0.0005732253686842738 0 0.0025483927442226054 0.0301832541973355 0
          0.005669705893820313 0.031091243898991015 0 -0.007501454102108474 0.011139789163466925 0
          0.0018873487995061332 0.028507833279040252 0 0.002429859047954311 0.02598662924226396 0
          -0.00009146377526488743 0.00023837281630444118 0 0.0018935055538817599 0.02945673269652755 0
          0.0035575268782796427 0.0009396301786190424 0 0 1.5946958472003754 0
          0 1.5923854544756872 0 0.0063245522525370215 0.030045933466986054 0
          0 1.597199106811002 0 0 1.5903496283501153 0
          -0.003837987830524959 0.008828155218874235 0 0 1.5998206180415606 0
          0.002235698355681934 0.029308861376860833 0 0.00020851182151120773 0.00010840928915140353 0
          0 1.5886177754527828 0 0.00015630725445599545 0.0000747249454499527 0
          -0.0009578130813883739 -0.000523389888787215 0 -0.0003258924219038678 0.027506511716499996 0
          0.000008497804337144888 0.0000064996787256003986 0 0 1.6024669299790395 0
          0 1.5872522361157957 0 0.008095513884304639 0.0031104652006576634 0
          0.0035616626401095966 0.030702130136471384 0 -0.0012610068970083318 0.00926699524708384 0
          0 1.6050487155660187 0 0.0014203688351709324 0.02787215232355297 0
          0 1.5862585647412404 0 -0.000001260801415149165 0.0000031841463134843892 0
          0.005960071232526037 0.004150581732205965 0 0.003232583535029082 0.03327932876145967 0
          0 1.6074591777560756 0 0 1.585663770458626 0
          0.005112672250477301 0.03292704427664572 0 0.00016064975585039154 0.00030446272051445737 0
          -0.0005876921891312241 0.012773833083401074 0 -0.0014167581994664544 -0.00008630437912578153 0
          0 1.6095879194771454 0 0.0026729264168632097 0.03217875401708967 0
          0.00021299644323853395 0.00021512285834735504 0 0 1.5854740130084228 0
          0.007738359259224727 0.009079216969999953 0 -0.0029174869398106928 0.035289639112870586 0
          0.003304197355153024 0 0 0.002123997332921925 0.009064298847839616 0
          0.00002698036745546081 -0.000011183772635526484 0 0 1.6113741712130045 0
          0 1.5856831284416124 0 0.0026327666630699717 0.03207247572057109 0
          -0.0012399997009233808 -0.0002865300672382795 0 0.000007441770488668809 0.000013668079814417249 0
          0.00296213439031357 0.035243879214537824 0 -0.0000032413266438909507 0 0
          0.0037673409637925793 0.007545442627668121 0 0 1.6127906353194177 0
          0 1.5862965023605913 0 0.0005430774753869916 0.03562743210926007 0
          0.005593996410280572 0.013042399116111877 0 0.0009267684243007839 0.04232967520141398 0
          0 1.6138078472432713 0 0.00423184800867535 0.011622876848673686 0
          0 1.5873003480551078 0 -0.00025667699153255084 0.00012059609935085821 0
          0.00014702414708785299 0.00031351163991200055 0 0.006611868679086948 0.01141526074942641 0
          0.0034636145357365344 0.0331053520516631 0 0.0068272563313023235 0.0010649769572702123 0
          0 1.6144201955726518 0 0.0012811912145005281 0.03935628240263951 0
          0 1.5887040458335513 0 0.000019264727123114957 -0.00003353002790325417 0
          0.0022218047212899587 0.009924785855507124 0 0.0003537223809163797 0.029581816509245205 0
          0 1.61462923601604 0 0.004174120667920268 0.006411627458712586 0
          0.0020694164198925193 0.03540485416613428 0 0 1.5904794945724954 0
          0.006450952121804402 -0.0009304946938515565 0 0 1.6144305140368058 0
          -0.00013795603123890887 0.028542078469920563 0 0.000007628042450445115 0.00037969607555016823 0
          0 1.59259630475622 0 0.000008942126404922448 0.009774884003647835 0
          0.0083734582282836 0.005388456368792689 0 0.0025750960258305207 0.03330344413235621 0
          0 1.6138243889800838 0 0 1.5949868228160409 0
          0.00022059126763563497 -0.00041145015589785577 0 0.0019624110260114446 0.0276013748299086 0
          0.0032415367681519827 0.0029357545524167903 0 0.001080123295870854 0.030717877096870554 0
          -0.0030792432527476064 0.012528145406970203 0 0 1.6128187795150684 0
          -0.000001983822371434889 -0.000003799146535978676 0 0 1.5975536852083203 0
          0.004390217127754562 0.0024989619786369792 0 0.0017738044067534342 0.02481193218527859 0
          0 1.6114306936777412 0 0 1.600194429255249 0
          0.0004414161231562447 0.03160015129592324 0 0 1.6096976325338894 0
          0 1.6028148688403925 0 0 1.6076371783854218 0
          0 1.6053232592805675 0 0.0005751185645743377 0.02480976148969926 0
          -0.002869772307545579 0.008304822287593142 0 -0.0001730613103989617 0.031191688482427156 0
          0.000049509118249182584 0.0002262832920972203 0 0.0028842283884732258 0.0006486536914664365 0
          0.004983969914301648 0.02857770591671327 0 -0.00010437080640741134 0.029000663801716856 0
          0.002522294150225172 0.025554027380575443 0 0.0005059727746056208 0.02824323393221587 0
          -0.004984690720671218 0.00757320123854245 0 0.0016480448725903437 0.02714499845423366 0
          0.0019608439059741987 -0.0008297938437342417 0 -0.0003231480335018131 -0.00003103215602094984 0
          -0.0010686599243280308 0.0010721708388857 0 -0.008655914519418283 0.008718962875103261 0
          0.000059434670913902966 0 0 -0.0021887080714928925 -0.0008174633203529527 0
          -0.0014180789456017993 -0.0003310188169209424 0 -0.005478459583198058 0.004978160522801312 0
          1 0 0 -0.0009593427724494796 0.0005163226704002053 0
          -0.0034409759840335116 0.00011882477979576363 0 -0.00017867091962098466 0.0005706733410633648 0
          -0.007513246603405082 0.0035605689149409542 0 -0.004377229582761243 0.0007326616340130325 0
          0.00010538513806911434 -0.00005340925209954897 0 1 0 0
          0.007999914242143646 -0.004738840591480053 0 -0.0007668160902338414 0.0011078989265014244 0
          0.015551600583220703 0.0010349147443150786 0 0.007999980928159116 -0.0034505101820741318 0
          0.006631028479898155 0.00430580444497743 0 -0.0024369144483951362 0.00018950366846098182 0
          -0.000996012646368231 -0.00018186443826650667 0 1 0 0
          0.0041499656730715345 -0.0027368789360024148 0 0.00304958495293528 -0.003127158040342294 0
          -0.0010506522956296943 0.000573677076023953 0 0.013555532772803774 0.001398696525079755 0
          1 0 0 0.007178781031680457 0.0019951455755541675 0
          -0.0007482217274366209 0 0 0.002377674798142939 -0.0006501605731215858 0
          0.006850290298218093 -0.0011441057486442558 0 1 0 0
          0.005799074940717086 0 0 1 0 0
          1 0 0
          <InformationKey name="L2_NORM_RANGE" location="vtkDataArray" length="2">
            <Value index="0">
              1.918912821e-21
            </Value>
            <Value index="1">
              1.614629236
            </Value>
          </InformationKey>
        </DataArray>
        <DataArray type="Float64" Name="Energy" format="ascii" RangeMin="3675.315415914552" RangeMax="3770.7279159868917">
          3722.83 3722.83 3722.83 3722.83 3722.83 3722.83
          3722.83 3722.83 3722.83 3722.83 3722.83 3722.83
          3722.83 3722.83 3722.83 3722.83 3722.829951048203 3722.83
          3722.83 3722.8298021438136 3722.83 3722.83 3722.83 3722.8314259867316
          3722.83 3722.8299124619457 3722.83 3722.83 3722.8327274595777 3722.8327820751274
          3722.83 3722.83 3722.83 3722.83 3722.83 3722.8299003627767
          3722.83 3722.83 3722.83 3722.830055190457 3722.830174553547 3722.83
          3722.8308091329495 3722.830694925663 3722.83 3722.8165402156324 3722.7784631538602 3722.83
          3722.8298487708857 3722.8434765363454 3722.8558977812 3722.8300301970153 3722.8297563774954 3722.84522306339
          3722.8610677441707 3722.829752203284 3722.904771039423 3722.8734280416406 3722.83 3722.883923368075
          3722.83 3722.8206255186337 3722.9217120328917 3722.8293570685896 3722.819967638563 3722.9377729715993
          3722.829843265522 3727.5335025671347 3722.7967611720646 3725.8368534674264 3729.537084479934 3722.9918223771024
          3723.8536949542827 3730.4296954386004 3722.8613593501877 3722.07039750571 3722.7370815957324 3705.428667033508
          3697.881623911801 3732.070880157554 3713.609324068904 3691.2350009443267 3722.9641189300532 3722.1827833838533
          3720.2565140316187 3722.8071701376293 3685.5803972638582 3722.845774605884 3722.723151395443 3732.2384263735835
          3722.829019040316 3730.8433940897353 3681.123406340955 3722.661260804297 3718.3902496057303 3722.9688496938065
          3739.2986975258314 3732.4207497119423 3677.8803281301416 3722.829746314671 3722.693208281871 3716.4513134298577
          3747.1976004763615 3675.9377451807663 3732.891700726945 3722.87344162431 3723.0081073754013 3722.6878091634417
          3754.178261939657 3715.656210102443 3722.804009445431 3675.315415914552 3722.5505754391074 3733.4043078206337
          3723.2386216872633 3722.98779899968 3722.83349016251 3760.0383201423274 3675.9954168171244 3714.6491150480606
          3722.7605410676388 3722.82840354098 3732.5037457645567 3722.82972427693 3722.632149056456 3764.686568027363
          3677.993906651986 3713.295487597654 3723.0692911338692 3733.643720913592 3768.0263016885583 3722.574493412974
          3681.2665830372894 3722.806776809253 3722.798055222763 3723.051354157822 3712.791391744725 3723.439208524898
          3770.039258537989 3731.677012879906 3685.8485060948083 3722.8332812138283 3722.6079245665833 3713.105999794521
          3770.7279159868917 3722.961982235293 3730.6260802082575 3691.644519511719 3723.4098501942653 3770.0775353561503
          3712.6352988106732 3722.7959225780714 3698.5587857429637 3722.616152454087 3722.9866659476015 3728.90063186812
          3768.0903048905293 3706.3710375454166 3722.8314582794624 3713.0152848550906 3723.1261685787863 3727.1974759910563
          3722.59501604279 3764.7913152784768 3722.8333071135303 3714.76456929608 3722.9557889879866 3713.670284971986
          3760.2367721134983 3723.4059200349852 3725.59787738052 3754.550834525991 3731.9871447910296 3747.7939435136414
          3740.207070186296 3714.1867903436687 3722.6619179906634 3723.7486723160237 3722.81224133828 3722.8085631533595
          3714.729795967952 3721.840418608945 3716.7817899149622 3720.039723963913 3722.672142351913 3718.3285443430905
          3722.833964333658 3722.8031329357395 3722.7383462365156 3722.6371024766304 3722.8373704535547 3722.721621906701
          3722.7223846390593 3722.686309813983 3723.33 3722.740511818631 3722.7516398041525 3722.8087219545628
          3722.6874732391047 3722.710026428514 3722.848811249443 3723.33 3723.6004529949137 3722.742867275766
          3724.484046248777 3723.62257253782 3723.41764308122 3722.6172150180096 3722.7645022184483 3723.33
          3723.363891332444 3723.2291047529397 3722.7315936509635 3724.284599780744 3723.33 3723.381685661397
          3722.76111343883 3723.1367692670274 3723.713803317016 3723.33 3723.242921029047 3723.33
          3723.33
        </DataArray>
        <DataArray type="Float64" Name="ALEdispl" NumberOfComponents="3" format="ascii" RangeMin="0" RangeMax="0.00012878614246863266">
          0 0 0 0 0 0
          0 0 0 0 0.000002050864567041298 0
          0 0 0 0 0 0
          0 0.000004243707004963841 0 0 0.0000047991630050188805 0
          0 0 0 0 0.0000032000283059722976 0
          0 0 0 0 0.000007389703112612325 0
          0 0.000011668152794963125 0 0 0 0
          0 0 0 0 0.000016172670700235795 0
          0 0.00001512909944984678 0 0 0.0000046736946519022485 0
          0 0.000022765083753050742 0 0 0 0
          0 0.000024708908415326287 0 0 0 0
          0 0.000015084174119179588 0 0 0.000016454954338362207 0
          0 0.0000019807515704279503 0 0 0.000031475473412354246 0
          0 0.0000041039190459205615 0 0 0.0000413190237294193 0
          0 0 0 0 0.00003476480460941311 0
          0 0.000026980579763768914 0 0 0.00004161786642354923 0
          0 0 0 0 0.000012861754763500705 0
          0 0 0 0 0.000049683845936199296 0
          0 0.00005340619709774916 0 0 0.00005809574756865159 0
          0 0 0 0 0.00005319042835971368 0
          0 0.00007198042340259055 0 0 0 0
          0 0.00006978264756454852 0 0 0.0000755853257955089 0
          0 0.00004113795173195654 0 0 0.00001906809688391127 0
          0 0 0 0 0.00005874977519223364 0
          0 0.00007417984525347277 0 0 0.00009125905014797003 0
          0 0.00009041401516134517 0 0 0.00007010068485329127 0
          0 0.00009190335416173304 0 0 0.00004000410893289836 0
          0 0.00008991038154095929 0 0 0.00002235048968084666 0
          0 0.00010508180319038338 0 0 0.00010465572192644699 0
          0 0 0 0 0.00010701216096055464 0
          0 0.000057042480145759076 0 0 0.00009123119918049844 0
          0 0.00010645409765011954 0 0 0.00007459331076717429 0
          0 0.00010559100704557823 0 0 0.0001037959030506303 0
          0 0.00003816460628925474 0 0 0.00011805546520984559 0
          0 0.00010549666100789258 0 0 0.00011816582972563708 0
          0 0.00011786612195430126 0 0 0.00010520002728847304 0
          0 0.00011821888470761186 0 0 0.0001175655022436699 0
          0 0.00008547060859370694 0 0 0.00011821699850274364 0
          0 0.00010532335114205121 0 0 0.00012878614246863258 0
          0 0.0001287861424686326 0 0 0.00011727125464972958 0
          0 0.0001287861424686326 0 0 0.00012878614246863263 0
          0 0.00010221747019172437 0 0 0.0001287861424686326 0
          0 0.00011815353842172035 0 0 0.00009232253991776427 0
          0 0.0001287861424686326 0 0 0.00006048739367274394 0
          0 0.00002180163479812699 0 0 0.00011687929511179965 0
          0 0.00007314407018134538 0 0 0.0001287861424686326 0
          0 0.00012878614246863258 0 0 0.00010684240969663815 0
          0 0.00011802151190670417 0 0 0.00010123702336348517 0
          0 0.0001287861424686326 0 0 0.00011646075653955128 0
          0 0.0001287861424686326 0 0 0.00005415594577222823 0
          0 0.00010451009355479611 0 0 0.00011788146109769234 0
          0 0.00012878614246863263 0 0 0.00012878614246863258 0
          0 0.00011591983087361122 0 0 0.00008197100211911449 0
          0 0.00010205184050272994 0 0 0.0000400493045815538 0
          0 0.00012878614246863263 0 0 0.00011762449056449248 0
          0 0.0000906745348446477 0 0 0.00012878614246863258 0
          0 0.0001039867110580707 0 0 0.00011536083259143538 0
          0 0 0 0 0.0000985932714470603 0
          0 0.00003310043191996973 0 0 0.0001287861424686326 0
          0 0.0001287861424686326 0 0 0.00011729399290997165 0
          0 0.000059421863402573604 0 0 0.00006915022098926819 0
          0 0.0001145921125038296 0 0 0 0
          0 0.00010303573939983047 0 0 0.0001287861424686326 0
          0 0.00012878614246863258 0 0 0.00011689952081982277 0
          0 0.00009903059528873427 0 0 0.00011384055502008494 0
          0 0.0001287861424686326 0 0 0.00010449823825703372 0
          0 0.0001287861424686326 0 0 0.00008043673655049181 0
          0 0.00008685870917980254 0 0 0.00009942866107837142 0
          0 0.00011649078555237183 0 0 0.00001776086546379127 0
          0 0.0001287861424686326 0 0 0.00011296886261075649 0
          0 0.00012878614246863263 0 0 0.000045597817420950505 0
          0 0.00010127011091711754 0 0 0.0001159930108753896 0
          0 0.0001287861424686326 0 0 0.00009300684549620023 0
          0 0.00011210126545281224 0 0 0.00012878614246863263 0
          0 0.000028687300152785 0 0 0.00012878614246863263 0
          0 0.00011539861702920298 0 0 0.00008461559238361773 0
          0 0.0001287861424686326 0 0 0.00010007561771503752 0
          0 0.00009421875119700858 0 0 0.00011120917469636362 0
          0 0.0001287861424686326 0 0 0.0001287861424686326 0
          0 0.00006948785762069249 0 0 0.00011469859732494212 0
          0 0.000042014711461491976 0 0 0.00011046842917935422 0
          0 0.00010000635826673294 0 0 0.0001287861424686326 0
          0 0.00006112178501351245 0 0 0.0001287861424686326 0