<?xml version="1.0"?>
<VTKFile type="UnstructuredGrid" version="0.1" byte_order="LittleEndian" header_type="UInt32" compressor="vtkZLibDataCompressor">
  <UnstructuredGrid>
    <Piece NumberOfPoints="223" NumberOfCells="380">
      <PointData>
        <DataArray type="Float64" Name="ale_BC" NumberOfComponents="3" format="ascii" RangeMin="0" RangeMax="1">
          0 0 0 0 0 0
          0 0 0 0 0 0
          0 0 0 0 0 0
          0 0 0 0 0 0
          0 0 0 0 0 0
          0 0 0 0 0 0
          0 0 0 0 0 0
          0 0 0 0 0 0
          0 0 0 0 0 0
          0 0 0 0 0 0
          0 0 0 0 0 0
          0 0 0 0 0 0
          0 0 0 0 0 0
          0 0 0 0 0 0
          0 0 0 0 0 0
          0 0 0 0 0 0
          0 0 0 0 0 0
          0 0 0 0 0 0
          0 0 0 0 0 0
          0 0 0 0 0 0
          0 0 0 0 0 0
          0 0 0 0 0 0
          0 0 0 0 0 0
          0 0 0 0 0 0
          0 0 0 0 0 0
          0 0 0 0 0 0
          0 0 0 0 0 0
          0 0 0 0 0 0
          0 0 0 0 0 0
          0 0 0 0 0 0
          0 0 0 0 0 0
          0 0 0 0 0 0
          0 0 0 0 0 0
          0 0 0 0 0 0
          0 0 0 0 0 0
          0 0 0 0 0 0
          0 0 0 0 0 0
          0 0 0 0 0 0
          0 0 0 0 1 0
          0 1 0 0 0 0
          0 1 0 0 1 0
          0 0 0 0 1 0
          0 0 0 0 0 0
          0 1 0 0 0 0
          0 0 0 0 0 0
          0 0 0 0 1 0
          0 1 0 0 0 0
          0 0 0 0 0 0
          0 1 0 0 0 0
          0 1 0 0 0 0
          0 0 0 0 0 0
          0 1 0 0 1 0
          0 0 0 0 0 0
          0 0 0 0 0 0
          0 1 0 0 0 0
          0 0 0 0 1 0
          0 0 0 0 0 0
          0 0 0 0 0 0
          0 0 0 0 1 0
          0 1 0 0 0 0
          0 0 0 0 0 0
          0 0 0 0 0 0
          0 0 0 0 1 0
          0 1 0 0 0 0
          0 0 0 0 0 0
          0 1 0 0 0 0
          0 1 0 0 0 0
          0 0 0 0 0 0
          0 0 0 0 0 0
          0 1 0 0 0 0
          0 1 0 0 0 0
          0 0 0 0 0 0
          0 1 0 0 0 0
          0 0 0 0 1 0
          0 0 0 0 1 0
          0 0 0 0 0 0
          0 1 0 0 0 0
          0 0 0 0 0 0
          0 1 0 0 1 0
          0 0 0 0 0 0
          0 0 0 0 0 0
          0 0 0 0 1 0
          0 0 0 0 1 0
          0 0 0 0 0 0
          0 1 0 0 1 0
          0 0 0 0 1 0
          0 1 0 0 1 0
          0 1 0 0 0 0
          0 0 0 0 0 0
          0 0 0 0 0 0
          0 0 0 0 0 0
          0 0 0 0 0 0
          0 0 0 0 0 0
          0 0 0 0 0 0
          0 0 0 0 0 0
          0 0 0 0 0 0
          0 0 0 0 0 0
          0 0 0 0 0 0
          0 0 0 0 0 0
          0 0 0 0 0 0
          0 0 0 0 0 0
          0 0 0 0 0 0
          0 0 0 0 0 0
          0 0 0 0 0 0
          0 0 0 0 0 0
          0 0 0 0 0 0
          0 0 0 0 0 0
          0 0 0 0 0 0
          0 0 0 0 0 0
          0 0 0 0 0 0
          0 0 0 0 0 0
          0 0 0
          <InformationKey name="L2_NORM_RANGE" location="vtkDataArray" length="2">
            <Value index="0">
              0
            </Value>
            <Value index="1">
              1
            </Value>
          </InformationKey>
        </DataArray>
        <DataArray type="Float64" Name="ale_FIXNO" NumberOfComponents="3" format="ascii" RangeMin="1.4142135623730951" RangeMax="1.4142135623730951">
          1 1 0 1 1 0
          1 1 0 -1 -1 0
          1 1 0 1 1 0
          -1 -1 0 -1 -1 0
          1 1 0 -1 -1 0
          1 1 0 -1 -1 0
          -1 -1 0 1 1 0
          1 1 0 -1 -1 0
          -1 -1 0 -1 -1 0
          -1 -1 0 1 1 0
          -1 -1 0 1 1 0
          -1 -1 0 -1 -1 0
          -1 -1 0 -1 -1 0
          -1 -1 0 -1 -1 0
          1 1 0 -1 -1 0
          -1 -1 0 -1 -1 0
          1 1 0 -1 -1 0
          1 1 0 -1 -1 0
          -1 -1 0 -1 -1 0
          1 1 0 -1 -1 0
          -1 -1 0 1 1 0
          -1 -1 0 -1 -1 0
          -1 -1 0 -1 -1 0
          1 1 0 -1 -1 0
          -1 -1 0 -1 -1 0
          -1 -1 0 -1 -1 0
          -1 -1 0 -1 -1 0
          -1 -1 0 -1 -1 0
          -1 -1 0 -1 -1 0
          1 1 0 -1 -1 0
          -1 -1 0 -1 -1 0
          -1 -1 0 -1 -1 0
          -1 -1 0 -1 -1 0
          -1 -1 0 -1 -1 0
          -1 -1 0 -1 -1 0
          -1 -1 0 -1 -1 0
          -1 -1 0 -1 -1 0
          -1 -1 0 -1 -1 0
          -1 -1 0 1 1 0
          1 1 0 -1 -1 0
          1 1 0 1 1 0
          -1 -1 0 1 1 0
          -1 -1 0 -1 -1 0
          1 1 0 -1 -1 0
          -1 -1 0 -1 -1 0
          -1 -1 0 1 1 0
          1 1 0 -1 -1 0
          -1 -1 0 -1 -1 0
          1 1 0 -1 -1 0
          1 1 0 -1 -1 0
          -1 -1 0 -1 -1 0
          1 1 0 1 1 0
          -1 -1 0 -1 -1 0
          -1 -1 0 -1 -1 0
          1 1 0 -1 -1 0
          -1 -1 0 1 1 0
          -1 -1 0 -1 -1 0
          1 1 0 -1 -1 0
          -1 -1 0 1 1 0
          1 1 0 -1 -1 0
          -1 -1 0 -1 -1 0
          -1 -1 0 1 1 0
          -1 -1 0 1 1 0
          1 1 0 -1 -1 0
          -1 -1 0 -1 -1 0
          1 1 0 -1 -1 0
          1 1 0 -1 -1 0
          -1 -1 0 -1 -1 0
          -1 -1 0 -1 -1 0
          1 1 0 -1 -1 0
          1 1 0 -1 -1 0
          -1 -1 0 -1 -1 0
          1 1 0 -1 -1 0
          -1 -1 0 1 1 0
          -1 -1 0 1 1 0
          -1 -1 0 -1 -1 0
          1 1 0 -1 -1 0
          -1 -1 0 -1 -1 0
          1 1 0 1 1 0
          -1 -1 0 -1 -1 0
          -1 -1 0 -1 -1 0
          -1 -1 0 1 1 0
          -1 -1 0 1 1 0
          -1 -1 0 -1 -1 0
          1 1 0 1 1 0
          -1 -1 0 1 1 0
          1 1 0 1 1 0
          1 1 0 -1 -1 0
          -1 -1 0 -1 -1 0
          -1 -1 0 -1 -1 0
          -1 -1 0 -1 -1 0
          -1 -1 0 -1 -1 0
          -1 -1 0 -1 -1 0
          -1 -1 0 -1 -1 0
          -1 -1 0 -1 -1 0
          1 1 0 -1 -1 0
          -1 -1 0 -1 -1 0
          1 1 0 -1 -1 0
          -1 -1 0 -1 -1 0
          -1 -1 0 -1 -1 0
          -1 -1 0 1 1 0
          -1 -1 0 -1 -1 0
          -1 -1 0 -1 -1 0
          -1 -1 0 -1 -1 0
          -1 -1 0 1 1 0
          -1 -1 0 -1 -1 0
          -1 -1 0 -1 -1 0
          1 1 0 -1 -1 0
          1 1 0 -1 -1 0
          -1 -1 0 1 1 0
          1 1 0 1 1 0
          1 1 0
          <InformationKey name="L2_NORM_RANGE" location="vtkDataArray" length="2">
            <Value index="0">
              1.4142135624
            </Value>
            <Value index="1">
              1.4142135624
            </Value>
          </InformationKey>
        </DataArray>
        <DataArray type="Float64" Name="Density" format="ascii" RangeMin="0.9782747304104193" RangeMax="1.0223256683023294">
          1 0.9999999999944776 1 0.999999999986783 0.99999999994947 1
          1.0000000001570863 1.000000000205643 1.0000000023910147 0.999999999979019 1 0.999999999919145
          0.9999999978220351 0.999999969697567 1 1.0000000005919099 0.9999999511821934 0.9999999999709559
          0.9999999846557032 1.0000000456807687 1.0000000032186667 1 1.0000000018151607 1.000001799270379
          0.9999999999730227 0.999999985461866 1.0000000034803769 0.9999999871352537 1.0000021406842619 1.0000025876244871
          0.9999999624026978 1.0000000015205266 1 0.9999999524699926 0.9999999999798747 0.9999999052301646
          1.0000000088851104 0.9999999775077123 0.9999999999933058 1.0000020786917714 0.9999996055723737 1.000000002002981
          0.999998200334138 0.999998670290517 0.9999999674254316 0.9999795973728848 0.9999427576508968 1.000000001436249
          1.0000000772213644 1.0000100254003652 1.0000204857521398 0.999999797486737 1.0000003455421658 1.0000059195250195
          1.00002384085266 1.0000000849086195 0.9998866611244306 0.9999730560317788 0.9999999375434487 0.9998218262577963
          0.9999999155549932 0.9999930958856506 0.9996491233795437 1.0000005525822404 1.0000072936376148 0.9998166841430032
          1.0000000799773474 0.9976474333444754 1.0000572362907758 0.9986548426776818 0.9967927523055256 0.9995010615586272
          0.9995366658690816 0.9960856950700266 1.0000290203393494 1.0004625855730103 1.0001018132583104 0.9923874129364365
          0.9889413610060237 0.9953522051750635 0.9960945252362501 0.9858520323423633 0.9997590803884266 0.9999411018849395
          1.0013684039928297 0.9999841100256097 0.9831944613183079 1.0000024026952372 0.99988893314265 0.9949714945785947
          1.0000009155753822 1.003825670621222 0.9810751502301649 1.0002568691858986 1.0022655030720518 0.9997475223527853
          1.00760372884804 0.9947400135175866 0.9794631179300369 1.0000001220246262 1.0002117665756356 1.0031838918327927
          1.0111169349365021 0.9785238271214081 0.9944877437424628 1.0000343040695572 0.9994123755292621 0.9998502157558677
          1.014356840432275 1.003723926290461 0.9999827883003103 0.9782747304104193 1.0003114299025864 0.9942521933757756
          1.000599403462927 0.9996983160514832 1.000003390705592 1.017131035113684 0.9785960122063301 1.0043197708266092
          0.9999177971118884 1.0000016847996052 0.9946012355660993 1.0000000361699712 1.0002501949481521 1.0193312406563588
          0.9796271132727692 1.004984590861633 0.999368176405153 0.9944499921740669 1.0209245828989495 1.0005313578491393
          0.9812493499900794 0.9999700487807135 0.9999738106659792 0.999333594372205 1.0053254930818143 1.0008830506003774
          1.0219737826082114 0.9953514533527222 0.983324737178006 1.0000029042839615 1.000286166721449 1.005307075879861
          1.0223256683023294 0.9997381509667419 0.9959741132552232 0.986003110010664 1.0008379623301469 1.02197664957472
          1.0054391293778615 0.9999768834711494 0.9890826458711593 1.0002442309871873 0.9996548532214311 0.996876756770388
          1.0210273432398558 0.9925616347171926 0.9999675102385768 1.00516548025674 1.00050298468201 0.9977238443705493
          1.0004060097990273 1.019415629985281 1.000006457320034 0.9963045785533343 0.999860302823691 1.0048010283855575
          1.0171627040683986 1.0001713026425583 0.9985286424022539 1.0144443360244488 1.0040406082297466 1.011315027553227
          1.0077999407193843 1.0044282614740978 1.0002149286688786 0.9995100620839805 0.9999810503869828 0.9998816010052771
          1.0038929023981904 1.0004372331428868 1.0030103668686876 1.0013472889023995 1.00020660888597 1.002207979026675
          0.9999204785289578 0.9999646883917761 0.9999731345325773 1.000420467100404 1.0000067868432618 0.9999241128748849
          1.0000944294049525 1.000136972316535 1 0.9999306986473567 1.0000958567261442 0.9999700114545865
          1.00016312298599 1.000051015328363 1.0000055289549628 1 1.0010957706320731 0.9999343779928789
          1.0022898165998246 1.001283544048477 1.000920548205324 0.9998892919562279 0.9999499281321235 1
          1.0007614644072516 1.0007112447803759 0.9999248163701239 1.00206020093284 1 1.0008217593976576
          0.9999157808924611 1.0004598595011638 1.0012620676769317 1 1.0005934090326138 1
          1
        </DataArray>
        <DataArray type="Float64" Name="Momentum" NumberOfComponents="3" format="ascii" RangeMin="9.555599716296166e-11" RangeMax="1.6357199297022003">
          1.2417340082006096e-10 -1.1593113249693073e-10 0 -3.0866717802909716e-10 0 0
          9.362825350678521e-11 1.9097087188288702e-11 0 -9.088372150678758e-10 5.219907852811786e-10 0
          -1.996530624233504e-9 0 0 -5.051710563533001e-10 -6.505908210108419e-11 0
          1.152934882008205e-8 -9.375035820374161e-9 0 9.325178053773453e-9 5.663238673582155e-9 0
          1.0783067574048933e-7 0 0 -9.473211111412451e-10 6.109625912471025e-11 0
          -3.682656971955853e-10 4.0390367074887823e-10 0 -1.2400844649770446e-9 -2.1384046434820899e-10 0
          -8.001944627686091e-8 -1.3744354808670207e-8 0 -0.0000016783180920619936 0 0
          -8.954300862065419e-10 -1.7024496662038813e-10 0 2.2797908248998266e-8 3.201300306824564e-8 0
          -0.0000032599251365294367 -0.0000015853663697477261 0 -1.6236179801975137e-9 1.263738932122014e-9 0
          -3.9005021020319214e-7 -5.515130007571295e-7 0 -0.000001958720209867839 0 0
          5.1024643326537035e-8 -1.8272539836075566e-8 0 -3.392583562849636e-10 -2.2296352029349592e-10 0
          7.822863483992954e-8 -1.0247337002384981e-7 0 0.00006565919955607062 0.000014621744459889764 0
          -2.2392610979384243e-9 2.0625331989777864e-10 0 -2.7353982900187783e-7 -0.0000036389340036496537 0
          1.3843015195016188e-7 -5.915844605234944e-8 0 3.4786813391188325e-8 -6.177416489086054e-7 0
          0.0001377328133177237 0 0 0.00007939644349104456 0.00006612113460675287 0
          -9.191093867835898e-7 0.0000018945587762645508 0 -1.6007044813451012e-7 -6.135275562046086e-8 0
          2.993130206032331e-10 2.7841244399477973e-10 0 -0.000002379457482008086 8.24288385157529e-7 0
          -1.063828286828499e-9 0 0 -0.000005127989241535259 -0.000004606986540620964 0
          6.038117728785382e-7 5.343332483604958e-7 0 0.0000011929384157603545 -7.536554827625526e-7 0
          -1.8872428091041823e-10 0 0 0.00005362035826941198 0.00011673620801339247 0
          -0.000028394332126446797 -0.000009657507421099734 0 1.9053408038574855e-7 0 0
          -0.00009166463772637203 0.000058710513907834384 0 -0.0000989612383953608 0.000042730455684376814 0
          1.5241027043199517e-7 0.000002854750588986333 0 -0.0011663929083434975 -0.0007126774371900176 0
          -0.004193985893268158 0 0 5.12829506316109e-7 1.599307904819697e-7 0
          0.000018687014943670683 -0.000004638204201481154 0 0.0005581904807554763 -0.00010257995213557597 0
          0.0006948891235843923 -0.0006139410635671725 0 0.000017018278115873747 0.00019554662572719283 0
          0.00000713033560941951 0.00008504860410658205 0 0.00027302421794789933 0.00018080121636467123 0
          0.0006189283089784799 -0.0007752415098488535 0 3.1733234332944057e-7 0.0000024040061457198505 0
          -0.0063240353966234385 0.011068846984380126 0 -0.0024779097451468873 0.006340820209698237 0
          -0.000002987468984322927 0 0 -0.011078556775565787 0.018395347896408346 0
          -0.0000012641814415181369 0.0000045832239588976655 0 -0.00012791530977531788 -0.0000023663918870888116 0
          -0.01847052970964928 0.029229079750038342 0 0.00006276990162332097 0.00002709425280261425 0
          0.0006978243722832503 0.009907221341567024 0 -0.007869946399703436 0.016044745210749504 0
          0.0000021765402321434015 -0.00000215536238509316 0 -0.1148186301614957 0.2829530785731307 0
          0.004394389929745835 0.00746583759317869 0 -0.0745747209503564 0.2407738470736908 0
          -0.14620262748799687 0.32839906084514114 0 -0.01788367638824435 0.04547878209908517 0
          -0.027104702479758075 0.21739720647384453 0 -0.14200795833170501 0.3745948345618222 0
          0.00032094621363194396 -0.0008240244299931521 0 0.026290691785103418 0.21516499470388506 0
          0.008282401511295608 0.00988424473706946 0 0 1.5878187544888016 0
          0 1.5823050752414352 0 -0.14734142731314895 0.4295536423434618 0
          0 1.5937501300362011 0 0 1.5773621528232384 0
          -0.006743840926447154 0.023547771952844517 0 0 1.5999046483863455 0
          0.07773515570739807 0.2327802538727516 0 -0.0004193914334033611 -0.00009296101633971904 0
          0 1.5731100421471331 0 0.0001335471081419795 0.00032906192561623797 0
          -0.005059407506665677 -0.00344082965981906 0 -0.10596638815688575 0.46063546487125356 0
          0.00007207037997342464 0.00006199317120353616 0 0 1.6061199540342874 0
          0 1.5697191467684886 0 0.020671366288007594 0.026836992064624247 0
          0.11867771469134136 0.2691176447508493 0 -0.002284008231464422 0.0250653706820874 0
          0 1.6121648429858126 0 -0.07295241324787417 0.4847370529378827 0
          0 1.567139896885212 0 0.0000037514032106384127 -0.0000032317910739583867 0
          0.010922928756589317 0.016581428665827916 0 0.15230023756830718 0.33443448151915334 0
          0 1.6177859688111964 0 0 1.5656370326384252 0
          -0.03330700227306861 0.5039139828699026 0 -0.00008533150555793404 -0.0013890155605771784 0
          0.0003069256787870136 0.05675784382821587 0 -0.007420600122523803 -0.0006598246070380238 0
          0 1.6229698139929274 0 0.1507617883434698 0.37051012731470334 0
          -0.0005023471508008578 -0.00040460356463939943 0 0 1.5652384781785156 0
          0.017489522136080474 0.02926550803585671 0 0.030357662039929983 0.5266224072531073 0
          0.025276279108819872 0 0 0.0018432886630856942 0.027493236314554213 0
          0.00011783940528072419 -0.00006251562484287637 0 0 1.627408522390795 0
          0 1.5657525286938396 0 0.1388335635123881 0.4183036401166591 0
          -0.007641665323308744 -0.001404121884595236 0 0.00008240054204942891 0.00008476783621381555 0
          0.0626918211790879 0.49648210393006253 0 -0.0000015794605684596822 0 0
          0.0073285812715779015 0.023299969914877736 0 0 1.6309288488065217 0
          0 1.5674022892507806 0 0.11779403594636872 0.4689507414202521 0
          0.01753652749133492 0.053861593525307984 0 0.11745062946861343 0.5094077711427306 0
          0 1.633478194618574 0 0.013017327104823756 0.053226158787674706 0
          0 1.5699978661901721 0 -0.0018146209946601367 -0.001138144286990979 0
          -0.000448521915998627 -0.00103583669539536 0 0.02246059975632167 0.06376660197445717 0
          0.06564895352313148 0.5038658549506573 0 0.05112124131458649 0.0077292402510549755 0
          0 1.6351569129838568 0 0.14417310182142393 0.42913151163950713 0
          0 1.573318483377434 0 0.00005311624925665629 -0.000163450599380358 0
          0.00513938711795364 0.026808834167960947 0 0.02213920855477235 0.5028106808796002 0
          0 1.6357199297022003 0 0.011115492893558012 0.020572758426301054 0
          0.1550335909292326 0.39257505052496383 0 0 1.5776038769241156 0
          0.04806216012149598 -0.004606478857131369 0 0 1.6351615001270747 0
          -0.02395923567823339 0.512796320943164 0 -0.00028045462483443953 -0.0011182535132105418 0
          0 1.5825311308681609 0 -0.0028301598291909347 0.02452578246895643 0
          0.022442614969053445 0.03385859625868077 0 0.1439099631432528 0.31874053648400946 0
          0 1.6336426110494775 0 0 1.5880975091438037 0
          -0.0026980485807963418 -0.0028643189415801626 0 -0.07769467330850095 0.48529222433208397 0
          0.027196200910711902 0.019970717651432855 0 0.11876816666744806 0.27106160457856177 0
          -0.003484093782410408 0.04165230538359912 0 0 1.631063871638727 0
          0.00010154942567891552 0.00009412117401562683 0 0 1.5940862151093924 0
          0.00879620727824561 0.013316016751224492 0 -0.11189354619591513 0.45252331978415133 0
          0 1.6274591926830388 0 0 1.6002729693419318 0
          0.0816579432419502 0.24215341310869815 0 0 1.6231098068428749 0
          0 1.6064638539683367 0 0 1.6181029167771432 0
          0 1.6124787817612507 0 -0.13312945840343748 0.41821264186734247 0
          -0.00496553951727974 0.021400685590555593 0 0.0242236353063173 0.22257077151309232 0
          0.0000727570697466337 -0.001109836138492397 0 0.007796944774530556 0.007926002133335105 0
          -0.15793121808151972 0.3762150477785499 0 -0.02733882729883467 0.2194372698739983 0
          -0.13871789729851686 0.3161860625758891 0 -0.07454852356432887 0.2383992141038267 0
          -0.008650313819576375 0.020002188310118282 0 -0.11351781126158725 0.27266462310995826 0
          0.00836694977678402 0.01610393908300657 0 -0.0021845163222319326 -0.000042616464450735385 0
          -0.0022950161854885308 0.0008269773241149749 0 -0.019350791811058223 0.0382474529519919 0
          0.00027811101419985174 0 0 -0.006836348096759558 0.005464406919865327 0
          0.0066372596648371154 0.0012379921742991524 0 -0.00809026178795783 0.014188679861543612 0
          1 0 0 -0.00240908040670516 0.00044674509072181035 0
          -0.0027467177906956527 0.011850429630991527 0 -0.001519566994789627 0.0036542998193158545 0
          -0.013363667643672406 0.01662369173288927 0 -0.00634135531837317 0.011171863266254748 0
          -0.00022000087964786337 0.00009439981888598956 0 1 0 0
          0.05700881629004129 -0.029684907686585913 0 -0.002136393633886004 0.0024288909883417842 0
          0.10809301355955571 0.007877326958560886 0 0.06309263626851236 -0.021666198234673775 0
          0.05201449570119262 0.026126229715380863 0 -0.005998234011920206 0.001697505232946347 0
          -0.004638289377229613 -0.0009663028622981905 0 1 0 0
          0.030658161222361285 -0.02006116249865912 0 0.028551229325952512 -0.01956049554963052 0
          -0.004338621770170953 0.003945676020352698 0 0.09597189416534745 0.010036618041097893 0
          1 0 0 0.05402372412912143 0.012378550675106412 0
          -0.004863845038262242 0 0 0.018598023082384077 -0.004964058348329972 0
          0.050840347662385696 -0.00806018199585068 0 1 0 0
          0.043674906749335655 0 0 1 0 0
          1 0 0
          <InformationKey name="L2_NORM_RANGE" location="vtkDataArray" length="2">
            <Value index="0">
              9.5555997163e-11
            </Value>
            <Value index="1">
              1.6357199297
            </Value>
          </InformationKey>
        </DataArray>
        <DataArray type="Float64" Name="Energy" format="ascii" RangeMin="3608.9668041970876" RangeMax="3839.6030785334774">
          3722.8300000085874 3722.829999971079 3722.8300000102677 3722.8299999307847 3722.829999735383 3722.8299999529195
          3722.830000822636 3722.830001076919 3722.8300125213427 3722.829999890131 3722.82999993418 3722.829999576576
          3722.8299885942747 3722.829841310705 3722.829999927228 3722.8300030997407 3722.8297443505544 3722.829999847903
          3722.8299196440416 3722.8302392310416 3722.8300168556134 3722.8299999729466 3722.830009505667 3722.839422460472
          3722.829999858722 3722.829923873987 3722.8300182261846 3722.8299326290635 3722.8412100587934 3722.843550849898
          3722.829803109036 3722.830007962634 3722.8300000338804 3722.8297510924936 3722.829999894605 3722.829503714501
          3722.8300465297184 3722.8298822022325 3722.8299999649507 3722.840885812375 3722.8279344109055 3722.8300104892382
          3722.820575647185 3722.8230369044386 3722.829829412865 3722.723140250561 3722.530185239142 3722.8300075221478
          3722.8304043527282 3722.8824964033734 3722.9372603270776 3722.8289401365646 3722.8318100877036 3722.860996000084
          3722.9548158330776 3722.8304446604875 3722.236722766003 3722.68910302305 3722.829672924462 3721.8983175976146
          3722.829557782504 3722.793843103042 3720.9951495940445 3722.83289372967 3722.868875123908 3721.870489287107
          3722.830418862929 3710.7642860718092 3723.13032628254 3716.0036851014243 3706.3448219505376 3720.2213616880726
          3720.5943802859074 3702.6793995969797 3722.9819467843267 3725.4460466501932 3723.3642095422815 3682.387770728643
          3664.4201926967107 3698.905961100564 3701.7476003837573 3648.331505529801 3721.5694295845556 3721.868470485436
          3730.208502412892 3722.74678169253 3634.5144330608478 3722.842579139909 3722.248196414839 3696.9377225591084
          3722.8347946831946 3742.220123764464 3623.502227232135 3724.1786638641297 3734.9484193319613 3721.50908887849
          3762.0430986254455 3695.747825465656 3615.128293269516 3722.8306390649045 3723.941271536218 3739.8213763047193
          3780.507135648205 3610.253802889417 3694.45380541316 3723.009579915864 3719.758720274652 3722.04538236256
          3797.5512885010717 3742.681914577944 3722.7398578236566 3608.9668041970876 3724.4649775520325 3693.2448648828226
          3725.9831032014135 3721.2518535630325 3722.8477563118763 3812.1699456819833 3610.6276880654573 3745.8521409345412
          3722.3993855389167 3722.8388229989914 3695.03554236071 3722.8301894247547 3724.1434817847367 3823.7816114131797
          3615.979619378456 3749.3990593584913 3719.5284233711445 3694.2704292685785 3832.2012017245825 3725.6209097659926
          3624.4082816091986 3722.6730748281934 3722.6928332572425 3719.3486558289196 3751.216283618561 3727.480961909513
          3837.7408304144446 3698.9043884066286 3635.1772580002385 3722.8452087064893 3724.332511884504 3751.1136774045362
          3839.6030785334774 3721.460367265584 3702.1148722563216 3649.1113738312642 3727.2332208364787 3837.7640025690707
          3751.8200231973847 3722.7089382528884 3665.1461333349207 3724.1124937888494 3721.025961673431 3706.772286924038
          3832.7462436291744 3683.2927003077416 3722.6598208624137 3750.359873624774 3725.4735947872873 3711.155580493319
          3724.9619999605984 3824.2361262012964 3722.8638156502698 3702.8463646250857 3722.0992364115627 3748.411696829258
          3812.353504892246 3723.074037943835 3715.3448764840705 3798.0291192586665 3743.347097833789 3781.551455964517
          3763.0757979548684 3746.4244551321917 3723.9583096547417 3720.466990541639 3722.730749606335 3722.210554653947
          3743.5867905787613 3725.314995470897 3738.8893832767235 3730.099885429342 3723.914517687347 3734.64182168271
          3722.414885832933 3722.6450607561947 3722.689180746777 3725.0372481339523 3722.8655408026143 3722.432896017347
          3723.324733057275 3723.5488203605582 3723.33 3722.4670157902915 3723.332955081581 3722.672926076615
          3723.6859363375524 3723.0979666191597 3722.858951101906 3723.33 3728.5892950723983 3722.4862458560633
          3734.902890422086 3729.57436324379 3727.6706060153106 3722.249844216744 3722.5676967422487 3723.33
          3726.8281067656735 3726.5646736183344 3722.4360957187587 3733.6887840439117 3723.33 3727.1523106755385
          3722.388881643967 3725.2487149288054 3729.4698857137005 3723.33 3725.9507511862016 3723.33
          3723.33
        </DataArray>
        <DataArray type="Float64" Name="ALEdispl" NumberOfComponents="3" format="ascii" RangeMin="0" RangeMax="0.0010061384778412173">
          0 0 0 0 0 0
          0 0 0 0 0.00001602232751279119 0
          0 0 0 0 0 0
          0 0.0000331538535477012 0 0 0.00003749333948687565 0
          0 0 0 0 0.000025000140132343546 0
          0 0 0 0 0.000057731868498454056 0
          0 0.00009115714833373705 0 0 0 0
          0 0 0 0 0.00012634858043772618 0
          0 0.00011819570646185573 0 0 0.00003651312115435778 0
          0 0.00017785164052724884 0 0 0 0
          0 0.00019303772149375088 0 0 0 0
          0 0.0001178447284532939 0 0 0.00012855391421463593 0
          0 0.00001547457150164564 0 0 0.0002459013392388166 0
          0 0.0000320617636563793 0 0 0.00032280382690341524 0
          0 0 0 0 0.0002715991559470895 0
          0 0.0002107850963965613 0 0 0.0003251385278861635 0
          0 0 0 0 0.00010048213349714612 0
          0 0 0 0 0.00038815378864011303 0
          0 0.0004172345628591594 0 0 0.00045387155719806954 0
          0 0 0 0 0.00041554887505539903 0
          0 0.0005623452356629756 0 0 0 0
          0 0.0005451751675645204 0 0 0.0005905084443502804 0
          0 0.0003213892065070383 0 0 0.00014896902420056656 0
          0 0 0 0 0.0004589811314507281 0
          0 0.0005795281631950769 0 0 0.0007129590190767425 0
          0 0.0007063572046356242 0 0 0.0005476598258317741 0
          0 0.000717992627873841 0 0 0.00031253108834239585 0
          0 0.0007024225797257421 0 0 0.00017461263483351888 0
          0 0.0008209489273004176 0 0 0.0008176201782120749 0
          0 0 0 0 0.0008360297985132669 0
          0 0.00044564293211997214 0 0 0.000712741434098412 0
          0 0.0008316699430277512 0 0 0.0005827583520540746 0
          0 0.0008249270695287355 0 0 0.0008109028650108971 0
          0 0.00029816002050556497 0 0 0.0009223053334018534 0
          0 0.0008241899934976667 0 0 0.0009231675533876193 0
          0 0.0009208260940110992 0 0 0.0008218725500739241 0
          0 0.0009235820440912212 0 0 0.0009184775101319192 0
          0 0.0006677369659672811 0 0 0.000923567308163437 0
          0 0.0008228360145580852 0 0 0.0010061384778412169 0
          0 0.0010061384778412166 0 0 0.0009161787082530781 0
          0 0.0010061384778412169 0 0 0.0010061384778412169 0
          0 0.0007985713982584007 0 0 0.0010061384778412169 0
          0 0.0009230715278869217 0 0 0.0007212675059812325 0
          0 0.0010061384778412169 0 0 0.0004725562318422566 0
          0 0.0001703247199564211 0 0 0.0009131165342853764 0
          0 0.0005714361966645166 0 0 0.0010061384778412169 0
          0 0.0010061384778412166 0 0 0.0008347036210611377 0
          0 0.000922040074080582 0 0 0.0007909116822325937 0
          0 0.001006138477841217 0 0 0.0009098467122849043 0
          0 0.0010061384778412169 0 0 0.0004230919553987921 0
          0 0.000816482460245105 0 0 0.0009209459306805346 0
          0 0.0010061384778412169 0 0 0.0010061384778412166 0
          0 0.0009056207442131706 0 0 0.0006403963789763532 0
          0 0.0007972774205060137 0 0 0.0003128841782033978 0
          0 0.001006138477841217 0 0 0.0009189383548950677 0
          0 0.0007083925080664223 0 0 0.0010061384778412169 0
          0 0.0008123935477387588 0 0 0.0009012535842845998 0
          0 0 0 0 0.0007702574373115661 0
          0 0.00025859628644406876 0 0 0.0010061384778412166 0
          0 0.0010061384778412169 0 0 0.0009163563503356046 0
          0 0.0004642318035802328 0 0 0.0005402343509548925 0
          0 0.0008952479780601725 0 0 0 0
          0 0.000804964105732411 0 0 0.0010061384778412169 0
          0 0.001006138477841217 0 0 0.000913274547117297 0
          0 0.0007736740187538802 0 0 0.0008893764542439418 0
          0 0.0010061384778412169 0 0 0.0008163898410314508 0
          0 0.0010061384778412166 0 0 0.0006284099680611089 0
          0 0.0006785814666566693 0 0 0.0007767838976584658 0
          0 0.0009100813131873867 0 0 0.00013875631182317627 0
          0 0.0010061384778412169 0 0 0.0008825663793627786 0
          0 0.0010061384778412169 0 0 0.0003562317943017117 0
          0 0.0007911701779077421 0 0 0.0009061924611245277 0
          0 0.0010061384778412169 0 0 0.0007266136259897069 0
          0 0.0008757882985293845 0 0 0.0010061384778412169 0