<?xml version="1.0"?>
<VTKFile type="UnstructuredGrid" version="0.1" byte_order="LittleEndian" header_type="UInt32" compressor="vtkZLibDataCompressor">
  <UnstructuredGrid>
    <Piece NumberOfPoints="44" NumberOfCells="69">
      <PointData>
        <DataArray type="Float64" Name="plcd_BC" NumberOfComponents="3" format="ascii" RangeMin="0" RangeMax="0">
          0 0 0 0 0 0
          0 0 0 0 0 0
          0 0 0 0 0 0
          0 0 0 0 0 0
          0 0 0 0 0 0
          0 0 0 0 0 0
          0 0 0 0 0 0
          0 0 0 0 0 0
          0 0 0 0 0 0
          0 0 0 0 0 0
          0 0 0 0 0 0
          0 0 0 0 0 0
          0 0 0 0 0 0
          0 0 0 0 0 0
          0 0 0 0 0 0
          0 0 0 0 0 0
          0 0 0 0 0 0
          0 0 0 0 0 0
          0 0 0 0 0 0
          0 0 0 0 0 0
          0 0 0 0 0 0
          0 0 0 0 0 0
          <InformationKey name="L2_NORM_RANGE" location="vtkDataArray" length="2">
            <Value index="0">
              0
            </Value>
            <Value index="1">
              0
            </Value>
          </InformationKey>
        </DataArray>
        <DataArray type="Float64" Name="plcd_FIXNO" NumberOfComponents="3" format="ascii" RangeMin="1.4142135623730951" RangeMax="1.4142135623730951">
          -1 -1 0 -1 -1 0
          -1 -1 0 -1 -1 0
          -1 -1 0 -1 -1 0
          -1 -1 0 -1 -1 0
          -1 -1 0 -1 -1 0
          -1 -1 0 -1 -1 0
          -1 -1 0 -1 -1 0
          -1 -1 0 -1 -1 0
          -1 -1 0 -1 -1 0
          -1 -1 0 -1 -1 0
          -1 -1 0 -1 -1 0
          -1 -1 0 -1 -1 0
          -1 -1 0 -1 -1 0
          -1 -1 0 -1 -1 0
          -1 -1 0 -1 -1 0
          -1 -1 0 -1 -1 0
          -1 -1 0 -1 -1 0
          -1 -1 0 -1 -1 0
          -1 -1 0 -1 -1 0
          -1 -1 0 -1 -1 0
          -1 -1 0 -1 -1 0
          -1 -1 0 -1 -1 0
          <InformationKey name="L2_NORM_RANGE" location="vtkDataArray" length="2">
            <Value index="0">
              1.4142135624
            </Value>
            <Value index="1">
              1.4142135624
            </Value>
          </InformationKey>
        </DataArray>
        <DataArray type="Float64" Name="proc" format="ascii" RangeMin="0" RangeMax="0">
          0 0 0 0 0 0
          0 0 0 0 0 0
          0 0 0 0 0 0
          0 0 0 0 0 0
          0 0 0 0 0 0
          0 0 0 0 0 0
          0 0 0 0 0 0
          0 0
        </DataArray>
        <DataArray type="Float64" Name="Displacement" NumberOfComponents="3" format="ascii" RangeMin="0" RangeMax="0.033791071412353074">
          0 0 0 -0.000003951368644619957 0.006773406840630043 0
          -0.0027855249674447026 0 0 -0.0021342558129014287 0.007128740043742091 0
          0.000009319310976534364 0.012168853752850834 0 -0.003895715047710771 0.005655573950745659 0
          -0.0020634092438164787 0.011710617466369264 0 -0.003294120213856993 0.009225399027996947 0
          -0.0012876982735410335 0.014905747547928472 0 -0.003166798612065996 0.012590169266016343 0
          -0.0024387754363857975 0.014318336473735805 0 -0.004105174104764602 0.01069901834340716 0
          0.000039041575470029954 0.016413280343923323 0 -0.0055354711744472545 0 0
          -0.0030836764268398547 0.014927816331123195 0 -0.002616379277629269 0.015571965953820675 0
          -0.0020625784286742873 0.01666213801888682 0 -0.005537494655330189 0.006879961757068846 0
          -0.0012173830692006414 0.01812393432767233 0 -0.003999590811527409 0.01409690210487816 0
          -0.0031383453369182995 0.016663967976042006 0 -0.002626253223793797 0.01774570655020026 0
          -0.0022909559058423064 0.018929207672788807 0 -0.0036353112005853816 0.01703618481638942 0
          -0.0030806082080439383 0.018421865236271068 0 -0.005553385343668774 0.012491562639527175 0
          0.000011771389641359069 0.020838432803767157 0 -0.001656967287644889 0.021327742277620916 0
          -0.0037292670134126925 0.01976160257720246 0 -0.0029003143698554594 0.021177982167995917 0
          -0.004538852079456704 0.01848054000855368 0 -0.005576511894944063 0.016925297477919366 0
          -0.0011800867415718839 0.02465597383690889 0 -0.0046599263488864544 0.02191323666381317 0
          -0.0026346373320183473 0.025152935024971998 0 -0.000013608358545072632 0.02645767650819153 0
          -0.0038967796654254946 0.02373862656421597 0 -0.005559923179476977 0.02116365162999238 0
          -0.0017601660239404216 0.0284967447164546 0 -0.003945177577702041 0.028031888051396024 0
          -0.005542968097920077 0.026557722809822503 0 -0.000012809345799045376 0.03333333333333332 0
          -0.002761586490058579 0.03333333333333334 0 -0.005543049348836274 0.033333333333333326 0
          <InformationKey name="L2_NORM_RANGE" location="vtkDataArray" length="2">
            <Value index="0">
              0
            </Value>
            <Value index="1">
              0.033791071412
            </Value>
          </InformationKey>
        </DataArray>
        <DataArray type="Float64" Name="Pressure" format="ascii" RangeMin="-1950.13759559559" RangeMax="-1818.5294554992463">
          -1849.0982763721618 -1848.8191995535203 -1847.2347648426005 -1845.1012470989433 -1852.372571606304 -1848.9024936258425
          -1839.950971849716 -1845.5120625306636 -1862.8453257504668 -1835.615889252196 -1818.5294554992463 -1850.5443751643543
          -1857.3510422540592 -1849.8996151557153 -1839.8865387735584 -1924.5989305103096 -1938.5943253297496 -1850.6684068562702
          -1866.0559086197272 -1857.5277580085776 -1950.13759559559 -1928.5459278418095 -1826.8779552668375 -1890.63712356823
          -1825.4246517528188 -1853.2100282624701 -1855.3025271791214 -1842.4272989820427 -1844.9149432959794 -1834.680158323854
          -1861.4610872875442 -1856.0111370403793 -1847.0076566630412 -1849.7740420113053 -1844.8463827062521 -1850.1581887990872
          -1847.2439931685908 -1851.5435633559548 -1847.9162850955647 -1848.346331087718 -1849.7146088162742 -1849.134356337135
          -1847.9981961572387 -1849.1824432082806
        </DataArray>
      </PointData>
      <CellData>
        <DataArray type="UInt8" Name="vtkGhostType" format="ascii" RangeMin="0" RangeMax="0">
          0 0 0 0 0 0
          0 0 0 0 0 0
          0 0 0 0 0 0
          0 0 0 0 0 0
          0 0 0 0 0 0
          0 0 0 0 0 0
          0 0 0 0 0 0
          0 0 0 0 0 0
          0 0 0 0 0 0
          0 0 0 0 0 0
          0 0 0 0 0 0
          0 0 0
        </DataArray>
        <DataArray type="Float64" Name="Stress" NumberOfComponents="6" format="ascii" RangeMin="4759.17678235458" RangeMax="8619.177020868941">
          -2122.2039982936767 5921.511856265612 0 546.1040402256251 0 0
          -2070.779860785878 8366.687052333022 0 -25.120779482484924 0 0
          -2074.456507301318 5988.026418135538 0 -500.749489954899 0 0
          -1820.4065856862444 4478.835399412429 0 275.4743803458721 0 0
          -1995.0397530257824 5597.122423987052 0 562.922388704991 0 0
          -1793.5273308144456 5889.964366065791 0 142.0691757289825 0 0
          -1650.006282794099 5811.895280404228 0 -166.5223322111908 0 0
          -1973.414179689205 5291.739531780702 0 -664.2181993303086 0 0
          -1802.134398097603 4401.8866080192 0 -159.5918138173298 0 0
          -1792.8620890970874 5524.073171398474 0 80.77747858685639 0 0
          -1887.6036411136752 5831.712049032123 0 -40.350514195109405 0 0
          -1972.6448415513746 5654.044569100042 0 -63.498526704471644 0 0
          -1817.19442134868 5377.68263128221 0 7.0227176515141085 0 0
          -1925.0799091051804 5551.4962694901715 0 74.27677455004736 0 0
          -1863.2488617891454 5619.087392031248 0 36.571919664129446 0 0
          -1889.0803843219687 5520.823290268219 0 60.59467354280277 0 0
          -1761.727540229605 5577.92787642688 0 4.989694436002827 0 0
          -1866.3137469541866 5471.003677646353 0 -69.15356072433174 0 0
          -1917.8762194207188 5484.812445644009 0 -102.53843278433453 0 0
          -1782.4442589142948 5582.710852299309 0 -31.630559322479478 0 0
          -1858.0930863335002 5577.959558788092 0 2.2726445069809698 0 0
          -1829.7997801241368 5419.482552089397 0 24.845097675217133 0 0
          -1876.1986232888362 5577.840909857266 0 32.78339384994973 0 0
          -1851.3587996356187 5553.985966379112 0 -32.60496160775379 0 0
          -1827.0642048331051 5514.495307327411 0 7.875898973085857 0 0
          -1894.2667853204216 5575.413467058648 0 -4.1050911135285215 0 0
          -1892.2531495315402 5813.876307498889 0 12.490452119363415 0 0
          -1866.9731285991625 5606.534248981341 0 -10.050733647541518 0 0
          -1921.868405219594 5662.438475894637 0 35.06528079836568 0 0
          -1793.486003391101 5484.158054008281 0 -29.534737660205472 0 0
          -1851.050759850316 5519.890979372041 0 31.152130895447833 0 0
          -1848.4982290317644 5549.984510391867 0 5.030427126390226 0 0
          -1861.8495738742217 5549.577560479257 0 -14.805534124616198 0 0
          -1855.9530793274794 5562.638038937204 0 -5.8995920459363305 0 0
          -1834.4611370403227 5522.887107217211 0 5.197263883135438 0 0
          -1855.9544177212556 5571.12046392274 0 10.087602417687588 0 0
          -1862.8981122293048 5562.4349612368405 0 -3.7243384318902395 0 0
          -1855.4693596653583 5569.811953827202 0 -3.0098044406944475 0 0
          -1840.158461377146 5505.3873992997 0 -17.98782837884246 0 0
          -1861.0383866352763 5519.782255226133 0 -27.734479940896538 0 0
          -1837.5302560677897 5530.200738261516 0 5.571952015399606 0 0
          -1837.9883484899124 5540.751088745782 0 -8.523862703779587 0 0
          -1831.1183083554602 5517.55082170401 0 12.660511265141754 0 0
          -1837.847423321075 5547.914374577302 0 9.588393951272401 0 0
          -1859.7044758564357 5574.100897756181 0 -5.78041546515498 0 0
          -1846.090217573566 5555.863066547143 0 13.942195182618555 0 0
          -1872.2108331771956 5548.703370873247 0 22.05249795427061 0 0
          -1840.0268145504838 5530.437518607526 0 7.723679201240035 0 0
          -1859.4001345455595 5572.109232427269 0 3.490677490746674 0 0
          -1845.541741765881 5537.777446512626 0 7.993770264212269 0 0
          -1855.5532419812607 5559.643201528039 0 -4.892181207128994 0 0
          -1839.331286726528 5548.881402663536 0 -11.836179720794572 0 0
          -1857.1902356671603 5606.007340969937 0 4.5795702003749765 0 0
          -1860.8107133675335 5564.527208088781 0 4.575795623647557 0 0
          -1838.4144391116752 5535.509984346756 0 4.732884294050912 0 0
          -1843.9147323639868 5541.601495272832 0 1.2076366674553682 0 0
          -1846.4243497890302 5546.408973216722 0 19.355593447197037 0 0
          -1847.079451838807 5540.68329353738 0 -7.339636172200564 0 0
          -1839.279052611063 5524.56236871667 0 -1.7168636943613145 0 0
          -1846.4938886670157 5548.74658640407 0 -5.1498837030031455 0 0
          -1847.1454588991742 5563.8501915072175 0 -1.6201308284997975 0 0
          -1839.8582199110756 5537.916395676742 0 6.549087894745254 0 0
          -1845.1693325786814 5548.18436379846 0 5.501452005941406 0 0
          -1843.1304728093637 5536.958497188047 0 1.4272026568221579 0 0
          -1839.2135496631672 5538.1786271347255 0 -0.7723705056510559 0 0
          -1846.385159216367 5546.944651262469 0 -1.6179467499993065 0 0
          -1848.5674413976599 5551.660837042473 0 4.964499880500805 0 0
          -1846.1727167087583 5528.578785422807 0 -8.919471704839243 0 0
          -1843.6929572094423 5539.493955695404 0 -1.2995356462073637 0 0
          <InformationKey name="L2_NORM_RANGE" location="vtkDataArray" length="2">
            <Value index="0">
              4759.1767824
            </Value>
            <Value index="1">
              8619.1770209
            </Value>
          </InformationKey>
        </DataArray>
        <DataArray type="Float64" Name="Damage" format="ascii" RangeMin="0" RangeMax="0">
          0 0 0 0 0 0
          0 0 0 0 0 0
          0 0 0 0 0 0
          0 0 0 0 0 0
          0 0 0 0 0 0
          0 0 0 0 0 0
          0 0 0 0 0 0
          0 0 0 0 0 0
          0 0 0 0 0 0
          0 0 0 0 0 0
          0 0 0 0 0 0
          0 0 0
        </DataArray>
        <DataArray type="Float64" Name="Tau" format="ascii" RangeMin="10000" RangeMax="10000">
          10000 10000 10000 10000 10000 10000
          10000 10000 10000 10000 10000 10000
          10000 10000 10000 10000 10000 10000
          10000 10000 10000 10000 10000 10000
          10000 10000 10000 10000 10000 10000
          10000 10000 10000 10000 10000 10000
          10000 10000 10000 10000 10000 10000
          10000 10000 10000 10000 10000 10000
          10000 10000 10000 10000 10000 10000
          10000 10000 10000 10000 10000 10000
          10000 10000 10000 10000 10000 10000
          10000 10000 10000
        </DataArray>
        <DataArray type="Float64" Name="ComparisonRatio" format="ascii" RangeMin="0.6691452263185138" RangeMax="0.7158074382715472">
          0.7014654936537229 0.7158074382715472 0.7002426007421078 0.686237910440803 0.6990952528320384 0.6889658786227648
          0.6904172871022316 0.698057438073564 0.6858240003268312 0.670208855131175 0.6860865585277324 0.677928158029383
          0.669998579180356 0.6746752211090405 0.6807837285125727 0.6742784353399045 0.6897959669179581 0.6725324829319659
          0.6730344575808987 0.6806631074662037 0.6788866955995889 0.6710008278336754 0.6752467762097779 0.6743000020834757
          0.6720579316258746 0.67814789806189 0.6850558201359569 0.6777534757229889 0.6792515066703072 0.6691452263185138
          0.6732567324649902 0.6756888870099389 0.677062983812023 0.676043129706885 0.6730464947050239 0.6774015240745118
          0.6767179947115166 0.6774704156869475 0.6721679627848678 0.6743815544888503 0.6735352757265265 0.6736581983171339
          0.672233831991463 0.6770686950464561 0.677693878204537 0.67753554979686 0.6760135704892916 0.6741660044472151
          0.6763182407357646 0.6749446139193118 0.6775686177669182 0.6782615756441557 0.6764216730593074 0.6767004897200983
          0.6740512497885356 0.6744230522956263 0.6744680564986155 0.6747697842296133 0.67342320101447 0.674763041839227
          0.6749987170145351 0.6738632749749669 0.6746306560399034 0.674023417657637 0.6738971519939048 0.6745943304159682
          0.6751284757209466 0.6741808478814293 0.6741256231288276
        </DataArray>
      </CellData>
      <Points>
        <DataArray type="Float32" Name="Points" NumberOfComponents="3" format="ascii" RangeMin="0" RangeMax="44.721359549995796">
          0 0 0 0 8.140706062316895 0
          10.05757999420166 0 0 7.691964149475098 8.589868545532227 0
          0 14.605589866638184 0 14.0803804397583 6.803778171539307 0
          7.426051139831543 14.1212797164917 0 11.903209686279297 11.110679626464844 0
          4.753245830535889 17.899110794067383 0 11.456890106201172 15.17908000946045 0
          8.750992774963379 17.343339920043945 0 14.829529762268066 12.860369682312012 0
          0 19.698619842529297 0 20 0 0
          11.149399757385254 18.009180068969727 0 9.5 19.133970260620117 0
          7.701200008392334 20 0 20 8.261746406555176 0
          4.515868186950684 21.745309829711914 0 14.387109756469727 16.92919921875 0
          11 20 0 9.5 20.866029739379883 0
          8.211783409118652 22.57975959777832 0 12.926910400390625 20.435630798339844 0
          11.149399757385254 21.990819931030273 0 20 14.984809875488281 0
          0 25.01519012451172 0 5.938395023345947 25.54166030883789 0
          13.446599960327148 23.67215919494629 0 10.465840339660645 25.334749221801758 0
          16.258020401000977 22.168529510498047 0 20 20.301380157470703 0
          4.211780071258545 29.558330535888672 0 16.787519454956055 26.278400421142578 0
          9.481986999511719 30.143190383911133 0 0 31.738250732421875 0
          14.0620698928833 28.453689575195312 0 20 25.3944091796875 0
          6.3112311363220215 34.17660140991211 0 14.231200218200684 33.61981964111328 0
          20 31.859289169311523 0 0 40 0
          9.942421913146973 40 0 20 40 0
          <InformationKey name="L2_NORM_RANGE" location="vtkDataArray" length="2">
            <Value index="0">
              0
            </Value>
            <Value index="1">
              44.72135955
            </Value>
          </InformationKey>
        </DataArray>
      </Points>
      <Cells>
        <DataArray type="Int64" Name="connectivity" format="ascii" RangeMin="0" RangeMax="43">
          20 15 14 15 21 16
          21 20 24 14 15 10
          16 21 22 24 20 23
          20 14 23 15 16 10
          21 24 22 14 10 9
          16 22 18 24 23 28
          9 10 6 18 22 27
          28 23 30 14 9 19
          16 18 8 24 28 29
          6 10 8 30 23 19
          8 18 12 27 22 29
          19 9 11 29 28 36
          9 6 7 28 30 33
          16 8 10 18 27 26
          14 19 23 24 29 22
          11 9 7 11 5 17
          36 28 33 36 33 40
          7 6 3 33 30 37
          33 37 40 19 11 25
          29 36 34 3 6 4
          7 3 5 34 36 39
          29 34 27 37 30 31
          31 30 19 12 4 8
          26 27 32 32 27 34
          26 32 35 35 32 38
          25 31 19 26 12 18
          6 8 4 25 11 17
          5 3 2 5 2 13
          7 5 11 39 36 40
          34 39 38 39 40 43
          4 1 3 34 38 32
          35 38 41 41 38 42
          42 38 39 1 0 2
          17 5 13 3 1 2
          42 39 43
        </DataArray>
        <DataArray type="Int64" Name="offsets" format="ascii" RangeMin="3" RangeMax="207">
          3 6 9 12 15 18
          21 24 27 30 33 36
          39 42 45 48 51 54
          57 60 63 66 69 72
          75 78 81 84 87 90
          93 96 99 102 105 108
          111 114 117 120 123 126
          129 132 135 138 141 144
          147 150 153 156 159 162
          165 168 171 174 177 180
          183 186 189 192 195 198
          201 204 207
        </DataArray>
        <DataArray type="UInt8" Name="types" format="ascii" RangeMin="5" RangeMax="5">
          5 5 5 5 5 5
          5 5 5 5 5 5
          5 5 5 5 5 5
          5 5 5 5 5 5
          5 5 5 5 5 5
          5 5 5 5 5 5
          5 5 5 5 5 5
          5 5 5 5 5 5
          5 5 5 5 5 5
          5 5 5 5 5 5
          5 5 5 5 5 5
          5 5 5
        </DataArray>
      </Cells>
    </Piece>
  </UnstructuredGrid>
</VTKFile>
