<?xml version="1.0"?>
<VTKFile type="UnstructuredGrid" version="0.1" byte_order="LittleEndian" header_type="UInt32" compressor="vtkZLibDataCompressor">
  <UnstructuredGrid>
    <Piece NumberOfPoints="85" NumberOfCells="64">
      <PointData>
        <DataArray type="Float64" Name="Density" format="ascii" RangeMin="0.9268073611350045" RangeMax="1.3329600526476075">
          1.1637853619712677 1.1636981587882527 1.1637999999996367 1.1627441640165501 1.163587907770823 1.1625783919575476
          1.1637999999996367 1.163570367753514 1.1681294401043514 1.1623601345161292 1.1684273805217447 1.163995094319527
          1.1759823540948506 1.1643472806553683 1.1637999999996367 1.164409825993916 1.1584599961225597 1.1663134744529622
          1.1644627081409995 1.1675248712525694 1.1674599443775646 1.168027131631309 1.1650655090811395 1.1558465173221897
          1.1418988318779637 1.1632314076951076 1.1635653857846329 1.1446338134210523 1.151710843716451 1.1637999999996367
          1.1639963578753714 1.142128877057806 1.0787329472339613 1.152456007291818 1.1779614455174159 1.0899270385469608
          1.1313101784245598 1.162399168278346 1.1222354496329934 1.1602262753702106 1.207678996680699 1.1968883595156503
          0.9268073611350045 1.1789979370193322 1.043993093740836 1.046028191842843 1.2148511783325235 1.1426595651169207
          1.2714702995133715 1.181876692975976 1.1630417281002534 1.1282361252646695 1.2136288533736497 1.2329442849116723
          1.163400377959459 1.1703960013721113 1.3329600526476075 1.1996909481499913 1.214510642563396 1.124364224960725
          1.1872486621163048 1.186304321111502 1.1746962871437618 1.2012368320113997 1.0867958050684767 1.1741144545183098
          1.1800940491308123 1.1605146870708476 1.1834752192879523 1.1193215639053546 1.1304259328371915 1.228411686622559
          1.163620280182318 1.1627888298884501 1.1888288544764463 1.1896235247264353 1.1723193847475544 1.1874626984513599
          1.1637374403727296 1.175192903223114 1.1639315516079973 1.165706227344399 1.1603297030653128 1.1670960298671151
          1.1645017141068783
        </DataArray>
        <DataArray type="Float64" Name="Velocity" NumberOfComponents="3" format="ascii" RangeMin="0" RangeMax="277.8637810432827">
          245.00000004912158 0.0016532983640321797 0 245.00000042548947 0.008841815563382791 0
          245 0 0 245.16200207123424 0.08380564004307281 0
          245.00000031069447 0.0071282027633426176 0 245.05684380691144 0.05616735583338022 0
          245 0 0 244.99999988265716 0.006664237655184032 0
          244.4235609233314 -0.6737663808838288 0 245.04814272506965 -0.05222915989090125 0
          244.76229729133308 -0.6089878598711909 0 244.99999838711685 -0.034549121354589325 0
          244.98574087819202 -0.5447793731910942 0 245.90745523945296 0.42053714454559415 0
          245 0 0 245.0000025043468 -0.06737640111159639 0
          246.75473531770683 4.457387669922386 0 244.5865191573458 -0.4638019802933059 0
          245.00000181339237 -0.04586324486749748 0 245.92479071186688 3.8727366082628407 0
          245.17085658959223 -0.8766188319657264 0 240.7161654291011 -0.5085381820134881 0
          245.00000351208104 0.06602668101155074 0 245.57473883342027 2.856931517255702 0
          244.5731247005428 6.214672759243272 0 246.68298761680794 1.5058520656501082 0
          244.9999622907541 0.02956271315573075 0 243.7127986383825 4.213200288201156 0
          247.66530230842076 2.181943825100353 0 0 0 0
          0 0 0 240.450395634475 -2.822093076887167 0
          264.6842857548554 -3.001273455022713 0 0 0 0
          235.0024609451493 -10.498313638125005 0 248.45594812323992 -16.29398662087283 0
          254.11525903695278 -23.981399177222958 0 244.99999397364527 -0.007888210615006861 0
          0 0 0 245.78927849292015 -1.1120307644504772 0
          256.41578496269204 -6.834397428003367 0 275.4849548892149 36.2811307066992 0
          0 0 0 241.25473296958003 1.9435777261258351 0
          0 0 0 132.39906660509743 -64.6197052570651 0
          0 0 0 46.86827706242268 -20.540692527477997 0
          61.954270643349226 -50.97171477152469 0 0 0 0
          245.00000026201633 -0.003936994802846548 0 52.43247476142377 5.63046882644979 0
          53.16041533717084 -16.726765797259525 0 0 0 0
          245.18052922556893 -0.22184728239249377 0 32.371461179667904 17.2083437864089 0
          29.968537794361705 44.98192461726857 0 65.86174006423936 8.24498116530338 0
          258.8065872562589 6.19377892989057 0 0 0 0
          2.7731903502214257 30.965213708649976 0 -27.02628634498434 9.307895863934599 0
          0 0 0 5.649756358745646 6.320703429590059 0
          0 0 0 244.39974895019148 0.4014602114874838 0
          0 0 0 -45.21848087050722 -4.805059234390902 0
          0 0 0 0 0 0
          0 0 0 0 0 0
          245.00000016881796 0.006708560648885231 0 245.04597782057132 0.19528776140689982 0
          248.50546198702227 2.4506987671738893 0 0 0 0
          244.91235259014778 -1.0364233772058302 0 0 0 0
          245.0002656342478 0.010100959422680413 0 245.21889583297397 5.302380838144283 0
          244.9963708886433 -0.012318048030546912 0 245.00711784949374 0.03121189812561832 0
          0 0 0 245.10166190800885 0.6348108834601003 0
          0.07920745847781852 0.11237353994884343 0
          <InformationKey name="L2_NORM_RANGE" location="vtkDataArray" length="2">
            <Value index="0">
              0
            </Value>
            <Value index="1">
              277.86378104
            </Value>
          </InformationKey>
        </DataArray>
        <DataArray type="Float64" Name="Pressure" format="ascii" RangeMin="46802.40989790403" RangeMax="176849.01495758985">
          101320.86856920597 101323.79620055947 101320.1952509029 101266.3090705283 101323.09825510463 101278.46794446738
          101320.19525090294 101322.90927489362 101506.10910507085 101236.40013875865 101436.76047786105 101306.12497131317
          101543.33493216167 101057.34406143652 101320.19525090294 101292.75747504734 100828.69542054378 101510.37935651564
          101301.5179195621 101117.29057300132 101511.98654500721 102615.29342032401 101347.08782357632 101097.93481420887
          101631.30908131131 101164.72090351181 101332.23524688491 101582.93228491324 101047.48695049009 101320.19525090294
          101456.19160951895 101939.9610346764 95498.92109721218 101761.51595816787 101995.17146476847 99109.62354928446
          94999.60520411699 101316.98253037283 100327.06406608787 101308.37587956607 95709.63293168347 97484.33327904253
          77449.02431559964 100802.40414477505 56006.197802097115 46802.40989790403 50039.248126797924 55699.48940537635
          86698.72729443213 48822.5197823474 101318.59169034014 55446.40620741852 91678.695155942 49792.49727470122
          101307.42772719315 53699.41231722465 143148.17625472706 90937.25613533682 106630.89276928824 53641.241813554465
          146092.6102217832 87615.90682136675 150162.0137898078 149281.42746838793 87631.32328456579 101457.566028911
          170926.2315655234 147019.44523426777 176849.01495758985 146632.94261254446 176068.4151469318 175561.6014896374
          101322.92738814259 101235.69008233924 101405.22918117762 107959.79932911806 101613.31915911539 100183.18382549648
          101320.7496450879 100731.2433754239 101318.71723451983 101323.09405919407 101329.7880515203 101361.12971791519
          101385.77023075258
        </DataArray>
        <DataArray type="Float64" Name="Temperature" format="ascii" RangeMin="236.51721810037387" RangeMax="358.0448833307218">
          298.15057281701644 298.1530634176856 298.15 298.0973746393954 298.152469672701 298.09933307338486
          298.15 298.15230903553004 298.33458750812696 298.12725343080785 298.3097297119871 298.13802988878234
          298.1444401792594 297.6484462148462 298.15 298.1266555272275 297.6188606823936 298.32476548600175
          298.13410915135756 297.74470819486265 298.27309922782223 300.3420047306892 298.17287815056807 297.90010140289075
          299.10907784259393 298.0429388833123 298.1602540324715 298.52247868758036 297.0570629470487 298.15
          297.79273136043565 298.55151438899384 288.64261260325975 299.00101803466623 302.0900683415442 296.27226558878937
          291.6343106554008 298.14726856883954 293.91053394278293 298.0081562104645 293.57558808231204 281.43816048511894
          287.2313955547866 298.2102160959135 265.89579759432655 237.6075052531039 236.51721810037387 252.92035490630676
          280.7972705278213 247.0999446547467 298.1486358218868 255.87964047444964 287.648303956109 236.9386465265085
          298.2087590114949 249.28646594196246 313.0954350689952 283.8031521780715 300.28534535996147 247.6669897067958
          326.5422817523825 283.95745483482386 354.5078093340706 325.96174960175495 289.9778836934383 297.99026324105233
          352.6570221859637 326.9383111451568 349.9469626231982 341.8628325457566 358.0448833307218 341.6949334889867
          298.15232427296854 298.0533859896 299.2997244197709 301.7339967405424 298.4969430279102 296.10225125152385
          298.149715173192 297.2657561895107 298.14866655991426 298.1525789656534 298.08047076007927 298.1429604316614
          298.2493350201851
        </DataArray>
      </PointData>
      <CellData>
        <DataArray type="UInt8" Name="vtkGhostType" format="ascii" RangeMin="0" RangeMax="0">
          0 0 0 0 0 0
          0 0 0 0 0 0
          0 0 0 0 0 0
          0 0 0 0 0 0
          0 0 0 0 0 0
          0 0 0 0 0 0
          0 0 0 0 0 0
          0 0 0 0 0 0
          0 0 0 0 0 0
          0 0 0 0 0 0
          0 0 0 0
        </DataArray>
      </CellData>
      <Points>
        <DataArray type="Float32" Name="Points" NumberOfComponents="3" format="ascii" RangeMin="0" RangeMax="0.029717074200620645">
          -0.015239999629557133 0.02159000001847744 0 -0.011429999954998493 0.02159000001847744 0
          -0.015239999629557133 0.016192499548196793 0 -0.011429999954998493 0.016192499548196793 0
          -0.007619999814778566 0.02159000001847744 0 -0.007619999814778566 0.016192499548196793 0
          -0.015239999629557133 0.01079500000923872 0 -0.003809999907389283 0.02159000001847744 0
          -0.011429999954998493 0.01079500000923872 0 -0.003809999907389283 0.016192499548196793 0
          -0.007619999814778566 0.01079500000923872 0 0 0.02159000001847744 0
          -0.003809999907389283 0.01079500000923872 0 0 0.016192499548196793 0
          -0.015239999629557133 0.00539750000461936 0 0.001294999965466559 0.02159000001847744 0
          -0.011429999954998493 0.00539750000461936 0 0.001294999965466559 0.016192499548196793 0
          0.002589999930933118 0.02159000001847744 0 -0.007619999814778566 0.00539750000461936 0
          0.002589999930933118 0.016192499548196793 0 0 0.01079500000923872 0
          0.0038850000128149986 0.02159000001847744 0 0.001294999965466559 0.01079500000923872 0
          -0.003809999907389283 0.00539750000461936 0 0.0038850000128149986 0.016192499548196793 0
          0.005179999861866236 0.02159000001847744 0 0.002589999930933118 0.01079500000923872 0
          0.005179999861866236 0.016192499548196793 0 -0.015239999629557133 0 0
          -0.011429999954998493 0 0 0.0038850000128149986 0.01079500000923872 0
          0 0.00539750000461936 0 -0.007619999814778566 0 0
          0.005179999861866236 0.01079500000923872 0 0.001294999965466559 0.00539750000461936 0
          0.002589999930933118 0.00539750000461936 0 0.008990000002086163 0.02159000001847744 0
          -0.003809999907389283 0 0 0.008990000002086163 0.016192499548196793 0
          0.0038850000128149986 0.00539750000461936 0 0.005179999861866236 0.00539750000461936 0
          0 0 0 0.008990000002086163 0.01079500000923872 0
          0 -0.0006350000039674342 0 0.001294999965466559 0 0
          0 -0.0012700000079348683 0 0.001294999965466559 -0.0006350000039674342 0
          0.002589999930933118 0 0 0 -0.0019049999536946416 0
          0.012799999676644802 0.02159000001847744 0 0.001294999965466559 -0.0012700000079348683 0
          0.002589999930933118 -0.0006350000039674342 0 0 -0.0025400000158697367 0
          0.012799999676644802 0.016192499548196793 0 0.001294999965466559 -0.0019049999536946416 0
          0.0038850000128149986 0 0 0.002589999930933118 -0.0012700000079348683 0
          0.008990000002086163 0.00539750000461936 0 0.001294999965466559 -0.0025400000158697367 0
          0.0038850000128149986 -0.0006350000039674342 0 0.002589999930933118 -0.0019049999536946416 0
          0.005179999861866236 0 0 0.0038850000128149986 -0.0012700000079348683 0
          0.002589999930933118 -0.0025400000158697367 0 0.012799999676644802 0.01079500000923872 0
          0.005179999861866236 -0.0006350000039674342 0 0.0038850000128149986 -0.0019049999536946416 0
          0.005179999861866236 -0.0012700000079348683 0 0.0038850000128149986 -0.0025400000158697367 0
          0.005179999861866236 -0.0019049999536946416 0 0.005179999861866236 -0.0025400000158697367 0
          0.016610000282526016 0.02159000001847744 0 0.016610000282526016 0.016192499548196793 0
          0.012799999676644802 0.00539750000461936 0 0.008990000002086163 0 0
          0.016610000282526016 0.01079500000923872 0 0.012799999676644802 0 0
          0.020419999957084656 0.02159000001847744 0 0.016610000282526016 0.00539750000461936 0
          0.020419999957084656 0.016192499548196793 0 0.020419999957084656 0.01079500000923872 0
          0.016610000282526016 0 0 0.020419999957084656 0.00539750000461936 0
          0.020419999957084656 0 0
          <InformationKey name="L2_NORM_RANGE" location="vtkDataArray" length="2">
            <Value index="0">
              0
            </Value>
            <Value index="1">
              0.029717074201
            </Value>
          </InformationKey>
        </DataArray>
      </Points>
      <Cells>
        <DataArray type="Int64" Name="connectivity" format="ascii" RangeMin="0" RangeMax="84">
          32 24 38 42 21 12
          24 32 13 9 12 21
          11 7 9 13 24 19
          33 38 12 10 19 24
          9 5 10 12 7 4
          5 9 19 16 30 33
          10 8 16 19 5 3
          8 10 4 1 3 5
          16 14 29 30 8 6
          14 16 3 2 6 8
          1 0 2 3 56 60
          66 62 48 52 60 56
          45 47 52 48 42 44
          47 45 60 63 68 66
          52 57 63 60 47 51
          57 52 44 46 51 47
          63 67 70 68 57 61
          67 63 51 55 61 57
          46 49 55 51 67 69
          71 70 61 64 69 67
          55 59 64 61 49 53
          59 55 45 35 32 42
          48 36 35 45 56 40
          36 48 62 41 40 56
          35 23 21 32 36 27
          23 35 40 31 27 36
          41 34 31 40 23 17
          13 21 27 20 17 23
          31 25 20 27 34 28
          25 31 17 15 11 13
          20 18 15 17 25 22
          18 20 28 26 22 25
          75 58 41 62 77 74
          58 75 82 79 74 77
          84 83 79 82 58 43
          34 41 74 65 43 58
          79 76 65 74 83 81
          76 79 43 39 28 34
          65 54 39 43 76 73
          54 65 81 80 73 76
          39 37 26 28 54 50
          37 39 73 72 50 54
          80 78 72 73
        </DataArray>
        <DataArray type="Int64" Name="offsets" format="ascii" RangeMin="4" RangeMax="256">
          4 8 12 16 20 24
          28 32 36 40 44 48
          52 56 60 64 68 72
          76 80 84 88 92 96
          100 104 108 112 116 120
          124 128 132 136 140 144
          148 152 156 160 164 168
          172 176 180 184 188 192
          196 200 204 208 212 216
          220 224 228 232 236 240
          244 248 252 256
        </DataArray>
        <DataArray type="UInt8" Name="types" format="ascii" RangeMin="9" RangeMax="9">
          9 9 9 9 9 9
          9 9 9 9 9 9
          9 9 9 9 9 9
          9 9 9 9 9 9
          9 9 9 9 9 9
          9 9 9 9 9 9
          9 9 9 9 9 9
          9 9 9 9 9 9
          9 9 9 9 9 9
          9 9 9 9 9 9
          9 9 9 9
        </DataArray>
      </Cells>
    </Piece>
  </UnstructuredGrid>
</VTKFile>
