<?xml version="1.0"?>
<VTKFile type="UnstructuredGrid" version="0.1" byte_order="LittleEndian" header_type="UInt32" compressor="vtkZLibDataCompressor">
  <UnstructuredGrid>
    <Piece NumberOfPoints="85" NumberOfCells="64">
      <PointData>
        <DataArray type="Float64" Name="Density" format="ascii" RangeMin="0.6963079286426269" RangeMax="1.8681348926939205">
          1.1638056979048559 1.1638294258273312 1.1638000000162776 1.1635941146261506 1.1638259686858519 1.1636926249509978
          1.1638000000162774 1.1638450973869083 1.16452864723524 1.1634124819463465 1.1642038882739947 1.163750950597941
          1.1645453425819408 1.1628129563981933 1.1638000000162776 1.1636436577329061 1.1610110437777166 1.164421052027103
          1.1637071757861568 1.1618236204611339 1.165061625351708 1.1685600193447279 1.1639063184766762 1.1638865248201384
          1.1655214015090294 1.1615904035713482 1.1637212171714175 1.1644044449809305 1.1667282468227484 1.1638000000162774
          1.1671300532191053 1.1726043459600515 1.1438934932667177 1.1662015716645797 1.15429307551332 1.1513094762775786
          1.1366168400468255 1.1638098788753575 1.176189967742862 1.164439499021398 1.1185438144211661 1.1817136078950081
          0.9610200442333927 1.1581050711829461 0.7613067245063352 0.6963079286426269 0.7464439502700828 0.7532764714919966
          0.9661783110059315 0.7182195312753363 1.1638176474465487 0.75144853143281 0.9851557481970046 0.7688558094717274
          1.1634365074126822 0.7441143271061661 1.540943682023211 0.9912110457428616 1.2016839360493887 0.7585926745212298
          1.5499332176572156 0.9687431066744169 1.5018782495821714 1.5940865254452736 0.9946795618568786 1.1659624437750564
          1.7736963089543814 1.5663424263410768 1.8681348926939205 1.4978660967411335 1.7987065917554148 1.83644793420319
          1.163823149960141 1.1634868076751912 1.1545841985874719 1.200785425303905 1.164768093828523 1.155030385740714
          1.1638121849984164 1.1618502409257476 1.163796701196031 1.1637965529235974 1.1678221128608555 1.164252173694672
          1.1640769291938335
        </DataArray>
      </PointData>
      <CellData>
        <DataArray type="UInt8" Name="vtkGhostType" format="ascii" RangeMin="0" RangeMax="0">
          0 0 0 0 0 0
          0 0 0 0 0 0
          0 0 0 0 0 0
          0 0 0 0 0 0
          0 0 0 0 0 0
          0 0 0 0 0 0
          0 0 0 0 0 0
          0 0 0 0 0 0
          0 0 0 0 0 0
          0 0 0 0 0 0
          0 0 0 0
        </DataArray>
      </CellData>
      <Points>
        <DataArray type="Float32" Name="Points" NumberOfComponents="3" format="ascii" RangeMin="0" RangeMax="0.029717074200620645">
          -0.015239999629557133 0.02159000001847744 0 -0.011429999954998493 0.02159000001847744 0
          -0.015239999629557133 0.016192499548196793 0 -0.011429999954998493 0.016192499548196793 0
          -0.007619999814778566 0.02159000001847744 0 -0.007619999814778566 0.016192499548196793 0
          -0.015239999629557133 0.01079500000923872 0 -0.003809999907389283 0.02159000001847744 0
          -0.011429999954998493 0.01079500000923872 0 -0.003809999907389283 0.016192499548196793 0
          -0.007619999814778566 0.01079500000923872 0 0 0.02159000001847744 0
          -0.003809999907389283 0.01079500000923872 0 0 0.016192499548196793 0
          -0.015239999629557133 0.00539750000461936 0 0.001294999965466559 0.02159000001847744 0
          -0.011429999954998493 0.00539750000461936 0 0.001294999965466559 0.016192499548196793 0
          0.002589999930933118 0.02159000001847744 0 -0.007619999814778566 0.00539750000461936 0
          0.002589999930933118 0.016192499548196793 0 0 0.01079500000923872 0
          0.0038850000128149986 0.02159000001847744 0 0.001294999965466559 0.01079500000923872 0
          -0.003809999907389283 0.00539750000461936 0 0.0038850000128149986 0.016192499548196793 0
          0.005179999861866236 0.02159000001847744 0 0.002589999930933118 0.01079500000923872 0
          0.005179999861866236 0.016192499548196793 0 -0.015239999629557133 0 0
          -0.011429999954998493 0 0 0.0038850000128149986 0.01079500000923872 0
          0 0.00539750000461936 0 -0.007619999814778566 0 0
          0.005179999861866236 0.01079500000923872 0 0.001294999965466559 0.00539750000461936 0
          0.002589999930933118 0.00539750000461936 0 0.008990000002086163 0.02159000001847744 0
          -0.003809999907389283 0 0 0.008990000002086163 0.016192499548196793 0
          0.0038850000128149986 0.00539750000461936 0 0.005179999861866236 0.00539750000461936 0
          0 0 0 0.008990000002086163 0.01079500000923872 0
          0 -0.0006350000039674342 0 0.001294999965466559 0 0
          0 -0.0012700000079348683 0 0.001294999965466559 -0.0006350000039674342 0
          0.002589999930933118 0 0 0 -0.0019049999536946416 0
          0.012799999676644802 0.02159000001847744 0 0.001294999965466559 -0.0012700000079348683 0
          0.002589999930933118 -0.0006350000039674342 0 0 -0.0025400000158697367 0
          0.012799999676644802 0.016192499548196793 0 0.001294999965466559 -0.0019049999536946416 0
          0.0038850000128149986 0 0 0.002589999930933118 -0.0012700000079348683 0
          0.008990000002086163 0.00539750000461936 0 0.001294999965466559 -0.0025400000158697367 0
          0.0038850000128149986 -0.0006350000039674342 0 0.002589999930933118 -0.0019049999536946416 0
          0.005179999861866236 0 0 0.0038850000128149986 -0.0012700000079348683 0
          0.002589999930933118 -0.0025400000158697367 0 0.012799999676644802 0.01079500000923872 0
          0.005179999861866236 -0.0006350000039674342 0 0.0038850000128149986 -0.0019049999536946416 0
          0.005179999861866236 -0.0012700000079348683 0 0.0038850000128149986 -0.0025400000158697367 0
          0.005179999861866236 -0.0019049999536946416 0 0.005179999861866236 -0.0025400000158697367 0
          0.016610000282526016 0.02159000001847744 0 0.016610000282526016 0.016192499548196793 0
          0.012799999676644802 0.00539750000461936 0 0.008990000002086163 0 0
          0.016610000282526016 0.01079500000923872 0 0.012799999676644802 0 0
          0.020419999957084656 0.02159000001847744 0 0.016610000282526016 0.00539750000461936 0
          0.020419999957084656 0.016192499548196793 0 0.020419999957084656 0.01079500000923872 0
          0.016610000282526016 0 0 0.020419999957084656 0.00539750000461936 0
          0.020419999957084656 0 0
          <InformationKey name="L2_NORM_RANGE" location="vtkDataArray" length="2">
            <Value index="0">
              0
            </Value>
            <Value index="1">
              0.029717074201
            </Value>
          </InformationKey>
        </DataArray>
      </Points>
      <Cells>
        <DataArray type="Int64" Name="connectivity" format="ascii" RangeMin="0" RangeMax="84">
          32 24 38 42 21 12
          24 32 13 9 12 21
          11 7 9 13 24 19
          33 38 12 10 19 24
          9 5 10 12 7 4
          5 9 19 16 30 33
          10 8 16 19 5 3
          8 10 4 1 3 5
          16 14 29 30 8 6
          14 16 3 2 6 8
          1 0 2 3 56 60
          66 62 48 52 60 56
          45 47 52 48 42 44
          47 45 60 63 68 66
          52 57 63 60 47 51
          57 52 44 46 51 47
          63 67 70 68 57 61
          67 63 51 55 61 57
          46 49 55 51 67 69
          71 70 61 64 69 67
          55 59 64 61 49 53
          59 55 45 35 32 42
          48 36 35 45 56 40
          36 48 62 41 40 56
          35 23 21 32 36 27
          23 35 40 31 27 36
          41 34 31 40 23 17
          13 21 27 20 17 23
          31 25 20 27 34 28
          25 31 17 15 11 13
          20 18 15 17 25 22
          18 20 28 26 22 25
          75 58 41 62 77 74
          58 75 82 79 74 77
          84 83 79 82 58 43
          34 41 74 65 43 58
          79 76 65 74 83 81
          76 79 43 39 28 34
          65 54 39 43 76 73
          54 65 81 80 73 76
          39 37 26 28 54 50
          37 39 73 72 50 54
          80 78 72 73
        </DataArray>
        <DataArray type="Int64" Name="offsets" format="ascii" RangeMin="4" RangeMax="256">
          4 8 12 16 20 24
          28 32 36 40 44 48
          52 56 60 64 68 72
          76 80 84 88 92 96
          100 104 108 112 116 120
          124 128 132 136 140 144
          148 152 156 160 164 168
          172 176 180 184 188 192
          196 200 204 208 212 216
          220 224 228 232 236 240
          244 248 252 256
        </DataArray>
        <DataArray type="UInt8" Name="types" format="ascii" RangeMin="9" RangeMax="9">
          9 9 9 9 9 9
          9 9 9 9 9 9
          9 9 9 9 9 9
          9 9 9 9 9 9
          9 9 9 9 9 9
          9 9 9 9 9 9
          9 9 9 9 9 9
          9 9 9 9 9 9
          9 9 9 9 9 9
          9 9 9 9 9 9
          9 9 9 9
        </DataArray>
      </Cells>
    </Piece>
  </UnstructuredGrid>
</VTKFile>
