<?xml version="1.0"?>
<VTKFile type="UnstructuredGrid" version="0.1" byte_order="LittleEndian" header_type="UInt32" compressor="vtkZLibDataCompressor">
  <UnstructuredGrid>
    <Piece NumberOfPoints="122" NumberOfCells="197">
      <PointData>
        <DataArray type="Float64" Name="Temperature" format="ascii" RangeMin="0" RangeMax="7.502349408063035">
          1.7672582106642656 0.9908125738161865 2.7142432160343883 0 2.337536270086719 5.009301380012258
          2.414661453940869 6.158221612095233 2.03085464766909 2.994661208060916 2.5793315711315343 3.4387623486143015
          3.8128019177628194 6.2509142212945745 4.360274084896928 5.607807869460124 4.081165911619142 2.6875477350412518
          4.210970905753528 7.18022847870108 4.1981082931959595 7.502349408063035 2.514858789982965 5.30703506892249
          2.219282219464753 2.2201931767103944 2.1734811506261176 1.6469479088254766 1.86396985183915 1.7958820782976077
          2.1900395330057276 2.2715740025338773 2.47036923421618 2.660743276439395 3.3355077104264588 2.7571670002245443
          3.2232737201532653 3.6192649312846417 2.6632135460916686 2.468934606041342 3.1371330989728032 2.998908352471456
          4.1563759088161945 3.6367565981940264 2.8384532697232836 3.8941575986384613 3.2477007741340667 4.40237854113953
          3.3246717450905403 3.9624186325836614 6.876698355188148 5.780533279945611 5.627201929911749 5.233126594562204
          6.7172701951327936 6.013512400180379 4.022167571792171 4.832560271864334 4.690257772292753 5.315414151704997
          5.887491100170526 6.392210199769367 4.834162901195619 5.016642866275255 3.3492223224829605 3.3611402075307053
          4.629081837143467 4.164988780166601 2.72547424111374 2.5891163821334824 5.177975561519939 4.2192753612265195
          3.279690795101071 7.422472555786912 6.765338929986384 2.63394498598663 5.324113742623222 2.0682602142469007
          3.046825645487125 2.271574015707773 2.757167016465663 6.329104110119868 4.427852214814458 5.780533303547888
          4.832560295332129 7.4224725997001135 6.876698377604587 7.180228553542692 2.0308546698672516 2.9946612414306784
          6.250914264711214 1.569478159361331 1.6930138963813308 3.679325932571211 4.360274127486989 1.3610823045520137
          1.8120071676477691 1.674708038947755 1.277283589599856 0.44503772854216306 0.5675123213984071 1.3017992179736546
          0.7873852181748721 1.91944485872701 2.184316659007651 2.0725069896979047 3.1419553863167202 2.92596466700536
          2.028474542311068 1.6614301618084502 2.118464193539215 1.9030809035068914 0 1.0909487484530007
          2.1409376088414156 6.71727025591783 1.8639698613597264 2.470369262430027 3.335507729230312 5.2331266398946426
          1.6617975256427056 4.022167593816084
        </DataArray>
      </PointData>
      <CellData>
        <DataArray type="UInt8" Name="vtkGhostType" format="ascii" RangeMin="0" RangeMax="1">
          0 0 0 0 1 1
          1 1 1 1 1 0
          0 0 0 1 1 1
          1 1 1 1 1 1
          1 1 1 1 0 0
          0 0 1 1 1 1
          1 1 1 1 1 1
          1 1 0 0 0 0
          0 0 0 0 0 0
          0 0 0 0 0 0
          0 0 0 0 0 0
          0 0 0 0 0 0
          0 0 0 0 0 0
          0 0 0 0 0 0
          0 0 0 0 0 0
          0 0 0 0 0 0
          0 0 0 0 0 0
          0 0 0 0 0 0
          0 0 0 0 0 0
          0 0 0 0 0 0
          0 0 0 0 0 0
          0 0 0 0 0 0
          0 0 0 0 0 0
          0 0 1 1 1 0
          0 0 0 1 1 1
          1 1 1 0 0 0
          0 0 0 0 0 0
          0 0 0 0 0 0
          0 0 0 0 0 0
          0 0 0 0 0 0
          0 0 0 0 0 0
          0 0 0 0 0 0
          0 0 0 0 0
        </DataArray>
      </CellData>
      <Points>
        <DataArray type="Float32" Name="Points" NumberOfComponents="3" format="ascii" RangeMin="0.625" RangeMax="1.1792476415070754">
          0.6875 0.1875 0 0.8125 0.0625 0
          0.75 0.25 0 1 0 0
          0.625 0.375 0 0.875 0.375 0
          0.875 0.125 0 1 0.25 0
          0.5625 0.4375 0 0.6875 0.4375 0
          0.6875 0.3125 0 0.75 0.375 0
          0.8125 0.3125 0 0.9375 0.4375 0
          0.8125 0.4375 0 0.9375 0.3125 0
          0.875 0.25 0 0.8125 0.1875 0
          0.9375 0.1875 0 1 0.375 0
          1 0.125 0 1 0.5 0
          0.625 0.5 0 0.875 0.5 0
          0.71875 0.21875 0 0.6875 0.25 0
          0.75 0.1875 0 0.84375 0.09375 0
          0.53125 0.46875 0 0.53125 0.40625 0
          0.59375 0.40625 0 0.59375 0.46875 0
          0.625 0.4375 0 0.65625 0.40625 0
          0.71875 0.46875 0 0.65625 0.46875 0
          0.71875 0.40625 0 0.75 0.4375 0
          0.71875 0.28125 0 0.65625 0.34375 0
          0.75 0.3125 0 0.71875 0.34375 0
          0.8125 0.375 0 0.78125 0.34375 0
          0.6875 0.375 0 0.78125 0.40625 0
          0.78125 0.28125 0 0.84375 0.34375 0
          0.8125 0.25 0 0.84375 0.28125 0
          0.96875 0.46875 0 0.90625 0.46875 0
          0.90625 0.40625 0 0.875 0.4375 0
          0.96875 0.40625 0 0.9375 0.375 0
          0.78125 0.46875 0 0.84375 0.46875 0
          0.84375 0.40625 0 0.90625 0.34375 0
          0.96875 0.28125 0 0.96875 0.34375 0
          0.90625 0.28125 0 0.9375 0.25 0
          0.875 0.1875 0 0.84375 0.21875 0
          0.875 0.3125 0 0.90625 0.21875 0
          0.78125 0.21875 0 0.84375 0.15625 0
          0.96875 0.21875 0 0.96875 0.15625 0
          0.90625 0.15625 0 1 0.4375 0
          1 0.3125 0 1 0.0625 0
          1 0.1875 0 0.5625 0.5 0
          0.6875 0.5 0 0.59375 0.53125 0
          0.65625 0.53125 0 0.9375 0.5 0
          0.8125 0.5 0 0.90625 0.53125 0
          0.84375 0.53125 0 1 0.5625 0
          0.96875 0.53125 0 1 0.625 0
          0.5625 0.5625 0 0.6875 0.5625 0
          0.9375 0.5625 0 0.5 0.375 0
          0.5 0.5 0 0.75 0.5 0
          0.8125 0.5625 0 0.65625 0.15625 0
          0.65625 0.21875 0 0.71875 0.15625 0
          0.875 0.0625 0 0.78125 0.03125 0
          0.84375 0.03125 0 0.78125 0.09375 0
          0.75 0.0625 0 0.5625 0.375 0
          0.65625 0.28125 0 0.78125 0.15625 0
          0.9375 0.125 0 0.96875 0.09375 0
          0.59375 0.34375 0 0.53125 0.34375 0
          0.625 0.3125 0 0.8125 0.125 0
          0.9375 0 0 0.96875 0.03125 0
          0.90625 0.09375 0 0.96875 0.59375 0
          0.53125 0.53125 0 0.625 0.5625 0
          0.71875 0.53125 0 0.875 0.5625 0
          0.5 0.4375 0 0.78125 0.53125 0
          <InformationKey name="L2_NORM_RANGE" location="vtkDataArray" length="2">
            <Value index="0">
              0.625
            </Value>
            <Value index="1">
              1.1792476415
            </Value>
          </InformationKey>
        </DataArray>
      </Points>
      <Cells>
        <DataArray type="Int64" Name="connectivity" format="ascii" RangeMin="0" RangeMax="121">
          2 38 24 10 25 38
          0 24 25 38 25 24
          4 110 39 10 39 104
          110 104 39 0 96 95
          10 104 25 0 25 96
          104 96 25 92 120 28
          91 29 120 8 28 29
          120 29 28 4 30 108
          8 103 30 30 103 108
          91 109 29 8 29 103
          109 103 29 4 108 110
          3 113 112 6 27 114
          1 98 27 27 98 114
          1 99 100 1 100 98
          2 24 68 0 26 24
          17 68 26 24 26 68
          0 95 97 6 69 111
          17 105 69 69 105 111
          0 97 26 17 26 105
          97 105 26 6 111 27
          1 27 101 111 101 27
          1 102 99 1 101 102
          92 28 77 8 31 28
          22 77 31 28 31 77
          4 33 30 9 32 33
          8 30 32 33 32 30
          93 78 34 22 35 78
          9 34 35 78 35 34
          8 32 31 9 35 32
          22 31 35 32 35 31
          2 46 38 12 40 46
          10 38 40 46 40 38
          5 42 47 11 43 42
          12 47 43 42 43 47
          4 39 44 10 41 39
          11 44 41 39 41 44
          12 43 40 11 41 43
          10 40 41 43 41 40
          21 81 50 23 51 81
          13 50 51 81 51 50
          93 56 82 14 57 56
          23 82 57 56 57 82
          5 52 58 13 53 52
          14 58 53 52 53 58
          23 57 51 14 53 57
          13 51 53 57 53 51
          4 44 33 11 36 44
          9 33 36 44 36 33
          5 58 42 14 45 58
          11 42 45 58 45 42
          93 34 56 9 37 34
          14 56 37 34 37 56
          11 45 36 14 37 45
          9 36 37 45 37 36
          21 50 73 13 54 50
          19 73 54 50 54 73
          5 59 52 15 55 59
          13 52 55 59 55 52
          7 74 60 19 61 74
          15 60 61 74 61 60
          13 55 54 15 61 55
          19 54 61 55 61 54
          2 68 46 17 48 68
          12 46 48 68 48 46
          6 64 69 16 65 64
          17 69 65 64 65 69
          5 47 66 12 49 47
          16 66 49 47 49 66
          17 65 48 16 49 65
          12 48 49 65 49 48
          3 75 113 20 107 75
          75 107 113 7 70 76
          18 71 70 20 76 71
          70 71 76 6 114 72
          18 72 106 114 106 72
          20 71 107 18 106 71
          71 106 107 5 66 59
          16 62 66 15 59 62
          66 62 59 6 72 64
          18 67 72 16 64 67
          72 67 64 7 60 70
          15 63 60 18 70 63
          60 63 70 16 67 62
          18 63 67 15 62 63
          67 63 62 21 85 86
          87 115 85 90 86 115
          85 115 86 21 86 81
          90 83 86 23 81 83
          86 83 81 93 82 121
          23 84 82 94 121 84
          82 84 121 90 119 83
          94 84 119 23 83 84
          119 84 83 92 77 116
          22 79 77 88 116 79
          77 79 116 93 118 78
          89 80 118 22 78 80
          118 80 78 22 80 79
          89 117 80 88 79 117
          80 117 79
        </DataArray>
        <DataArray type="Int64" Name="offsets" format="ascii" RangeMin="3" RangeMax="591">
          3 6 9 12 15 18
          21 24 27 30 33 36
          39 42 45 48 51 54
          57 60 63 66 69 72
          75 78 81 84 87 90
          93 96 99 102 105 108
          111 114 117 120 123 126
          129 132 135 138 141 144
          147 150 153 156 159 162
          165 168 171 174 177 180
          183 186 189 192 195 198
          201 204 207 210 213 216
          219 222 225 228 231 234
          237 240 243 246 249 252
          255 258 261 264 267 270
          273 276 279 282 285 288
          291 294 297 300 303 306
          309 312 315 318 321 324
          327 330 333 336 339 342
          345 348 351 354 357 360
          363 366 369 372 375 378
          381 384 387 390 393 396
          399 402 405 408 411 414
          417 420 423 426 429 432
          435 438 441 444 447 450
          453 456 459 462 465 468
          471 474 477 480 483 486
          489 492 495 498 501 504
          507 510 513 516 519 522
          525 528 531 534 537 540
          543 546 549 552 555 558
          561 564 567 570 573 576
          579 582 585 588 591
        </DataArray>
        <DataArray type="UInt8" Name="types" format="ascii" RangeMin="5" RangeMax="5">
          5 5 5 5 5 5
          5 5 5 5 5 5
          5 5 5 5 5 5
          5 5 5 5 5 5
          5 5 5 5 5 5
          5 5 5 5 5 5
          5 5 5 5 5 5
          5 5 5 5 5 5
          5 5 5 5 5 5
          5 5 5 5 5 5
          5 5 5 5 5 5
          5 5 5 5 5 5
          5 5 5 5 5 5
          5 5 5 5 5 5
          5 5 5 5 5 5
          5 5 5 5 5 5
          5 5 5 5 5 5
          5 5 5 5 5 5
          5 5 5 5 5 5
          5 5 5 5 5 5
          5 5 5 5 5 5
          5 5 5 5 5 5
          5 5 5 5 5 5
          5 5 5 5 5 5
          5 5 5 5 5 5
          5 5 5 5 5 5
          5 5 5 5 5 5
          5 5 5 5 5 5
          5 5 5 5 5 5
          5 5 5 5 5 5
          5 5 5 5 5 5
          5 5 5 5 5 5
          5 5 5 5 5
        </DataArray>
      </Cells>
    </Piece>
  </UnstructuredGrid>
</VTKFile>
