<?xml version="1.0"?>
<VTKFile type="UnstructuredGrid" version="0.1" byte_order="LittleEndian" header_type="UInt32" compressor="vtkZLibDataCompressor">
  <UnstructuredGrid>
    <Piece NumberOfPoints="43" NumberOfCells="63">
      <PointData>
        <DataArray type="Float64" Name="Temperature" format="ascii" RangeMin="0" RangeMax="1.6765449862443296">
          0 0.1255898513369575 0 0.2920451075818519 0.03335058783415706 0.0983221274962094
          0.25988615865101816 0.22625676329229905 0.0899147785762915 0 0 0.17366213949291665
          0 0.13152859218123855 0 1.3357496959170583 0.8470141773709661 0.7214015066944501
          0.6128403483912502 0.7802128949270746 0.40281177097050375 0.4723214403693214 0.7670353072853032 1.093335037366461
          1.3357496556187936 0.1537061272949484 0 0.6616209164414447 0.31496690268688654 0.4722923689455604
          0 1.0124479204691543 0.4269498992013365 0.2729594109914752 1.1378138123306791 0.27250118981254084
          0.48678845622387323 0.8470141453024658 0 1.1979235736792126 0.6552423600617189 1.5528583584737217
          1.6765449862443296
        </DataArray>
      </PointData>
      <CellData>
        <DataArray type="UInt8" Name="vtkGhostType" format="ascii" RangeMin="0" RangeMax="0">
          0 0 0 0 0 0
          0 0 0 0 0 0
          0 0 0 0 0 0
          0 0 0 0 0 0
          0 0 0 0 0 0
          0 0 0 0 0 0
          0 0 0 0 0 0
          0 0 0 0 0 0
          0 0 0 0 0 0
          0 0 0 0 0 0
          0 0 0
        </DataArray>
      </CellData>
      <Points>
        <DataArray type="Float32" Name="Points" NumberOfComponents="3" format="ascii" RangeMin="0.5" RangeMax="1.118033988749895">
          0 1 0 0.125 0.875 0
          0 0.75 0 0.125 0.625 0
          0.0625 0.9375 0 0.1875 0.9375 0
          0.25 0.875 0 0.125 0.75 0
          0.0625 0.8125 0 0.125 1 0
          0.375 1 0 0.3125 0.9375 0
          0 0.625 0 0.0625 0.6875 0
          0 0.875 0 0.4375 0.5625 0
          0.3125 0.5625 0 0.3125 0.6875 0
          0.25 0.625 0 0.375 0.75 0
          0.1875 0.6875 0 0.1875 0.5625 0
          0.4375 0.8125 0 0.375 0.5 0
          0.4375 0.4375 0 0.0625 0.5625 0
          0 0.5 0 0.25 0.5 0
          0.125 0.5 0 0.25 0.75 0
          0.25 1 0 0.375 0.625 0
          0.375 0.875 0 0.1875 0.8125 0
          0.4375 0.6875 0 0.4375 0.9375 0
          0.3125 0.8125 0 0.3125 0.4375 0
          0.5 1 0 0.5 0.75 0
          0.5 0.875 0 0.5 0.625 0
          0.5 0.5 0
          <InformationKey name="L2_NORM_RANGE" location="vtkDataArray" length="2">
            <Value index="0">
              0.5
            </Value>
            <Value index="1">
              1.1180339887
            </Value>
          </InformationKey>
        </DataArray>
      </Points>
      <Cells>
        <DataArray type="Int64" Name="connectivity" format="ascii" RangeMin="0" RangeMax="42">
          42 15 23 31 16 15
          27 23 16 15 16 23
          29 20 17 3 18 20
          31 17 18 20 18 17
          27 21 28 3 25 21
          28 21 25 31 18 16
          3 21 18 27 16 21
          18 21 16 32 22 35
          39 40 22 35 22 40
          29 17 36 31 19 17
          32 36 19 17 19 36
          42 41 15 31 15 34
          41 34 15 32 19 22
          31 34 19 39 22 34
          19 34 22 0 4 9
          1 5 4 30 9 5
          4 5 9 32 6 36
          1 33 6 36 6 33
          38 10 35 30 11 10
          32 35 11 10 11 35
          1 6 5 32 11 6
          30 5 11 6 11 5
          26 25 12 3 13 25
          2 12 13 25 13 12
          29 33 20 1 7 33
          3 20 7 33 7 20
          0 14 4 2 8 14
          1 4 8 14 8 4
          3 7 13 1 8 7
          2 13 8 7 8 13
          42 23 24 27 37 23
          23 37 24
        </DataArray>
        <DataArray type="Int64" Name="offsets" format="ascii" RangeMin="3" RangeMax="189">
          3 6 9 12 15 18
          21 24 27 30 33 36
          39 42 45 48 51 54
          57 60 63 66 69 72
          75 78 81 84 87 90
          93 96 99 102 105 108
          111 114 117 120 123 126
          129 132 135 138 141 144
          147 150 153 156 159 162
          165 168 171 174 177 180
          183 186 189
        </DataArray>
        <DataArray type="UInt8" Name="types" format="ascii" RangeMin="5" RangeMax="5">
          5 5 5 5 5 5
          5 5 5 5 5 5
          5 5 5 5 5 5
          5 5 5 5 5 5
          5 5 5 5 5 5
          5 5 5 5 5 5
          5 5 5 5 5 5
          5 5 5 5 5 5
          5 5 5 5 5 5
          5 5 5 5 5 5
          5 5 5
        </DataArray>
      </Cells>
    </Piece>
  </UnstructuredGrid>
</VTKFile>
