<?xml version="1.0"?>
<VTKFile type="UnstructuredGrid" version="0.1" byte_order="LittleEndian" header_type="UInt32" compressor="vtkZLibDataCompressor">
  <UnstructuredGrid>
    <Piece NumberOfPoints="67" NumberOfCells="91">
      <PointData>
        <DataArray type="Float64" Name="Temperature" format="ascii" RangeMin="0" RangeMax="6.232161569555083">
          0.4722923689455604 0 1.0124479204691543 0.4269498992013365 0.2729594109914752 1.1378138123306791
          0.27250118981254084 0.48678845622387323 1.0124478553648049 0.8470141453024658 1.552858293313555 0
          1.1979235736792126 0.6552423600617189 1.5528583584737217 1.1611072305522325 0.4125132094862797 1.6765449862443296
          2.6852473469721523 3.6582566875337275 4.987829949790505 2.5554729009032067 3.415724428782422 4.339330705895196
          3.787005169006586 0.1255898513369575 0.0983221274962094 0.25988615865101816 0.22625676329229905 0
          0 0.17366213949291665 1.3357496959170583 0.8470141773709661 0.7214015066944501 0.6128403483912502
          0.7802128949270746 0.40281177097050375 0.7670353072853032 1.093335037366461 1.1979235025466517 1.3357496556187936
          1.1378137271624336 0.7214014328307199 1.7179253732800737 0.7802128090200803 0.6128403015590517 0.4723214259057254
          0.6616209164414447 2.0121319639621458 2.973276422019902 4.3393306926459605 2.494657327875282 5.2876992572347685
          0.9869979749623485 1.7179254384835945 0.6230669966112914 1.7434919607099506 1.7964525079727791 0
          2.649811018716721 4.0514064482649355 5.585009852424433 2.31665481749325 2.0121319922732943 2.9732764386522215
          6.232161569555083
        </DataArray>
      </PointData>
      <CellData>
        <DataArray type="UInt8" Name="vtkGhostType" format="ascii" RangeMin="0" RangeMax="1">
          1 1 1 1 1 0
          1 1 1 1 1 1
          1 1 0 1 1 1
          1 1 1 1 0 1
          1 1 1 1 1 1
          1 1 1 1 1 1
          1 1 1 1 1 1
          1 1 1 1 1 1
          1 1 1 1 1 1
          1 1 1 1 1 1
          1 1 1 1 1 1
          0 0 1 0 1 1
          1 1 1 1 1 1
          1 1 1 0 1 0
          0 1 1 0 1 1
          1
        </DataArray>
      </CellData>
      <Points>
        <DataArray type="Float32" Name="Points" NumberOfComponents="3" format="ascii" RangeMin="0.4419417382415922" RangeMax="1.1792476415070754">
          0.25 0.75 0 0.25 1 0
          0.375 0.625 0 0.375 0.875 0
          0.1875 0.8125 0 0.4375 0.6875 0
          0.4375 0.9375 0 0.3125 0.8125 0
          0.375 0.375 0 0.3125 0.4375 0
          0.5 0.375 0 0.5 1 0
          0.5 0.75 0 0.5 0.875 0
          0.5 0.625 0 0.5625 0.8125 0
          0.5625 0.9375 0 0.5 0.5 0
          0.75 0.75 0 0.75 0.5 0
          0.875 0.625 0 0.6875 0.6875 0
          0.75 0.625 0 0.8125 0.5625 0
          0.8125 0.6875 0 0.125 0.875 0
          0.1875 0.9375 0 0.25 0.875 0
          0.125 0.75 0 0.125 1 0
          0.375 1 0 0.3125 0.9375 0
          0.4375 0.5625 0 0.3125 0.5625 0
          0.3125 0.6875 0 0.25 0.625 0
          0.375 0.75 0 0.1875 0.6875 0
          0.4375 0.8125 0 0.375 0.5 0
          0.5 0.25 0 0.4375 0.4375 0
          0.4375 0.3125 0 0.3125 0.3125 0
          0.5625 0.3125 0 0.375 0.25 0
          0.25 0.375 0 0.1875 0.4375 0
          0.25 0.5 0 0.5625 0.4375 0
          0.6875 0.4375 0 0.8125 0.4375 0
          0.625 0.5 0 0.875 0.5 0
          0.625 0.875 0 0.5625 0.6875 0
          0.6875 0.9375 0 0.6875 0.8125 0
          0.625 0.75 0 0.625 1 0
          0.8125 0.8125 0 0.875 0.75 0
          0.9375 0.6875 0 0.625 0.625 0
          0.5625 0.5625 0 0.6875 0.5625 0
          0.9375 0.5625 0
          <InformationKey name="L2_NORM_RANGE" location="vtkDataArray" length="2">
            <Value index="0">
              0.44194173824
            </Value>
            <Value index="1">
              1.1792476415
            </Value>
          </InformationKey>
        </DataArray>
      </Points>
      <Cells>
        <DataArray type="Int64" Name="connectivity" format="ascii" RangeMin="0" RangeMax="66">
          17 32 39 2 33 32
          0 37 34 2 34 35
          2 35 33 11 6 13
          3 38 6 12 13 38
          6 38 13 0 34 7
          2 36 34 3 7 36
          34 36 7 17 14 32
          12 5 14 2 32 5
          14 5 32 3 36 38
          2 5 36 12 38 5
          36 5 38 1 29 26
          0 7 4 3 27 7
          25 4 27 7 27 4
          11 30 6 1 31 30
          3 6 31 30 31 6
          3 31 27 1 26 31
          0 4 37 25 28 4
          4 28 37 17 41 10
          8 42 41 40 10 42
          41 42 10 8 43 45
          8 45 42 8 46 43
          17 39 41 48 9 39
          8 41 9 39 9 41
          8 9 46 48 47 9
          46 9 47 17 10 49
          40 44 10 10 44 49
          17 49 52 19 52 50
          19 51 53 19 50 51
          11 16 59 54 56 16
          16 56 59 18 60 57
          17 64 14 12 14 55
          64 55 14 18 57 21
          63 21 58 57 58 21
          11 13 16 12 15 13
          54 16 15 13 15 16
          54 15 58 12 55 15
          58 15 55 18 24 60
          20 61 24 24 61 60
          20 66 62 20 62 61
          20 23 66 19 53 23
          66 23 53 18 21 24
          63 22 21 20 24 22
          21 22 24 17 52 64
          19 65 52 20 22 23
          63 65 22 19 23 65
          22 65 23
        </DataArray>
        <DataArray type="Int64" Name="offsets" format="ascii" RangeMin="3" RangeMax="273">
          3 6 9 12 15 18
          21 24 27 30 33 36
          39 42 45 48 51 54
          57 60 63 66 69 72
          75 78 81 84 87 90
          93 96 99 102 105 108
          111 114 117 120 123 126
          129 132 135 138 141 144
          147 150 153 156 159 162
          165 168 171 174 177 180
          183 186 189 192 195 198
          201 204 207 210 213 216
          219 222 225 228 231 234
          237 240 243 246 249 252
          255 258 261 264 267 270
          273
        </DataArray>
        <DataArray type="UInt8" Name="types" format="ascii" RangeMin="5" RangeMax="5">
          5 5 5 5 5 5
          5 5 5 5 5 5
          5 5 5 5 5 5
          5 5 5 5 5 5
          5 5 5 5 5 5
          5 5 5 5 5 5
          5 5 5 5 5 5
          5 5 5 5 5 5
          5 5 5 5 5 5
          5 5 5 5 5 5
          5 5 5 5 5 5
          5 5 5 5 5 5
          5 5 5 5 5 5
          5 5 5 5 5 5
          5 5 5 5 5 5
          5
        </DataArray>
      </Cells>
    </Piece>
  </UnstructuredGrid>
</VTKFile>
