<?xml version="1.0"?>
<VTKFile type="UnstructuredGrid" version="0.1" byte_order="LittleEndian" header_type="UInt32" compressor="vtkZLibDataCompressor">
  <UnstructuredGrid>
    <Piece NumberOfPoints="183" NumberOfCells="306">
      <PointData>
        <DataArray type="Float64" Name="Temperature" format="ascii" RangeMin="0" RangeMax="4.2192753612265195">
          0.4792020048389985 1.2125855183494114 1.001643676631004 0 0.2763181329376029 0.49353939679377246
          0.2635131237497204 0.7771588040835948 0.27683946987726626 0.03358427793510628 0.2293911805830262 1.3504143881608839
          1.1514226236459784 0.7308604419527467 0.6642960396483137 1.1763270318221 1.7364997254875278 0.41865330265385686
          1.817324579626136 1.5239650580677568 0.6340934221546533 0 0 1.7278968873119604
          0.1547498367007801 0.1251313580744385 0.3679764707917181 0.22225417460036956 0.4554617411834762 0.5385515789636017
          0.49459076819552095 0.3792398479733137 0.473782817052254 0.3701693184528054 0.6244286976790392 0.6336615584745116
          0.19277473670480264 0.2785800761160925 0.3424317794862869 0.22993640334612753 0.1734135720838569 0.9834698560453174
          0.7350973604794149 0.5937176185719037 0.7943972562377465 0.9837520825558891 0.37166610383146054 0.19522690472481438
          0.3494299661084533 0.25993166983669835 0.008884350759307415 0.02541092096064546 0.07321106139266866 0.06610628076742307
          0.024877653627803687 0.06397321143754647 0.2677359307678843 0.3142270705947756 0.1821129365863076 0.1547470077040132
          0.18670584919661853 1.5207558498081941 1.4646292034678088 1.1843628606490406 1.274873616359894 1.0855543721205196
          1.0945312001862386 1.1920145322412772 1.3540180761075118 0.9631735610488886 0.5993071688247992 0.8730179204047657
          0.7682021698777509 0.5607844046906574 0.6809613837036738 0.3407280889432767 0.9584298954715856 0.5604140241085304
          0.9042579078218367 1.1093122403369813 0.8160255409978093 1.2089413327945129 1.4808435213350732 1.4864697627215613
          1.4639632273165402 1.6614301618084502 2.028474542311068 1.91944485872701 1.790177845514058 0.19033362894978859
          0.6881648683487023 0.23374756420840762 0.5143838298830958 2.118464193539215 2.184316659007651 1.4412995893122038
          1.8120071676477691 1.2321746243594527 1.674708038947755 1.9030809035068914 2.0725069896979047 1.3017992179736546
          1.044892860651719 0.3558579409916227 0.28760759368895117 0.8460621682863226 0.7873852181748721 0
          0.7517833999480842 0 0.5675123213984071 0 0 1.0909487484530007
          2.1409376088414156 1.277283589599856 2.92596466700536 3.1419553863167202 0.44994189517088035 1.3610823045520137
          0.44503772854216306 1.4183447804881881 0 0.43282887089154215 0.12722734974553532 0.29600187061289535
          0.1760738624049426 0.7903469177001263 0.09963957974525332 0.09110552908015844 0.6208648837805036 0.4083980777980554
          0.13331790057132836 0 0 0 0 1.7672582106642656
          0.9908125738161865 0 2.337536270086719 2.414661453940869 2.03085464766909 2.5793315711315343
          2.6875477350412518 4.210970905753528 4.1981082931959595 1.0246559411383824 0.8574885137489419 1.569478159361331
          1.6930138963813308 1.2299565134234112 1.3758444649853947 0.9811863308048967 0.29388545316883474 0.10007029054285128
          0.135773721268034 0.6243780935769242 0.9252194944748525 0.12192526832796065 0.041924746501618815 0.11659303831535436
          0.039257966517744616 0.11442525810180383 0.8093826767236598 0.510974045023864 0.356496173188588 0.21156150351251873
          0 0 0 2.2201931767103944 2.1734811506261176 1.6469479088254766
          2.1900395330057276 1.7958820782976077 2.468934606041342 2.5891163821334824 3.279690795101071 4.2192753612265195
          2.63394498598663 0.9447586574359815 1.6617975256427056
        </DataArray>
      </PointData>
      <CellData>
        <DataArray type="UInt8" Name="vtkGhostType" format="ascii" RangeMin="0" RangeMax="1">
          0 0 0 0 0 0
          0 0 0 0 0 0
          0 0 0 0 0 0
          0 0 0 0 0 0
          0 0 0 0 0 0
          0 0 0 0 0 0
          0 0 0 0 0 0
          0 0 0 0 0 0
          0 0 0 0 0 0
          0 0 0 0 0 0
          0 0 0 0 0 0
          0 0 0 0 0 0
          0 0 0 0 0 0
          0 0 0 0 0 0
          0 0 0 0 0 0
          0 0 0 0 0 0
          0 0 0 0 0 0
          0 0 0 0 0 0
          0 0 0 0 0 0
          0 0 0 0 0 0
          0 0 0 0 0 0
          0 0 1 1 1 0
          0 0 0 1 1 1
          0 0 0 0 0 0
          0 0 0 0 0 0
          0 0 0 0 0 0
          0 0 0 0 0 0
          0 0 0 0 0 0
          0 0 0 0 0 0
          0 0 0 0 0 0
          0 0 0 0 0 0
          0 0 0 0 0 0
          0 0 0 0 0 0
          0 0 0 0 0 0
          0 0 0 0 0 0
          0 0 0 0 0 0
          0 0 0 0 0 0
          0 0 0 0 0 0
          0 0 0 0 0 0
          0 0 0 0 0 0
          0 0 0 0 0 0
          0 0 0 0 0 0
          0 0 0 0 0 0
          0 0 0 0 0 0
          0 0 0 0 0 0
          0 0 0 0 0 0
          0 0 0 0 0 0
          0 0 0 0 0 0
          0 0 0 0 0 0
          0 0 0 0 0 0
          0 0 0 0 0 0
        </DataArray>
      </CellData>
      <Points>
        <DataArray type="Float32" Name="Points" NumberOfComponents="3" format="ascii" RangeMin="0" RangeMax="1.0077822185373186">
          0.25 0.25 0 0.5 0.25 0
          0.625 0.125 0 0.75 0 0
          0.4375 0.0625 0 0.3125 0.1875 0
          0.25 0.125 0 0.4375 0.1875 0
          0.1875 0.1875 0 0.0625 0.0625 0
          0.125 0.25 0 0.4375 0.4375 0
          0.4375 0.3125 0 0.3125 0.3125 0
          0.5 0.125 0 0.5625 0.1875 0
          0.5625 0.3125 0 0.5625 0.0625 0
          0.625 0.25 0 0.75 0.125 0
          0.6875 0.0625 0 0.875 0 0
          0.625 0 0 0.9375 0.0625 0
          0.46875 0.03125 0 0.40625 0.03125 0
          0.40625 0.09375 0 0.375 0.0625 0
          0.46875 0.09375 0 0.4375 0.125 0
          0.28125 0.21875 0 0.25 0.1875 0
          0.34375 0.15625 0 0.28125 0.15625 0
          0.3125 0.25 0 0.34375 0.21875 0
          0.1875 0.125 0 0.21875 0.15625 0
          0.3125 0.125 0 0.28125 0.09375 0
          0.21875 0.09375 0 0.46875 0.21875 0
          0.46875 0.15625 0 0.40625 0.15625 0
          0.40625 0.21875 0 0.4375 0.25 0
          0.21875 0.21875 0 0.15625 0.15625 0
          0.1875 0.25 0 0.15625 0.21875 0
          0.03125 0.03125 0 0.09375 0.03125 0
          0.09375 0.09375 0 0.125 0.0625 0
          0.03125 0.09375 0 0.0625 0.125 0
          0.125 0.3125 0 0.15625 0.28125 0
          0.125 0.1875 0 0.09375 0.21875 0
          0.09375 0.28125 0 0.46875 0.46875 0
          0.46875 0.40625 0 0.40625 0.40625 0
          0.4375 0.375 0 0.375 0.4375 0
          0.40625 0.34375 0 0.46875 0.28125 0
          0.46875 0.34375 0 0.40625 0.28125 0
          0.28125 0.28125 0 0.34375 0.34375 0
          0.34375 0.28125 0 0.25 0.3125 0
          0.28125 0.34375 0 0.5 0.0625 0
          0.5 0.1875 0 0.53125 0.09375 0
          0.53125 0.15625 0 0.59375 0.15625 0
          0.5625 0.125 0 0.53125 0.21875 0
          0.59375 0.21875 0 0.5625 0.25 0
          0.53125 0.28125 0 0.53125 0.34375 0
          0.59375 0.34375 0 0.5625 0.375 0
          0.59375 0.28125 0 0.53125 0.03125 0
          0.59375 0.09375 0 0.59375 0.03125 0
          0.625 0.0625 0 0.625 0.3125 0
          0.65625 0.28125 0 0.625 0.1875 0
          0.65625 0.21875 0 0.6875 0.125 0
          0.71875 0.15625 0 0.8125 0.125 0
          0.78125 0.15625 0 0.78125 0.09375 0
          0.71875 0.09375 0 0.71875 0.03125 0
          0.65625 0.03125 0 0.65625 0.09375 0
          0.75 0.0625 0 0.9375 0 0
          0.90625 0.03125 0 0.8125 0 0
          0.84375 0.03125 0 0.5625 0 0
          0.6875 0 0 0.96875 0.03125 0
          0.90625 0.09375 0 0.875 0.0625 0
          0.96875 0.09375 0 0.9375 0.125 0
          0.21875 0.28125 0 0.65625 0.15625 0
          0.78125 0.03125 0 0.5 0.3125 0
          0.5 0 0 0.375 0.125 0
          0.125 0.125 0 0.125 0.375 0
          0.3125 0.0625 0 0.375 0.25 0
          0.1875 0.0625 0 0.0625 0.1875 0
          0.25 0.375 0 0.1875 0.3125 0
          0.0625 0.3125 0 0.375 0 0
          0.125 0 0 0 0 0
          0 0.125 0 0.6875 0.1875 0
          0.8125 0.0625 0 1 0 0
          0.625 0.375 0 0.875 0.125 0
          0.5625 0.4375 0 0.6875 0.3125 0
          0.8125 0.1875 0 0.9375 0.1875 0
          1 0.125 0 0.375 0.375 0
          0.3125 0.4375 0 0.5 0.375 0
          0.5 0.5 0 0.40625 0.46875 0
          0.4375 0.5 0 0.34375 0.46875 0
          0.34375 0.09375 0 0.34375 0.03125 0
          0.25 0.0625 0 0.375 0.1875 0
          0.375 0.3125 0 0.15625 0.09375 0
          0.15625 0.03125 0 0.09375 0.15625 0
          0.03125 0.15625 0 0.0625 0.25 0
          0.3125 0.375 0 0.21875 0.34375 0
          0.15625 0.34375 0 0.09375 0.34375 0
          0.4375 0 0 0.0625 0 0
          0 0.0625 0 0.6875 0.25 0
          0.75 0.1875 0 0.84375 0.09375 0
          0.59375 0.40625 0 0.53125 0.40625 0
          0.65625 0.34375 0 0.84375 0.15625 0
          0.90625 0.15625 0 0.96875 0.15625 0
          1 0.0625 0 0.34375 0.40625 0
          0.5 0.4375 0
          <InformationKey name="L2_NORM_RANGE" location="vtkDataArray" length="2">
            <Value index="0">
              0
            </Value>
            <Value index="1">
              1.0077822185
            </Value>
          </InformationKey>
        </DataArray>
      </Points>
      <Cells>
        <DataArray type="Int64" Name="connectivity" format="ascii" RangeMin="0" RangeMax="182">
          122 24 168 4 25 24
          133 168 25 24 25 168
          123 154 26 126 27 154
          4 26 27 154 27 26
          4 27 25 126 155 27
          133 25 155 27 155 25
          0 46 30 8 31 46
          5 30 31 46 31 30
          124 36 47 6 37 36
          8 47 37 36 37 47
          123 32 38 5 33 32
          6 38 33 32 33 38
          8 37 31 6 33 37
          5 31 33 37 33 31
          135 169 50 134 51 169
          9 50 51 169 51 50
          124 52 159 9 53 52
          128 159 53 52 53 159
          134 160 51 128 53 160
          9 51 53 160 53 51
          123 38 154 6 39 38
          126 154 39 38 39 154
          124 159 36 128 40 159
          6 36 40 159 40 36
          6 40 39 128 156 40
          126 39 156 40 156 39
          150 61 182 11 62 61
          149 182 62 61 62 182
          147 66 63 12 64 66
          11 63 64 66 64 63
          1 121 67 149 68 121
          12 67 68 121 68 67
          11 64 62 12 68 64
          149 62 68 64 68 62
          0 30 70 5 34 30
          13 70 34 30 34 70
          123 157 32 127 35 157
          5 32 35 157 35 32
          147 71 158 13 72 71
          127 158 72 71 72 158
          5 35 34 127 72 35
          13 34 72 35 72 34
          122 75 24 14 28 75
          4 24 28 75 28 24
          1 41 76 7 42 41
          14 76 42 41 42 76
          123 26 43 4 29 26
          7 43 29 26 29 43
          14 42 28 7 29 42
          4 28 29 42 29 28
          147 158 66 127 69 158
          12 66 69 158 69 66
          123 43 157 7 44 43
          127 157 44 43 44 157
          1 67 41 12 45 67
          7 41 45 67 45 41
          127 44 69 7 45 44
          12 69 45 44 45 69
          0 70 118 13 73 70
          131 118 73 70 73 118
          147 164 71 130 74 164
          13 71 74 164 74 71
          13 74 73 130 165 74
          131 73 165 74 165 73
          150 152 61 11 61 151
          152 151 61 147 63 181
          11 65 63 148 181 65
          63 65 181 148 65 153
          11 151 65 153 65 151
          135 50 170 9 54 50
          136 170 54 50 54 170
          124 161 52 129 55 161
          9 52 55 161 55 52
          9 55 54 129 162 55
          136 54 162 55 162 54
          0 118 46 131 48 118
          8 46 48 118 48 46
          125 56 166 10 57 56
          131 166 57 56 57 166
          124 47 58 8 49 47
          10 58 49 47 49 58
          131 57 48 10 49 57
          8 48 49 57 49 48
          124 58 161 10 59 58
          129 161 59 58 59 161
          125 167 56 132 60 167
          10 56 60 167 60 56
          10 60 59 132 163 60
          129 59 163 60 163 59
          122 89 75 17 77 89
          14 75 77 89 77 75
          2 79 90 15 80 79
          17 90 80 79 80 90
          1 76 81 14 78 76
          15 81 78 76 78 81
          17 80 77 15 78 80
          14 77 78 80 78 77
          140 93 176 18 94 93
          143 176 94 93 94 176
          2 119 95 137 96 119
          18 95 96 119 96 95
          143 94 171 18 96 94
          137 171 96 94 96 171
          1 84 121 16 85 84
          149 121 85 84 85 121
          140 174 86 142 87 174
          16 86 87 174 87 86
          149 85 175 16 87 85
          142 175 87 85 87 175
          2 95 79 18 82 95
          15 79 82 95 82 79
          140 86 93 16 88 86
          18 93 88 86 88 93
          1 81 84 15 83 81
          16 84 83 81 83 84
          18 88 82 16 83 88
          15 82 83 88 83 82
          139 113 107 23 108 113
          21 107 108 113 108 107
          141 173 114 138 115 173
          23 114 115 173 115 114
          3 109 120 21 110 109
          138 120 110 109 110 120
          23 115 108 138 110 115
          21 108 110 115 110 108
          2 97 119 19 98 97
          137 119 98 97 98 119
          141 177 99 144 100 177
          19 99 100 177 100 99
          137 98 172 19 100 98
          144 172 100 98 100 172
          122 111 89 22 91 111
          17 89 91 111 91 89
          3 103 112 20 104 103
          22 112 104 103 104 112
          2 90 105 17 92 90
          20 105 92 90 92 105
          22 104 91 20 92 104
          17 91 92 104 92 91
          141 99 173 19 101 99
          138 173 101 99 101 173
          2 105 97 20 102 105
          19 97 102 105 102 97
          3 120 103 138 106 120
          20 103 106 120 106 103
          19 102 101 20 106 102
          138 101 106 102 106 101
          139 180 113 146 116 180
          23 113 116 180 116 113
          141 114 178 23 117 114
          145 178 117 114 117 178
          146 179 116 145 117 179
          23 116 117 179 117 116
        </DataArray>
        <DataArray type="Int64" Name="offsets" format="ascii" RangeMin="3" RangeMax="918">
          3 6 9 12 15 18
          21 24 27 30 33 36
          39 42 45 48 51 54
          57 60 63 66 69 72
          75 78 81 84 87 90
          93 96 99 102 105 108
          111 114 117 120 123 126
          129 132 135 138 141 144
          147 150 153 156 159 162
          165 168 171 174 177 180
          183 186 189 192 195 198
          201 204 207 210 213 216
          219 222 225 228 231 234
          237 240 243 246 249 252
          255 258 261 264 267 270
          273 276 279 282 285 288
          291 294 297 300 303 306
          309 312 315 318 321 324
          327 330 333 336 339 342
          345 348 351 354 357 360
          363 366 369 372 375 378
          381 384 387 390 393 396
          399 402 405 408 411 414
          417 420 423 426 429 432
          435 438 441 444 447 450
          453 456 459 462 465 468
          471 474 477 480 483 486
          489 492 495 498 501 504
          507 510 513 516 519 522
          525 528 531 534 537 540
          543 546 549 552 555 558
          561 564 567 570 573 576
          579 582 585 588 591 594
          597 600 603 606 609 612
          615 618 621 624 627 630
          633 636 639 642 645 648
          651 654 657 660 663 666
          669 672 675 678 681 684
          687 690 693 696 699 702
          705 708 711 714 717 720
          723 726 729 732 735 738
          741 744 747 750 753 756
          759 762 765 768 771 774
          777 780 783 786 789 792
          795 798 801 804 807 810
          813 816 819 822 825 828
          831 834 837 840 843 846
          849 852 855 858 861 864
          867 870 873 876 879 882
          885 888 891 894 897 900
          903 906 909 912 915 918
        </DataArray>
        <DataArray type="UInt8" Name="types" format="ascii" RangeMin="5" RangeMax="5">
          5 5 5 5 5 5
          5 5 5 5 5 5
          5 5 5 5 5 5
          5 5 5 5 5 5
          5 5 5 5 5 5
          5 5 5 5 5 5
          5 5 5 5 5 5
          5 5 5 5 5 5
          5 5 5 5 5 5
          5 5 5 5 5 5
          5 5 5 5 5 5
          5 5 5 5 5 5
          5 5 5 5 5 5
          5 5 5 5 5 5
          5 5 5 5 5 5
          5 5 5 5 5 5
          5 5 5 5 5 5
          5 5 5 5 5 5
          5 5 5 5 5 5
          5 5 5 5 5 5
          5 5 5 5 5 5
          5 5 5 5 5 5
          5 5 5 5 5 5
          5 5 5 5 5 5
          5 5 5 5 5 5
          5 5 5 5 5 5
          5 5 5 5 5 5
          5 5 5 5 5 5
          5 5 5 5 5 5
          5 5 5 5 5 5
          5 5 5 5 5 5
          5 5 5 5 5 5
          5 5 5 5 5 5
          5 5 5 5 5 5
          5 5 5 5 5 5
          5 5 5 5 5 5
          5 5 5 5 5 5
          5 5 5 5 5 5
          5 5 5 5 5 5
          5 5 5 5 5 5
          5 5 5 5 5 5
          5 5 5 5 5 5
          5 5 5 5 5 5
          5 5 5 5 5 5
          5 5 5 5 5 5
          5 5 5 5 5 5
          5 5 5 5 5 5
          5 5 5 5 5 5
          5 5 5 5 5 5
          5 5 5 5 5 5
          5 5 5 5 5 5
        </DataArray>
      </Cells>
    </Piece>
  </UnstructuredGrid>
</VTKFile>
