<?xml version="1.0"?>
<VTKFile type="UnstructuredGrid" version="0.1" byte_order="LittleEndian" header_type="UInt32" compressor="vtkZLibDataCompressor">
  <UnstructuredGrid>
    <Piece NumberOfPoints="40" NumberOfCells="58">
      <PointData>
        <DataArray type="Float64" Name="Temperature" format="ascii" RangeMin="0" RangeMax="7.484765732337572">
          1.7434919144445657 0.9656475549942901 2.6852473069015512 0 2.3166547758426512 4.9878299303274884
          2.3573202434197658 6.13245165321297 2.0121319639621458 2.973276422019902 2.555472855098577 3.415724401738467
          3.7870051390507014 6.232161559382233 4.3393306926459605 5.585009830231466 4.051406420183834 2.6498109856793146
          4.175987226301829 7.16053881885906 4.154958091449205 7.484765732337572 2.494657327875282 5.2876992572347685
          0.9869979376577861 0 1.7179253732800737 1.7964524504395252 1.4974574803128262 0.6230669790025254
          0 1.6300227076992309 7.160538835936068 2.0121319922732943 2.9732764386522215 6.232161569555083
          1.552858293313555 1.6765449862443296 3.6582566875337275 4.339330705895196
        </DataArray>
      </PointData>
      <CellData>
        <DataArray type="UInt8" Name="vtkGhostType" format="ascii" RangeMin="0" RangeMax="1">
          0 1 1 1 0 1
          1 1 1 1 1 1
          0 1 1 1 1 1
          1 0 0 0 0 0
          0 0 0 0 0 0
          0 0 0 0 0 0
          0 0 0 0 0 0
          0 1 0 1 1 0
          0 0 0 0 0 0
          0 0 0 0
        </DataArray>
      </CellData>
      <Points>
        <DataArray type="Float32" Name="Points" NumberOfComponents="3" format="ascii" RangeMin="0.625" RangeMax="1.1792476415070754">
          0.6875 0.1875 0 0.8125 0.0625 0
          0.75 0.25 0 1 0 0
          0.625 0.375 0 0.875 0.375 0
          0.875 0.125 0 1 0.25 0
          0.5625 0.4375 0 0.6875 0.4375 0
          0.6875 0.3125 0 0.75 0.375 0
          0.8125 0.3125 0 0.9375 0.4375 0
          0.8125 0.4375 0 0.9375 0.3125 0
          0.875 0.25 0 0.8125 0.1875 0
          0.9375 0.1875 0 1 0.375 0
          1 0.125 0 1 0.5 0
          0.625 0.5 0 0.875 0.5 0
          0.625 0.125 0 0.75 0 0
          0.5625 0.3125 0 0.625 0.25 0
          0.75 0.125 0 0.6875 0.0625 0
          0.875 0 0 0.9375 0.0625 0
          1 0.625 0 0.5625 0.5625 0
          0.6875 0.5625 0 0.9375 0.5625 0
          0.5 0.375 0 0.5 0.5 0
          0.75 0.5 0 0.8125 0.5625 0
          <InformationKey name="L2_NORM_RANGE" location="vtkDataArray" length="2">
            <Value index="0">
              0.625
            </Value>
            <Value index="1">
              1.1792476415
            </Value>
          </InformationKey>
        </DataArray>
      </Points>
      <Cells>
        <DataArray type="Int64" Name="connectivity" format="ascii" RangeMin="0" RangeMax="39">
          2 10 0 4 27 10
          24 0 27 10 27 0
          37 36 8 4 8 26
          36 26 8 4 26 27
          3 31 30 6 1 31
          25 30 1 31 1 30
          2 0 17 24 28 0
          6 17 28 0 28 17
          6 28 1 25 1 29
          28 29 1 37 8 22
          4 9 8 38 22 9
          8 9 22 2 12 10
          5 11 12 4 10 11
          12 11 10 21 23 13
          38 14 23 5 13 14
          23 14 13 4 11 9
          5 14 11 38 9 14
          11 14 9 21 13 19
          5 15 13 7 19 15
          13 15 19 2 17 12
          6 16 17 5 12 16
          17 16 12 3 20 31
          7 18 20 6 31 18
          20 18 31 5 16 15
          6 18 16 7 15 18
          16 18 15 21 32 35
          21 35 23 38 23 39
          35 39 23 37 22 33
          38 34 22 22 34 33
        </DataArray>
        <DataArray type="Int64" Name="offsets" format="ascii" RangeMin="3" RangeMax="174">
          3 6 9 12 15 18
          21 24 27 30 33 36
          39 42 45 48 51 54
          57 60 63 66 69 72
          75 78 81 84 87 90
          93 96 99 102 105 108
          111 114 117 120 123 126
          129 132 135 138 141 144
          147 150 153 156 159 162
          165 168 171 174
        </DataArray>
        <DataArray type="UInt8" Name="types" format="ascii" RangeMin="5" RangeMax="5">
          5 5 5 5 5 5
          5 5 5 5 5 5
          5 5 5 5 5 5
          5 5 5 5 5 5
          5 5 5 5 5 5
          5 5 5 5 5 5
          5 5 5 5 5 5
          5 5 5 5 5 5
          5 5 5 5 5 5
          5 5 5 5
        </DataArray>
      </Cells>
    </Piece>
  </UnstructuredGrid>
</VTKFile>
