<?xml version="1.0"?>
<VTKFile type="UnstructuredGrid" version="0.1" byte_order="LittleEndian" header_type="UInt32" compressor="vtkZLibDataCompressor">
  <UnstructuredGrid>
    <Piece NumberOfPoints="19" NumberOfCells="24">
      <PointData>
        <DataArray type="Float64" Name="Temperature" format="ascii" RangeMin="0" RangeMax="2.5617528900740347">
          0.44566943655858676 0 0.40420406229836353 0.11922985852035596 0.9624261973053052 0.27598429477648206
          0 1.1398968129301434 0.9332249255622589 0 0 1.6058707984463365
          0 2.5617528900740347 0 0 0.6270177448498657 2.2284820680728443
          2.158262751726047
        </DataArray>
      </PointData>
      <CellData>
        <DataArray type="UInt8" Name="vtkGhostType" format="ascii" RangeMin="0" RangeMax="0">
          0 0 0 0 0 0
          0 0 0 0 0 0
          0 0 0 0 0 0
          0 0 0 0 0 0
        </DataArray>
      </CellData>
      <Points>
        <DataArray type="Float32" Name="Points" NumberOfComponents="3" format="ascii" RangeMin="0" RangeMax="1">
          0.25 0.25 0 0.5 0 0
          0.375 0.125 0 0.125 0.125 0
          0.375 0.375 0 0.125 0.375 0
          0.25 0 0 0.5 0.25 0
          0.625 0.125 0 0.75 0 0
          0 0 0 0.5 0.5 0
          0 0.5 0 0.75 0.25 0
          1 0 0 0 0.25 0
          0.25 0.5 0 0.625 0.375 0
          0.875 0.125 0
          <InformationKey name="L2_NORM_RANGE" location="vtkDataArray" length="2">
            <Value index="0">
              0
            </Value>
            <Value index="1">
              1
            </Value>
          </InformationKey>
        </DataArray>
      </Points>
      <Cells>
        <DataArray type="Int64" Name="connectivity" format="ascii" RangeMin="0" RangeMax="18">
          1 2 6 0 3 2
          10 6 3 2 3 6
          11 4 7 0 2 4
          1 7 2 4 2 7
          12 5 16 0 4 5
          11 16 4 5 4 16
          10 3 15 0 5 3
          12 15 5 3 5 15
          1 8 7 13 17 8
          11 7 17 8 17 7
          14 18 9 13 8 18
          1 9 8 18 8 9
        </DataArray>
        <DataArray type="Int64" Name="offsets" format="ascii" RangeMin="3" RangeMax="72">
          3 6 9 12 15 18
          21 24 27 30 33 36
          39 42 45 48 51 54
          57 60 63 66 69 72
        </DataArray>
        <DataArray type="UInt8" Name="types" format="ascii" RangeMin="5" RangeMax="5">
          5 5 5 5 5 5
          5 5 5 5 5 5
          5 5 5 5 5 5
          5 5 5 5 5 5
        </DataArray>
      </Cells>
    </Piece>
  </UnstructuredGrid>
</VTKFile>
