<?xml version="1.0"?>
<VTKFile type="UnstructuredGrid" version="0.1" byte_order="LittleEndian" header_type="UInt32" compressor="vtkZLibDataCompressor">
  <UnstructuredGrid>
    <Piece NumberOfPoints="40" NumberOfCells="56">
      <PointData>
        <DataArray type="Float64" Name="Temperature" format="ascii" RangeMin="0" RangeMax="7.484765732337572">
          0 0.9869979749623485 0 2.357320264477624 6.132451676506688 1.7179254384835945
          0.6230669966112914 1.7434919607099506 1.4974575115726023 1.7964525079727791 0 0
          0.9656475694860976 2.649811018716721 1.6300227190118721 4.175987250696299 4.0514064482649355 4.154958110176324
          7.160538835936068 5.585009852424433 2.31665481749325 2.0121319922732943 2.9732764386522215 6.232161569555083
          7.484765732337572 2.494657327875282 5.2876992572347685 0 1.1979235736792126 1.5528583584737217
          1.1611072305522325 0.4125132094862797 1.6765449862443296 2.6852473469721523 3.6582566875337275 4.987829949790505
          2.5554729009032067 3.415724428782422 4.339330705895196 3.787005169006586
        </DataArray>
      </PointData>
      <CellData>
        <DataArray type="UInt8" Name="vtkGhostType" format="ascii" RangeMin="0" RangeMax="1">
          0 0 0 0 0 0
          0 0 0 0 0 0
          0 0 0 0 0 0
          0 0 0 0 0 0
          0 0 0 0 0 0
          0 0 0 0 0 0
          0 1 0 0 0 0
          0 0 0 1 0 1
          0 1 1 0 1 0
          0 0
        </DataArray>
      </CellData>
      <Points>
        <DataArray type="Float32" Name="Points" NumberOfComponents="3" format="ascii" RangeMin="0.7071067811865476" RangeMax="1.4142135623730951">
          1 1 0 0.625 0.875 0
          0.75 1 0 0.875 0.875 0
          1 0.75 0 0.5625 0.6875 0
          0.6875 0.9375 0 0.6875 0.8125 0
          0.75 0.875 0 0.625 0.75 0
          0.625 1 0 0.875 1 0
          0.8125 0.9375 0 0.8125 0.8125 0
          0.9375 0.9375 0 0.9375 0.8125 0
          0.875 0.75 0 1 0.875 0
          1 0.625 0 0.9375 0.6875 0
          0.625 0.625 0 0.5625 0.5625 0
          0.6875 0.5625 0 0.9375 0.5625 0
          1 0.5 0 0.625 0.5 0
          0.875 0.5 0 0.5 1 0
          0.5 0.75 0 0.5 0.625 0
          0.5625 0.8125 0 0.5625 0.9375 0
          0.5 0.5 0 0.75 0.75 0
          0.75 0.5 0 0.875 0.625 0
          0.6875 0.6875 0 0.75 0.625 0
          0.8125 0.5625 0 0.8125 0.6875 0
          <InformationKey name="L2_NORM_RANGE" location="vtkDataArray" length="2">
            <Value index="0">
              0.70710678119
            </Value>
            <Value index="1">
              1.4142135624
            </Value>
          </InformationKey>
        </DataArray>
      </Points>
      <Cells>
        <DataArray type="Int64" Name="connectivity" format="ascii" RangeMin="0" RangeMax="39">
          27 31 10 1 6 31
          2 10 6 31 6 10
          33 13 7 3 8 13
          1 7 8 13 8 7
          0 11 14 2 12 11
          3 14 12 11 12 14
          1 8 6 3 12 8
          2 6 12 8 12 6
          32 21 29 20 5 21
          28 29 5 21 5 29
          33 7 36 1 9 7
          20 36 9 7 9 36
          1 31 30 20 9 5
          1 30 9 28 5 30
          9 30 5 0 14 17
          3 15 14 4 17 15
          14 15 17 33 39 13
          35 16 39 3 13 16
          39 16 13 24 18 23
          4 19 18 35 23 19
          18 19 23 3 16 15
          35 19 16 4 15 19
          16 19 15 24 23 26
          35 38 23 23 38 26
          20 37 36 32 25 21
          34 22 25 20 21 22
          25 22 21 20 22 37
          34 38 22 37 22 38
        </DataArray>
        <DataArray type="Int64" Name="offsets" format="ascii" RangeMin="3" RangeMax="168">
          3 6 9 12 15 18
          21 24 27 30 33 36
          39 42 45 48 51 54
          57 60 63 66 69 72
          75 78 81 84 87 90
          93 96 99 102 105 108
          111 114 117 120 123 126
          129 132 135 138 141 144
          147 150 153 156 159 162
          165 168
        </DataArray>
        <DataArray type="UInt8" Name="types" format="ascii" RangeMin="5" RangeMax="5">
          5 5 5 5 5 5
          5 5 5 5 5 5
          5 5 5 5 5 5
          5 5 5 5 5 5
          5 5 5 5 5 5
          5 5 5 5 5 5
          5 5 5 5 5 5
          5 5 5 5 5 5
          5 5 5 5 5 5
          5 5
        </DataArray>
      </Cells>
    </Piece>
  </UnstructuredGrid>
</VTKFile>
