<?xml version="1.0"?>
<VTKFile type="UnstructuredGrid" version="0.1" byte_order="LittleEndian" header_type="UInt32" compressor="vtkZLibDataCompressor">
  <UnstructuredGrid>
    <Piece NumberOfPoints="45" NumberOfCells="62">
      <PointData>
        <DataArray type="Float64" Name="Temperature" format="ascii" RangeMin="0" RangeMax="1.1378137271624336">
          0.1537061272949484 0 0.42694984446299855 0.12558982974678198 0.29204508828126735 0
          0.1736621145320851 0.7802128090200803 0.09832211063772345 0.08991476340503148 0.6128403015590517 0.15370612219133617
          0.4723214259057254 0.402811727900402 0.13152857712795263 0 0 0
          0 0.6616209164414447 0 0.31496690268688654 0 0
          0.2920451075818519 0 0.13152859218123855 0.8470141773709661 0.4723214403693214 1.093335037366461
          0.4722923115065357 0.27250116252462103 0.4867883897012735 0.2598861194893218 0.7670352350937982 0.2729593710705175
          0.03335058148306727 0.22625673093051937 1.1378137271624336 0.7214014328307199 0.6552423147268462 0.4125131876007412
          0 1.0124478553648049 0.8470141453024658
        </DataArray>
      </PointData>
      <CellData>
        <DataArray type="UInt8" Name="vtkGhostType" format="ascii" RangeMin="0" RangeMax="1">
          1 0 1 1 1 1
          1 1 1 1 1 0
          1 1 1 1 0 1
          1 1 1 0 1 1
          1 1 1 1 1 1
          1 0 0 0 0 1
          1 0 1 1 0 0
          0 0 1 1 0 1
          1 1 1 1 0 0
          0 0 1 1 0 1
          1 1
        </DataArray>
      </CellData>
      <Points>
        <DataArray type="Float32" Name="Points" NumberOfComponents="3" format="ascii" RangeMin="0" RangeMax="0.6903350635742038">
          0.0625 0.5625 0 0.5 0 0
          0.375 0.125 0 0.125 0.125 0
          0.125 0.375 0 0.25 0 0
          0.3125 0.0625 0 0.375 0.25 0
          0.1875 0.0625 0 0.0625 0.1875 0
          0.25 0.375 0 0.0625 0.4375 0
          0.1875 0.4375 0 0.1875 0.3125 0
          0.0625 0.3125 0 0.375 0 0
          0.125 0 0 0 0.5 0
          0 0 0 0.25 0.5 0
          0 0.25 0 0.125 0.5 0
          0 0.125 0 0 0.375 0
          0.125 0.625 0 0 0.625 0
          0.0625 0.6875 0 0.3125 0.5625 0
          0.1875 0.5625 0 0.375 0.5 0
          0.25 0.25 0 0.4375 0.0625 0
          0.3125 0.1875 0 0.25 0.125 0
          0.4375 0.1875 0 0.1875 0.1875 0
          0.0625 0.0625 0 0.125 0.25 0
          0.4375 0.3125 0 0.3125 0.3125 0
          0.5 0.125 0 0.5625 0.0625 0
          0.625 0 0 0.375 0.375 0
          0.3125 0.4375 0
          <InformationKey name="L2_NORM_RANGE" location="vtkDataArray" length="2">
            <Value index="0">
              0
            </Value>
            <Value index="1">
              0.69033506357
            </Value>
          </InformationKey>
        </DataArray>
      </Points>
      <Cells>
        <DataArray type="Int64" Name="connectivity" format="ascii" RangeMin="0" RangeMax="44">
          19 29 27 17 21 0
          19 28 21 24 0 28
          21 28 0 19 27 28
          17 0 25 24 26 0
          0 26 25 1 31 15
          2 6 31 5 15 6
          31 6 15 3 33 35
          2 32 33 18 16 36
          5 8 16 3 36 8
          16 8 36 2 33 6
          3 8 33 5 6 8
          33 8 6 2 7 32
          43 39 7 32 7 39
          1 40 31 2 31 34
          43 7 38 2 34 7
          7 34 38 17 11 21
          4 12 11 19 21 12
          11 12 21 30 39 13
          43 10 39 4 13 10
          39 10 13 19 44 29
          4 10 12 43 44 10
          19 12 44 10 44 12
          18 36 22 3 9 36
          20 22 9 36 9 22
          30 13 35 4 37 13
          3 35 37 13 37 35
          17 23 11 20 14 23
          4 11 14 23 14 11
          3 37 9 4 14 37
          20 9 14 37 14 9
          1 41 40 1 42 41
        </DataArray>
        <DataArray type="Int64" Name="offsets" format="ascii" RangeMin="3" RangeMax="186">
          3 6 9 12 15 18
          21 24 27 30 33 36
          39 42 45 48 51 54
          57 60 63 66 69 72
          75 78 81 84 87 90
          93 96 99 102 105 108
          111 114 117 120 123 126
          129 132 135 138 141 144
          147 150 153 156 159 162
          165 168 171 174 177 180
          183 186
        </DataArray>
        <DataArray type="UInt8" Name="types" format="ascii" RangeMin="5" RangeMax="5">
          5 5 5 5 5 5
          5 5 5 5 5 5
          5 5 5 5 5 5
          5 5 5 5 5 5
          5 5 5 5 5 5
          5 5 5 5 5 5
          5 5 5 5 5 5
          5 5 5 5 5 5
          5 5 5 5 5 5
          5 5 5 5 5 5
          5 5
        </DataArray>
      </Cells>
    </Piece>
  </UnstructuredGrid>
</VTKFile>
