<?xml version="1.0"?>
<VTKFile type="UnstructuredGrid" version="0.1" byte_order="LittleEndian" header_type="UInt32" compressor="vtkZLibDataCompressor">
  <UnstructuredGrid>
    <Piece NumberOfPoints="15" NumberOfCells="16">
      <PointData>
        <DataArray type="Float64" Name="Temperature" format="ascii" RangeMin="0" RangeMax="7.416625149764744">
          0 0 1.1398968127005367 0.9332249260083875 0 2.1582627522560576
          6.040048117693253 1.6058707984463365 2.5617528914369565 7.416625149764744 0.4042040621731172 0
          0.9624261971877017 2.2284820693699032 4.90620848380017
        </DataArray>
      </PointData>
      <CellData>
        <DataArray type="UInt8" Name="vtkGhostType" format="ascii" RangeMin="0" RangeMax="1">
          1 1 1 1 0 0
          0 0 0 0 0 0
          0 0 0 0
        </DataArray>
      </CellData>
      <Points>
        <DataArray type="Float32" Name="Points" NumberOfComponents="3" format="ascii" RangeMin="0.7071067811865476" RangeMax="1.4142135623730951">
          0.5 1 0 1 1 0
          0.5 0.75 0 0.625 0.875 0
          0.75 1 0 0.875 0.875 0
          1 0.75 0 0.5 0.5 0
          0.75 0.75 0 1 0.5 0
          0.375 0.875 0 0.25 1 0
          0.375 0.625 0 0.625 0.625 0
          0.875 0.625 0
          <InformationKey name="L2_NORM_RANGE" location="vtkDataArray" length="2">
            <Value index="0">
              0.70710678119
            </Value>
            <Value index="1">
              1.4142135624
            </Value>
          </InformationKey>
        </DataArray>
      </Points>
      <Cells>
        <DataArray type="Int64" Name="connectivity" format="ascii" RangeMin="0" RangeMax="14">
          0 10 2 7 2 12
          10 12 2 0 11 10
          0 3 4 8 5 3
          1 4 5 3 5 4
          7 13 2 8 3 13
          0 2 3 13 3 2
          1 5 6 8 14 5
          9 6 14 5 14 6
        </DataArray>
        <DataArray type="Int64" Name="offsets" format="ascii" RangeMin="3" RangeMax="48">
          3 6 9 12 15 18
          21 24 27 30 33 36
          39 42 45 48
        </DataArray>
        <DataArray type="UInt8" Name="types" format="ascii" RangeMin="5" RangeMax="5">
          5 5 5 5 5 5
          5 5 5 5 5 5
          5 5 5 5
        </DataArray>
      </Cells>
    </Piece>
  </UnstructuredGrid>
</VTKFile>
