<?xml version="1.0"?>
<VTKFile type="UnstructuredGrid" version="0.1" byte_order="LittleEndian" header_type="UInt32" compressor="vtkZLibDataCompressor">
  <UnstructuredGrid>
    <Piece NumberOfPoints="389" NumberOfCells="717">
      <PointData>
        <DataArray type="Float64" Name="Temperature" format="ascii" RangeMin="0" RangeMax="1.3394709209544178">
          0.4809929357844106 1.2162488028885328 0.27728733036069836 0.4952366719977552 0.2644326305016873 0.7797065033129524
          0.2778232509494517 0.03365344467243227 0.2302010408364913 1.1548078070457928 0.733218253322687 0.666593123241427
          0.15530185822752832 0.12556892280294 0.3692492580485221 0.22302630164957735 0.4570545626828441 0.5403932726194343
          0.4963338724120678 0.38058366525069903 0.47540122678782554 0.3714598722548752 0.626526912566442 0.6357733692683152
          0.19344095062575087 0.2795606544789746 0.34361717953601045 0.23073493094341016 0.1740119838737372 0.9865817512815233
          0.7375619046898306 0.5957155670760332 0.7969649519540181 0.9868107922951067 0.3730153433541276 0.19590329907381043
          0.3506740070323165 0.260850661113175 0.00885634364156983 0.025475034468798508 0.0734300179353835 0.06630969814927216
          0.024940004057120494 0.06416962216380574 0.26868854858171476 0.31533378956208463 0.18274425495874175 0.155285894325537
          0.18737430883730224 1.0977471315319305 1.1955492960261929 0.9661420687659845 0.6013521512798689 0.875710992587015
          0.770670839237406 0.56267190348177 0.6831541895122051 0.34195305838961787 0.9615473495590076 0.45153470877498697
          0.08202642842406141 0.07389310514438793 0.22024993141804705 0.13978228062154463 0.2445496866736168 0.3081399745317923
          0.1980379329207071 0.05963840065005757 0.0664598713344756 0.17765120505651982 0.11249639816357825 0.40495528878587006
          0.3306140419605045 0.32682154240092615 0.293100700067109 0.4851576813978425 0.451631219690183 0.19900034381378592
          0.26200783675418476 0.24902491566205648 0.15885718347049615 0.5580051164574874 0.40372036493547897 0.36355163345311303
          0.6006389164587158 0.5024528546352977 0.4112363831364398 0.6635828770793736 0.5713344208481038 0.6356663140541536
          0.4905852902474153 0.43297839670091176 0.4979781925872347 0.4366323789282843 0.551547673406897 0.5596513466353373
          0.32798845343587063 0.3787635355329514 0.43614529829055504 0.3282182248515026 0.37823224044005804 0.45767842013294535
          0.4071191517250704 0.4878137427466425 0.4216702705531977 0.5485053112966438 0.5584585187187676 0.4312500991551884
          0.3158590619618137 0.36000980621244133 0.32425184345661745 0.56370864480089 0.6831825781844624 0.6157743999481611
          0.6333003856975574 0.6968932367347124 0.712278072196031 0.633610365677719 0.5634163722519546 0.7067043330737379
          0.16007518458473877 0.1967082807321339 0.22810484687269825 0.23463003524078374 0.15600479106516657 0.1859324142149197
          0.27420956450458106 0.2806965120690315 0.2369254066310457 0.3872996470110497 0.3028036192741285 0.3220086736721245
          0.28484280528440636 0.2500145220098457 0.20636841816977872 0.2617272089329931 0.20159862499333078 0.18122569705960975
          0.13496124037616158 0.14768359320413274 0.21715909228050895 0.15750690737335873 1.0985898804666703 0.9774275105158503
          0.8802791268591704 0.8665862112375543 1.0965342379435128 0.9895422060344017 0.7619814455177941 0.7059430988662201
          0.8461684790711543 0.5122215142193427 0.6848610466474416 0.6139570053392436 0.6999509544350145 0.7912161129774025
          0.7973847406306686 0.7092813704113288 0.885939423820778 0.889489302546674 1.0760651674621635 1.0888619447981274
          0.8877537578584892 0.9788614345512254 0.42544410032422214 0.3237872600399964 0.41430144230502247 0.36357819626933985
          0.1600447904802394 0.23517851701197115 0.19119332682089724 0.229573829548372 0.38208049792226545 0.3997697347508906
          0.315833709864606 0.3345211475376155 0.3043386683214199 0.271142433426809 0.24714050189136633 0.22029275956310468
          0.28950801329881326 0.0023361562256270017 0.006647652557164398 0.019339071019190298 0.01724598532238724 0.006614213514297628
          0.017112229150750596 0.01491728544833973 0.010802325279906417 0.031706611167503604 0.03370582602625594 0.04398563472944431
          0.09876116199080126 0.09767500418601478 0.05170759308189949 0.0719666751702278 0.09580258990920078 0.07079636024860551
          0.04996369887934509 0.08291307559882208 0.09242930337042587 0.05636889807699067 0.031372222171135646 0.014449123124549457
          0.010635128631412543 0.042815261051384314 0.032368207149806906 0.07823148224719713 0.08891836646720079 0.04929492947935955
          0.053660219638032254 0.3123081502391236 0.25064268935661643 0.29332131310790616 0.22699960937202687 0.27154345378876366
          0.36146096256405275 0.33813194303073396 0.15606364194345587 0.20751401053424795 0.14828197948172542 0.17072067271923996
          0.19141382650806682 0.12191892038530434 0.13685024941001467 0.172166078659251 0.13660187643953667 0.2102180999077688
          0.14994223053163178 1.064147552327802 1.128101291628605 1.011442875250389 1.036929268335398 1.2086546382700827
          1.1774408601544528 0.8775339350015023 0.9490764751663654 1.0586081490948456 0.5396913751070336 0.6658953334495418
          0.5243844563085815 0.5835592153647384 0.9505943189717628 0.9034905959935384 0.8032017967698769 0.8271562899646759
          0.8450689773628829 0.776233368517709 0.7536790613554352 0.783857354532812 0.8477654230766661 0.6453400674308257
          0.4844146354457066 0.5058734968869162 0.6218088990401864 0.5389577213852383 0.7465658770081524 0.7096085404658946
          0.5955811536965315 0.17231557400898373 0.5072455813957378 1.0945064472104702 0.8184901673426004 0.4679254566256381
          0.432081865586503 0 0.4343118914402686 0.12764875456258007 0 0.17668441434337195
          0.7928855963319874 0.0999744776311616 0.09141307111969862 0.40980933772587996 0 0
          0 0 0.2949023771183009 0.07872078254784158 0.10041740778465513 0.13624211350091409
          0.6264605837726643 0.9280659129328939 0.059542741011118526 0.04205871097925905 0.1223311540158385 0.11698149008469358
          0.052048994980843984 0.03938328552165095 0.1148290659516989 0.8118888922432256 0.5126749106905496 0.3577251554798042
          0 0 0 0 0 0
          0.36190406005517456 0.23320065666288872 0.03701982823950471 0.042102071069058736 0.12523288385215975 0.08919922022841466
          0.06887024892751636 0.11004006578064322 0.05335052189513842 0.04752622740541159 0.14144741711757425 0.15583883670616336
          0.11768662520101059 0.09570750254004506 0.5332126336163359 0.7132607079422731 0.9825409063751079 0.8646803673640406
          0.03222531788840103 0.02766729333012439 0.08208256903590365 0.05063815090188508 0.06901817417531125 0.01906320459853329
          0.023296285816201058 0.12705459481141562 0.1133476455225606 0.12424618952018925 0.1059911435929599 0.02462320702186118
          0.07338602111518633 0.045955551788673936 0.08215764164899181 0.018059943498562592 0.02145677965941341 0.06386791804059555
          0.1036381852498641 0.9159543738520439 0.4602571766741696 0.4336415410825692 0.384949064642247 0
          0 0 0 0 0 0
          0 0 0 0 1.0276827214513737 0.2841986723730104
          0.24163684008905906 0.1618490140773078 0.2008046086470022 1.1067886152940511 1.148131166887484 1.222432675116881
          1.1868085240989021 1.2545926439904804 0.6541451595050102 0.027540828844776957 0.05762603905926984 0.12491118697849683
          0.09012623381000827 0.7144987745936869 0.8789537994295133 0.7764786318536108 0.40479973090204263 0.48407191089492047
          0.5669245521907128 0.32835539490906884 0 0.9887121155400249 1.3067514572998815 1.282852883746295
          1.3394709209544178 1.3257979295903999 0.2712370246378183 0.44781687375596513 1.083728623952802 0.9383764982968911
          0.6189516851277725 0.7829843071026604 1.2177914854701386 0.0909608734000537 0
        </DataArray>
      </PointData>
      <CellData>
        <DataArray type="UInt8" Name="vtkGhostType" format="ascii" RangeMin="0" RangeMax="0">
          0 0 0 0 0 0
          0 0 0 0 0 0
          0 0 0 0 0 0
          0 0 0 0 0 0
          0 0 0 0 0 0
          0 0 0 0 0 0
          0 0 0 0 0 0
          0 0 0 0 0 0
          0 0 0 0 0 0
          0 0 0 0 0 0
          0 0 0 0 0 0
          0 0 0 0 0 0
          0 0 0 0 0 0
          0 0 0 0 0 0
          0 0 0 0 0 0
          0 0 0 0 0 0
          0 0 0 0 0 0
          0 0 0 0 0 0
          0 0 0 0 0 0
          0 0 0 0 0 0
          0 0 0 0 0 0
          0 0 0 0 0 0
          0 0 0 0 0 0
          0 0 0 0 0 0
          0 0 0 0 0 0
          0 0 0 0 0 0
          0 0 0 0 0 0
          0 0 0 0 0 0
          0 0 0 0 0 0
          0 0 0 0 0 0
          0 0 0 0 0 0
          0 0 0 0 0 0
          0 0 0 0 0 0
          0 0 0 0 0 0
          0 0 0 0 0 0
          0 0 0 0 0 0
          0 0 0 0 0 0
          0 0 0 0 0 0
          0 0 0 0 0 0
          0 0 0 0 0 0
          0 0 0 0 0 0
          0 0 0 0 0 0
          0 0 0 0 0 0
          0 0 0 0 0 0
          0 0 0 0 0 0
          0 0 0 0 0 0
          0 0 0 0 0 0
          0 0 0 0 0 0
          0 0 0 0 0 0
          0 0 0 0 0 0
          0 0 0 0 0 0
          0 0 0 0 0 0
          0 0 0 0 0 0
          0 0 0 0 0 0
          0 0 0 0 0 0
          0 0 0 0 0 0
          0 0 0 0 0 0
          0 0 0 0 0 0
          0 0 0 0 0 0
          0 0 0 0 0 0
          0 0 0 0 0 0
          0 0 0 0 0 0
          0 0 0 0 0 0
          0 0 0 0 0 0
          0 0 0 0 0 0
          0 0 0 0 0 0
          0 0 0 0 0 0
          0 0 0 0 0 0
          0 0 0 0 0 0
          0 0 0 0 0 0
          0 0 0 0 0 0
          0 0 0 0 0 0
          0 0 0 0 0 0
          0 0 0 0 0 0
          0 0 0 0 0 0
          0 0 0 0 0 0
          0 0 0 0 0 0
          0 0 0 0 0 0
          0 0 0 0 0 0
          0 0 0 0 0 0
          0 0 0 0 0 0
          0 0 0 0 0 0
          0 0 0 0 0 0
          0 0 0 0 0 0
          0 0 0 0 0 0
          0 0 0 0 0 0
          0 0 0 0 0 0
          0 0 0 0 0 0
          0 0 0 0 0 0
          0 0 0 0 0 0
          0 0 0 0 0 0
          0 0 0 0 0 0
          0 0 0 0 0 0
          0 0 0 0 0 0
          0 0 0 0 0 0
          0 0 0 0 0 0
          0 0 0 0 0 0
          0 0 0 0 0 0
          0 0 0 0 0 0
          0 0 0 0 0 0
          0 0 0 0 0 0
          0 0 0 0 0 0
          0 0 0 0 0 0
          0 0 0 0 0 0
          0 0 0 0 0 0
          0 0 0 0 0 0
          0 0 0 0 0 0
          0 0 0 0 0 0
          0 0 0 0 0 0
          0 0 0 0 0 0
          0 0 0 0 0 0
          0 0 0 0 0 0
          0 0 0 0 0 0
          0 0 0 0 0 0
          0 0 0 0 0 0
          0 0 0 0 0 0
          0 0 0 0 0 0
          0 0 0 0 0 0
          0 0 0 0 0 0
          0 0 0
        </DataArray>
      </CellData>
      <Points>
        <DataArray type="Float32" Name="Points" NumberOfComponents="3" format="ascii" RangeMin="0" RangeMax="0.5800222247897058">
          0.25 0.25 0 0.5 0.25 0
          0.4375 0.0625 0 0.3125 0.1875 0
          0.25 0.125 0 0.4375 0.1875 0
          0.1875 0.1875 0 0.0625 0.0625 0
          0.125 0.25 0 0.4375 0.3125 0
          0.3125 0.3125 0 0.5 0.125 0
          0.46875 0.03125 0 0.40625 0.03125 0
          0.40625 0.09375 0 0.375 0.0625 0
          0.46875 0.09375 0 0.4375 0.125 0
          0.28125 0.21875 0 0.25 0.1875 0
          0.34375 0.15625 0 0.28125 0.15625 0
          0.3125 0.25 0 0.34375 0.21875 0
          0.1875 0.125 0 0.21875 0.15625 0
          0.3125 0.125 0 0.28125 0.09375 0
          0.21875 0.09375 0 0.46875 0.21875 0
          0.46875 0.15625 0 0.40625 0.15625 0
          0.40625 0.21875 0 0.4375 0.25 0
          0.21875 0.21875 0 0.15625 0.15625 0
          0.1875 0.25 0 0.15625 0.21875 0
          0.03125 0.03125 0 0.09375 0.03125 0
          0.09375 0.09375 0 0.125 0.0625 0
          0.03125 0.09375 0 0.0625 0.125 0
          0.125 0.3125 0 0.15625 0.28125 0
          0.125 0.1875 0 0.09375 0.21875 0
          0.09375 0.28125 0 0.40625 0.34375 0
          0.46875 0.28125 0 0.40625 0.28125 0
          0.28125 0.28125 0 0.34375 0.34375 0
          0.34375 0.28125 0 0.25 0.3125 0
          0.28125 0.34375 0 0.5 0.0625 0
          0.5 0.1875 0 0.21875 0.28125 0
          0.484375 0.015625 0 0.453125 0.015625 0
          0.453125 0.046875 0 0.4375 0.03125 0
          0.484375 0.046875 0 0.46875 0.0625 0
          0.421875 0.046875 0 0.390625 0.015625 0
          0.421875 0.015625 0 0.390625 0.046875 0
          0.375 0.03125 0 0.390625 0.109375 0
          0.375 0.09375 0 0.421875 0.078125 0
          0.390625 0.078125 0 0.40625 0.125 0
          0.421875 0.109375 0 0.34375 0.0625 0
          0.359375 0.078125 0 0.40625 0.0625 0
          0.359375 0.046875 0 0.484375 0.109375 0
          0.484375 0.078125 0 0.453125 0.078125 0
          0.46875 0.125 0 0.453125 0.109375 0
          0.4375 0.09375 0 0.4375 0.15625 0
          0.421875 0.140625 0 0.453125 0.140625 0
          0.265625 0.234375 0 0.25 0.21875 0
          0.296875 0.203125 0 0.265625 0.203125 0
          0.28125 0.25 0 0.296875 0.234375 0
          0.21875 0.1875 0 0.234375 0.203125 0
          0.28125 0.1875 0 0.234375 0.171875 0
          0.265625 0.171875 0 0.359375 0.140625 0
          0.328125 0.140625 0 0.328125 0.171875 0
          0.3125 0.15625 0 0.359375 0.171875 0
          0.34375 0.1875 0 0.296875 0.171875 0
          0.265625 0.140625 0 0.296875 0.140625 0
          0.25 0.15625 0 0.3125 0.21875 0
          0.3125 0.28125 0 0.296875 0.265625 0
          0.328125 0.234375 0 0.328125 0.265625 0
          0.359375 0.234375 0 0.359375 0.203125 0
          0.328125 0.203125 0 0.34375 0.25 0
          0.15625 0.125 0 0.171875 0.140625 0
          0.21875 0.125 0 0.203125 0.140625 0
          0.171875 0.109375 0 0.203125 0.109375 0
          0.234375 0.140625 0 0.203125 0.171875 0
          0.1875 0.15625 0 0.34375 0.125 0
          0.28125 0.125 0 0.328125 0.109375 0
          0.296875 0.109375 0 0.265625 0.109375 0
          0.296875 0.078125 0 0.3125 0.09375 0
          0.25 0.09375 0 0.265625 0.078125 0
          0.203125 0.078125 0 0.1875 0.09375 0
          0.234375 0.109375 0 0.234375 0.078125 0
          0.484375 0.234375 0 0.484375 0.203125 0
          0.453125 0.203125 0 0.46875 0.1875 0
          0.46875 0.25 0 0.453125 0.234375 0
          0.453125 0.171875 0 0.484375 0.140625 0
          0.484375 0.171875 0 0.390625 0.140625 0
          0.421875 0.171875 0 0.390625 0.171875 0
          0.40625 0.1875 0 0.421875 0.203125 0
          0.390625 0.234375 0 0.390625 0.203125 0
          0.40625 0.25 0 0.421875 0.234375 0
          0.4375 0.28125 0 0.453125 0.265625 0
          0.4375 0.21875 0 0.421875 0.265625 0
          0.234375 0.234375 0 0.203125 0.203125 0
          0.21875 0.25 0 0.203125 0.234375 0
          0.140625 0.140625 0 0.171875 0.171875 0
          0.140625 0.171875 0 0.15625 0.1875 0
          0.1875 0.28125 0 0.203125 0.265625 0
          0.1875 0.21875 0 0.171875 0.265625 0
          0.171875 0.234375 0 0.171875 0.203125 0
          0.140625 0.234375 0 0.140625 0.203125 0
          0.15625 0.25 0 0.015625 0.015625 0
          0.046875 0.015625 0 0.046875 0.046875 0
          0.0625 0.03125 0 0.015625 0.046875 0
          0.03125 0.0625 0 0.109375 0.015625 0
          0.078125 0.015625 0 0.078125 0.046875 0
          0.125 0.03125 0 0.109375 0.046875 0
          0.109375 0.109375 0 0.125 0.09375 0
          0.078125 0.078125 0 0.109375 0.078125 0
          0.09375 0.125 0 0.078125 0.109375 0
          0.09375 0.0625 0 0.15625 0.0625 0
          0.140625 0.078125 0 0.140625 0.046875 0
          0.046875 0.078125 0 0.015625 0.109375 0
          0.015625 0.078125 0 0.046875 0.109375 0
          0.03125 0.125 0 0.0625 0.15625 0
          0.078125 0.140625 0 0.0625 0.09375 0
          0.046875 0.140625 0 0.140625 0.328125 0
          0.125 0.28125 0 0.140625 0.296875 0
          0.109375 0.296875 0 0.140625 0.265625 0
          0.171875 0.296875 0 0.15625 0.3125 0
          0.125 0.15625 0 0.125 0.21875 0
          0.109375 0.171875 0 0.109375 0.203125 0
          0.109375 0.234375 0 0.078125 0.203125 0
          0.09375 0.1875 0 0.09375 0.25 0
          0.078125 0.234375 0 0.109375 0.265625 0
          0.078125 0.265625 0 0.390625 0.359375 0
          0.421875 0.328125 0 0.390625 0.328125 0
          0.40625 0.3125 0 0.484375 0.265625 0
          0.453125 0.296875 0 0.390625 0.265625 0
          0.390625 0.296875 0 0.421875 0.296875 0
          0.265625 0.265625 0 0.296875 0.296875 0
          0.25 0.28125 0 0.265625 0.296875 0
          0.359375 0.359375 0 0.359375 0.328125 0
          0.328125 0.328125 0 0.34375 0.3125 0
          0.328125 0.359375 0 0.3125 0.34375 0
          0.328125 0.296875 0 0.359375 0.265625 0
          0.359375 0.296875 0 0.28125 0.3125 0
          0.21875 0.3125 0 0.234375 0.296875 0
          0.265625 0.328125 0 0.234375 0.328125 0
          0.296875 0.359375 0 0.296875 0.328125 0
          0.25 0.34375 0 0.5 0.03125 0
          0.5 0.09375 0 0.5 0.21875 0
          0.5 0.15625 0 0.234375 0.265625 0
          0.203125 0.296875 0 0.5 0 0
          0.375 0.125 0 0.125 0.125 0
          0.25 0 0 0.3125 0.0625 0
          0.375 0.25 0 0.1875 0.0625 0
          0.0625 0.1875 0 0.1875 0.3125 0
          0.375 0 0 0.125 0 0
          0 0 0 0 0.125 0
          0.34375 0.09375 0 0.28125 0.03125 0
          0.34375 0.03125 0 0.25 0.0625 0
          0.375 0.1875 0 0.375 0.3125 0
          0.21875 0.03125 0 0.15625 0.03125 0
          0.15625 0.09375 0 0.09375 0.15625 0
          0.03125 0.21875 0 0.03125 0.15625 0
          0.0625 0.25 0 0.3125 0.375 0
          0.21875 0.34375 0 0.15625 0.34375 0
          0.4375 0 0 0.3125 0 0
          0.0625 0 0 0.1875 0 0
          0 0.0625 0 0 0.1875 0
          0.359375 0.109375 0 0.328125 0.078125 0
          0.265625 0.015625 0 0.296875 0.015625 0
          0.296875 0.046875 0 0.3125 0.03125 0
          0.25 0.03125 0 0.265625 0.046875 0
          0.359375 0.015625 0 0.328125 0.015625 0
          0.328125 0.046875 0 0.28125 0.0625 0
          0.21875 0.0625 0 0.234375 0.046875 0
          0.375 0.15625 0 0.375 0.21875 0
          0.375 0.34375 0 0.375 0.28125 0
          0.234375 0.015625 0 0.203125 0.015625 0
          0.203125 0.046875 0 0.1875 0.03125 0
          0.171875 0.046875 0 0.140625 0.015625 0
          0.171875 0.015625 0 0.140625 0.109375 0
          0.171875 0.078125 0 0.109375 0.140625 0
          0.078125 0.171875 0 0.015625 0.203125 0
          0.046875 0.203125 0 0.03125 0.1875 0
          0.046875 0.234375 0 0.015625 0.140625 0
          0.015625 0.171875 0 0.046875 0.171875 0
          0.0625 0.21875 0 0.34375 0.375 0
          0.203125 0.328125 0 0.1875 0.34375 0
          0.171875 0.328125 0 0.46875 0 0
          0.40625 0 0 0.28125 0 0
          0.34375 0 0 0.03125 0 0
          0.09375 0 0 0.21875 0 0
          0.15625 0 0 0 0.03125 0
          0 0.09375 0 0 0.15625 0
          0.375 0.375 0 0.125 0.34375 0
          0.109375 0.328125 0 0.078125 0.296875 0
          0.09375 0.3125 0 0.390625 0.390625 0
          0.40625 0.375 0 0.4375 0.34375 0
          0.421875 0.359375 0 0.453125 0.328125 0
          0.265625 0.359375 0 0.015625 0.234375 0
          0.03125 0.25 0 0.0625 0.28125 0
          0.046875 0.265625 0 0.28125 0.375 0
          0.328125 0.390625 0 0.296875 0.390625 0
          0.171875 0.359375 0 0.203125 0.359375 0
          0.234375 0.359375 0 0.140625 0.359375 0
          0 0.21875 0 0.359375 0.390625 0
          0.484375 0.296875 0 0.46875 0.3125 0
          0.515625 0.265625 0 0.5 0.28125 0
          0.515625 0.046875 0 0.515625 0.078125 0
          0.515625 0.203125 0 0.515625 0.171875 0
          0.515625 0.109375 0 0.515625 0.140625 0
          0.515625 0.234375 0 0.515625 0.015625 0
          0.53125 0 0
          <InformationKey name="L2_NORM_RANGE" location="vtkDataArray" length="2">
            <Value index="0">
              0
            </Value>
            <Value index="1">
              0.58002222479
            </Value>
          </InformationKey>
        </DataArray>
      </Points>
      <Cells>
        <DataArray type="Int64" Name="connectivity" format="ascii" RangeMin="0" RangeMax="388">
          265 60 341 12 61 60
          294 341 61 60 61 341
          2 66 62 13 63 66
          12 62 63 66 63 62
          274 342 67 294 68 342
          13 67 68 342 68 67
          12 63 61 13 68 63
          294 61 68 63 68 61
          266 300 71 278 72 300
          14 71 72 300 72 71
          269 77 301 15 78 77
          278 301 78 77 78 301
          2 73 79 14 74 73
          15 79 74 73 74 79
          278 78 72 15 74 78
          14 72 74 78 74 72
          2 79 66 15 69 79
          13 66 69 79 69 66
          269 310 77 280 80 310
          15 77 80 310 80 77
          274 67 308 13 70 67
          280 308 70 67 70 308
          15 80 69 280 70 80
          13 69 70 80 70 69
          0 164 90 34 91 164
          18 90 91 164 91 90
          6 96 165 19 97 96
          34 165 97 96 97 165
          3 92 98 18 93 92
          19 98 93 92 93 98
          34 97 91 19 93 97
          18 91 93 97 93 91
          267 120 168 24 121 120
          35 168 121 120 121 168
          4 126 122 25 123 126
          24 122 123 126 123 122
          6 169 127 35 128 169
          25 127 128 169 128 127
          24 123 121 25 128 123
          35 121 128 123 128 121
          266 101 129 20 102 101
          26 129 102 101 102 129
          3 107 103 21 104 107
          20 103 104 107 104 103
          4 130 108 26 109 130
          21 108 109 130 109 108
          20 104 102 21 109 104
          26 102 109 104 109 102
          6 127 96 25 99 127
          19 96 99 127 99 96
          4 108 126 21 110 108
          25 126 110 108 110 126
          3 98 107 19 100 98
          21 107 100 98 100 107
          25 110 99 21 100 110
          19 99 100 110 100 99
          276 345 181 296 182 345
          38 181 182 345 182 181
          275 187 346 39 188 187
          296 346 188 187 188 346
          7 183 189 38 184 183
          39 189 184 183 184 189
          296 188 182 39 184 188
          38 182 184 188 184 182
          267 192 325 40 193 192
          286 325 193 192 193 325
          7 198 194 41 195 198
          40 194 195 198 195 194
          271 326 199 286 200 326
          41 199 200 326 200 199
          40 195 193 41 200 195
          286 193 200 195 200 193
          275 323 187 285 190 323
          39 187 190 323 190 187
          271 199 322 41 201 199
          285 322 201 199 201 322
          7 189 198 39 191 189
          41 198 191 189 191 198
          285 201 190 41 191 201
          39 190 191 201 191 190
          266 129 300 26 131 129
          278 300 131 129 131 300
          4 133 130 27 132 133
          26 130 132 133 132 130
          269 301 134 278 135 301
          27 134 135 301 135 134
          26 132 131 27 135 132
          278 131 135 132 135 131
          267 325 120 286 124 325
          24 120 124 325 124 120
          271 138 326 28 139 138
          286 326 139 138 139 326
          4 122 140 24 125 122
          28 140 125 122 125 140
          286 139 124 28 125 139
          24 124 125 139 125 124
          4 140 133 28 136 140
          27 133 136 140 136 133
          271 312 138 281 141 312
          28 138 141 312 141 138
          269 134 311 27 137 134
          281 311 137 134 137 311
          28 141 136 281 137 141
          27 136 137 141 137 136
          352 229 357 49 358 229
          229 358 357 9 359 230
          49 230 360 359 360 230
          49 360 358 1 379 233
          50 233 376 379 376 233
          9 234 361 50 377 234
          234 377 361 50 376 377
          9 361 359 0 90 238
          18 94 90 52 238 94
          90 94 238 3 111 92
          22 95 111 18 92 95
          111 95 92 10 239 112
          52 113 239 22 112 113
          239 113 112 18 95 94
          22 113 95 52 94 113
          95 113 94 266 314 101
          282 105 314 20 101 105
          314 105 101 270 116 315
          23 117 116 282 315 117
          116 117 315 3 103 118
          20 106 103 23 118 106
          103 106 118 282 117 105
          23 106 117 20 105 106
          117 106 105 352 242 316
          53 243 242 283 316 243
          242 243 316 10 248 244
          54 245 248 53 244 245
          248 245 244 270 317 249
          283 250 317 54 249 250
          317 250 249 53 245 243
          54 250 245 283 243 250
          245 250 243 3 118 111
          23 114 118 22 111 114
          118 114 111 270 249 116
          54 119 249 23 116 119
          249 119 116 10 112 248
          22 115 112 54 248 115
          112 115 248 23 119 114
          54 115 119 22 114 115
          119 115 114 265 259 60
          57 64 259 12 60 64
          259 64 60 11 81 260
          16 82 81 57 260 82
          81 82 260 2 62 83
          12 65 62 16 83 65
          62 65 83 57 82 64
          16 65 82 12 64 65
          82 65 64 1 142 261
          29 143 142 58 261 143
          142 143 261 5 148 144
          30 145 148 29 144 145
          148 145 144 11 262 149
          58 150 262 30 149 150
          262 150 149 29 145 143
          30 150 145 58 143 150
          145 150 143 266 71 151
          14 75 71 31 151 75
          71 75 151 2 86 73
          17 76 86 14 73 76
          86 76 73 5 152 87
          31 88 152 17 87 88
          152 88 87 14 76 75
          17 88 76 31 75 88
          76 88 75 11 149 81
          30 84 149 16 81 84
          149 84 81 5 87 148
          17 89 87 30 148 89
          87 89 148 2 83 86
          16 85 83 17 86 85
          83 85 86 30 89 84
          17 85 89 16 84 85
          89 85 84 352 316 229
          283 231 316 49 229 231
          316 231 229 270 235 317
          51 236 235 283 317 236
          235 236 317 9 230 237
          49 232 230 51 237 232
          230 232 237 283 236 231
          51 232 236 49 231 232
          236 232 231 266 151 314
          31 153 151 282 314 153
          151 153 314 5 155 152
          32 154 155 31 152 154
          155 154 152 270 315 156
          282 157 315 32 156 157
          315 157 156 31 154 153
          32 157 154 282 153 157
          154 157 153 1 233 142
          50 146 233 29 142 146
          233 146 142 9 160 234
          33 161 160 50 234 161
          160 161 234 5 144 162
          29 147 144 33 162 147
          144 147 162 50 161 146
          33 147 161 29 146 147
          161 147 146 270 156 235
          32 158 156 51 235 158
          156 158 235 5 162 155
          33 159 162 32 155 159
          162 159 155 9 237 160
          51 163 237 33 160 163
          237 163 160 32 159 158
          33 163 159 51 158 163
          159 163 158 0 238 263
          52 240 238 59 263 240
          238 240 263 10 251 239
          55 241 251 52 239 241
          251 241 239 273 264 252
          59 253 264 55 252 253
          264 253 252 52 241 240
          55 253 241 59 240 253
          241 253 240 352 337 242
          291 246 337 53 242 246
          337 246 242 56 256 362
          291 367 256 362 256 367
          10 244 257 53 247 244
          56 257 247 244 247 257
          291 256 246 56 247 256
          53 246 247 256 247 246
          10 257 251 56 254 257
          55 251 254 257 254 251
          292 258 372 56 362 258
          372 258 362 273 252 338
          55 255 252 292 338 255
          252 255 338 56 258 254
          292 255 258 55 254 255
          258 255 254 352 357 375
          276 181 349 38 185 181
          298 349 185 181 185 349
          7 202 183 42 186 202
          38 183 186 202 186 183
          277 350 203 298 204 350
          42 203 204 350 204 203
          38 186 185 42 204 186
          298 185 204 186 204 185
          267 327 192 287 196 327
          40 192 196 327 196 192
          272 207 328 43 208 207
          287 328 208 207 208 328
          7 194 209 40 197 194
          43 209 197 194 197 209
          287 208 196 43 197 208
          40 196 197 208 197 196
          7 209 202 43 205 209
          42 202 205 209 205 202
          272 335 207 289 210 335
          43 207 210 335 210 207
          277 203 333 42 206 203
          289 333 206 203 206 333
          43 210 205 289 206 210
          42 205 206 210 206 205
          0 263 164 59 166 263
          34 164 166 263 166 164
          273 172 264 36 173 172
          59 264 173 172 173 264
          6 165 174 34 167 165
          36 174 167 165 167 174
          59 173 166 36 167 173
          34 166 167 173 167 166
          44 211 353 293 373 211
          353 211 373 8 215 212
          45 213 215 44 212 213
          215 213 212 273 340 216
          293 217 340 45 216 217
          340 217 216 44 213 211
          45 217 213 293 211 217
          213 217 211 267 168 218
          35 170 168 46 218 170
          168 170 218 6 177 169
          37 171 177 35 169 171
          177 171 169 8 219 178
          46 179 219 37 178 179
          219 179 178 35 171 170
          37 179 171 46 170 179
          171 179 170 273 216 172
          45 175 216 36 172 175
          216 175 172 8 178 215
          37 180 178 45 215 180
          178 180 215 6 174 177
          36 176 174 37 177 176
          174 176 177 45 180 175
          37 176 180 36 175 176
          180 176 175 267 218 327
          46 220 218 287 327 220
          218 220 327 8 222 219
          47 221 222 46 219 221
          222 221 219 272 328 223
          287 224 328 47 223 224
          328 224 223 46 221 220
          47 224 221 287 220 224
          221 224 220 44 353 354
          48 356 355 8 212 227
          44 214 212 48 227 214
          212 214 227 48 214 356
          44 354 214 356 214 354
          8 227 222 48 225 227
          47 222 225 227 225 222
          290 228 365 48 355 228