<?xml version="1.0"?>
<VTKFile type="UnstructuredGrid" version="0.1" byte_order="LittleEndian" header_type="UInt32" compressor="vtkZLibDataCompressor">
  <UnstructuredGrid>
    <Piece NumberOfPoints="135" NumberOfCells="210">
      <PointData>
        <DataArray type="Float64" Name="nsi_BC" NumberOfComponents="3" format="ascii" RangeMin="0" RangeMax="40">
          0 0 0 0 0 0
          0 0 0 0 0 0
          0 0 0 0 0 0
          0 0 0 0 0 0
          0 0 0 0 0 0
          0 0 0 0 0 0
          0 0 0 0 0 0
          0 0 0 0 0 0
          0 0 0 0 0 0
          0 0 0 0 0 0
          0 0 0 0 0 0
          0 0 0 0 0 0
          0 0 0 0 0 0
          0 0 0 0 0 0
          0 0 0 0 0 0
          0 0 0 0 0 0
          0 0 0 0 0 0
          0 0 0 0 0 0
          0 0 0 0 0 0
          0 0 0 0 0 0
          0 0 0 0 0 0
          0 0 0 0 0 0
          0 0 0 0 0 0
          0 0 0 0 0 0
          0 0 0 0 0 0
          0 0 0 0 0 0
          0 0 0 0 0 0
          0 0 0 0 0 0
          0 0 0 0 0 0
          0 0 0 0 0 0
          0 0 0 0 0 0
          0 0 0 0 0 0
          0 0 0 0 0 0
          0 0 0 0 0 0
          0 0 0 0 0 0
          0 0 0 0 0 0
          0 0 0 0 0 0
          0 0 0 0 0 0
          0 0 0 0 0 0
          0 0 0 0 0 0
          0 0 0 0 0 0
          0 0 0 0 0 0
          0 0 0 0 0 0
          0 0 0 0 0 0
          0 0 0 0 0 0
          0 0 0 0 0 0
          0 0 0 0 0 0
          0 0 0 0 0 0
          0 0 0 0 0 0
          0 0 0 0 0 0
          0 0 0 0 0 0
          0 0 0 0 0 0
          0 0 0 0 0 0
          0 0 0 0 0 0
          0 0 0 0 0 0
          0 0 0 0 0 0
          0 0 0 0 0 0
          0 0 0 0 0 0
          0 0 0 0 0 0
          0 0 0 0 0 0
          0 0 0 40 0 0
          40 0 0 40 0 0
          0 0 0 40 0 0
          0 0 0 0 0 0
          40 0 0 40 0 0
          40 0 0 0 0 0
          40 0 0 40 0 0
          40 0 0
          <InformationKey name="L2_NORM_RANGE" location="vtkDataArray" length="2">
            <Value index="0">
              0
            </Value>
            <Value index="1">
              40
            </Value>
          </InformationKey>
        </DataArray>
        <DataArray type="Float64" Name="nsi_FIXNO" NumberOfComponents="3" format="ascii" RangeMin="0" RangeMax="1.4142135623730951">
          0 1 0 0 0 0
          0 1 0 -1 -1 0
          0 0 0 0 1 0
          -1 -1 0 -1 -1 0
          0 1 0 0 0 0
          -1 -1 0 -1 -1 0
          -1 -1 0 0 1 0
          0 0 0 -1 -1 0
          -1 -1 0 0 1 0
          0 0 0 -1 -1 0
          -1 -1 0 -1 -1 0
          -1 -1 0 0 1 0
          0 0 0 -1 -1 0
          -1 -1 0 0 1 0
          0 0 0 -1 -1 0
          -1 -1 0 -1 -1 0
          0 1 0 0 0 0
          -1 -1 0 -1 -1 0
          -1 -1 0 -1 -1 0
          -1 -1 0 -1 -1 0
          0 1 0 0 1 0
          0 1 0 -1 -1 0
          0 1 0 0 1 0
          -1 -1 0 -1 -1 0
          0 1 0 0 1 0
          -1 -1 0 -1 -1 0
          0 1 0 -1 -1 0
          -1 -1 0 0 1 0
          0 1 0 -1 -1 0
          0 1 0 -1 -1 0
          -1 -1 0 -1 -1 0
          -1 -1 0 -1 -1 0
          0 1 0 0 1 0
          -1 -1 0 -1 -1 0
          -1 -1 0 -1 -1 0
          0 1 0 -1 -1 0
          -1 -1 0 0 1 0
          -1 -1 0 -1 -1 0
          0 1 0 -1 -1 0
          -1 -1 0 -1 -1 0
          -1 -1 0 1 1 0
          1 1 0 -1 -1 0
          -1 -1 0 -1 -1 0
          0 1 0 1 1 0
          0 1 0 1 1 0
          -1 -1 0 -1 -1 0
          1 1 0 -1 -1 0
          1 1 0 -1 -1 0
          -1 -1 0 0 1 0
          0 1 0 -1 -1 0
          -1 -1 0 -1 -1 0
          -1 -1 0 -1 -1 0
          -1 -1 0 -1 -1 0
          0 1 0 -1 -1 0
          0 1 0 -1 -1 0
          -1 -1 0 0 1 0
          -1 -1 0 0 1 0
          -1 -1 0 -1 -1 0
          -1 -1 0 -1 -1 0
          0 1 0 -1 -1 0
          -1 -1 0 1 1 0
          1 1 0 1 1 0
          -1 -1 0 1 1 0
          0 1 0 -1 -1 0
          1 1 0 1 1 0
          1 1 0 0 1 0
          1 1 0 1 1 0
          1 1 0
          <InformationKey name="L2_NORM_RANGE" location="vtkDataArray" length="2">
            <Value index="0">
              0
            </Value>
            <Value index="1">
              1.4142135624
            </Value>
          </InformationKey>
        </DataArray>
        <DataArray type="Float64" Name="Velocity" NumberOfComponents="3" format="ascii" RangeMin="0" RangeMax="53.76916561738564">
          50.771236327903615 0 0 47.602305560175594 -0.20418571868357288 0
          50.88971157334077 0 0 47.01547031116094 -0.053499461978854204 0
          40.379515392891356 -0.47507746203923373 0 51.07756977655565 0 0
          46.12015676952625 -0.2894569946984365 0 36.661678738549675 -0.19940719100086282 0
          51.50048492748778 0 0 33.88312017557318 -0.21076156862200732 0
          32.60330173817873 0.19242322994585928 0 46.52120749253708 -0.8060785664797054 0
          32.772011929804115 0.23652703088048743 0 51.96400082235892 0 0
          32.715653773553655 0.29351607619578474 0 33.36899556173831 0.012027491001876122 0
          48.874652710037815 -0.15675397354948523 0 51.28497839727692 0 0
          33.04260702511481 -0.1776628672155979 0 50.25875184286864 0.11341207093143775 0
          33.147355289922686 -0.21754061981735978 0 33.86946918297558 -0.3048140096833678 0
          33.56908031821637 -0.06256404995062825 0 50.890284978980304 0 0
          34.33254179471873 0.021104953480146012 0 49.744037736831416 -0.6920211347867287 0
          36.80051909323853 0.4782350718802881 0 51.17990455268448 0 0
          38.4579295197885 0.6745997118848713 0 33.956738592517716 0.25751658502011815 0
          51.81962006563686 -0.24940118442705947 0 32.84492970500695 -0.03168136442091373 0
          50.35914673198399 0 0 49.06217536074066 0.32003079008239144 0
          49.08125088930956 0.13114165589604618 0 32.984624683292964 0.3730092449061105 0
          49.28018212853046 0.09933364840831908 0 32.66749120617569 -2.0733255702533477 0
          53.46346603617591 0.6308573429402842 0 50.25687479841125 0.06696245062402117 0
          50.27705207196674 0 0 48.50662567385958 0 0
          50.44455385748459 0 0 49.87358139215717 0.300312160247917 0
          50.50764299792745 0 0 50.45307728401216 0 0
          53.511651397394 1.169551632531425 0 51.06615538549812 0.11066427854073362 0
          50.314366047432856 0 0 46.84521310875445 0 0
          51.45853140692838 0.56447399021783 0 33.3974232763016 2.3697019190242194 0
          50.290659105824254 0 0 37.6164324972428 -1.6269634122668506 0
          53.23596009298598 2.192363552283541 0 50.103033326731655 0 0
          45.381329133694194 0 0 53.767365929238125 -0.4399229719504972 0
          50.25893444713646 0 0 23.705901576046454 1.3217348367481465 0
          50.414735783061495 0.6234684500150189 0 53.45927301223948 -1.8637947689987417 0
          49.933548074657274 2.147271184417244 0 41.68687206260574 -0.16811766100662748 0
          45.48262839290418 0 0 48.86271481800394 0 0
          31.003364244507935 -5.351582283139824 0 48.54767674257007 1.2053716319416288 0
          52.59881870379903 -0.5294249695414172 0 9.424904968326603 1.4583674391952015 0
          47.39084757075527 0 0 34.59514596212627 3.913106669060676 0
          48.47984184305629 4.836719527025539 0 44.69355280458242 0 0
          51.50186354357894 -1.4015481839448591 0 13.780052857194372 -2.670533404989619 0
          46.64721594375045 0 0 50.5471992993619 -2.027382595548637 0
          46.039263629116974 1.8217469948401863 0 15.162498650624682 1.9350570596543486 0
          46.764400385325835 5.765121622149731 0 0 0 0
          0 0 0 42.4748601285123 10.66563682430668 0
          49.834889780953574 -5.315677883057999 0 49.61556871368512 -0.46163432849234604 0
          43.36309173410604 0 0 0 0 0
          45.59823154031163 0 0 0 0 0
          43.719019426229494 1.729296098031938 0 43.9116141271042 -11.38459660341858 0
          0 0 0 42.11345229617233 8.320324453817408 0
          0 0 0 48.112088938369105 -1.1561666815089249 0
          28.119148261662072 9.675928356075662 0 45.700785784164765 0 0
          41.92169957460525 0 0 46.79276031313719 -5.757363308723032 0
          27.80824757237769 -8.7325787976082 0 40.75436869662167 2.9645293700648936 0
          41.688104245999064 1.4196901418277499 0 42.15992121907722 -7.766343961543844 0
          45.66882313479523 -1.8708831232928687 0 38.032344830972285 3.5770107268393248 0
          44.84522732634356 0 0 36.702901891830024 -0.3139240255584875 0
          40.818446976839674 0 0 38.2033085380835 -3.4821782988729164 0
          43.465373398248666 -1.6715927083622129 0 43.36245226140717 0 0
          40.642264295375256 -2.82134189943927 0 40.236547905140874 0 0
          40.17851662212405 0.6930054043527505 0 39.86707660741745 0.913166095612995 0
          39.49746613240501 0.545494702908419 0 41.63063881565574 -1.374316630102372 0
          41.88905246291223 0 0 40.42471501574564 -0.012327969788475644 0
          39.47598763478458 -0.5075792820199465 0 40.000000000000085 0 0
          40.000000000000085 0 0 40.000000000000085 0 0
          39.8647483553811 -0.8221694741448946 0 40.000000000000085 0 0
          40.664996451461825 0 0 40.35729889604269 -0.690141484558578 0
          40.00000000000008 0 0 40.000000000000085 0 0
          40.00000000000008 0 0 40.119552771591046 0 0
          40.000000000000085 0 0 40.00000000000008 0 0
          40.00000000000008 0 0
          <InformationKey name="L2_NORM_RANGE" location="vtkDataArray" length="2">
            <Value index="0">
              0
            </Value>
            <Value index="1">
              53.769165617
            </Value>
          </InformationKey>
        </DataArray>
        <DataArray type="Float64" Name="Pressure" format="ascii" RangeMin="-470.4157847461757" RangeMax="818.2324483399403">
          2.6444837672126944 2.2750098696889562 1.3465466016343486 -0.7799363180542808 -1.2805718691803771 -3.825088431015228
          2.6855203201412503 0.8891740673929136 -17.27050533596059 -0.7344402425078378 -3.596979489530471 -11.736490131294714
          -3.371716472051011 -14.66924016509999 -3.565979422625589 -3.473644764900592 -3.2366291159884755 -4.130269221108072
          -3.1966598667080097 -8.23174052787793 0.8628726212766878 -5.808727439222868 -0.5353038126091371 -35.501560944569476
          0.8694909787124991 -39.61394525821829 -5.253822437901406 -42.569058621741966 -4.364629768656479 -7.878786205398152
          -41.588783375423276 25.988656394841694 -34.55449069013946 3.3161676556045894 -3.2704828856664214 7.968390326026878
          -0.37237384380056954 -23.64247974810212 -33.205120819479845 -2.0650832317300667 1.5592793009138424 -24.818785145989192
          -3.0618994704360145 -4.630212589787435 -3.463756769829251 0.7302206567887793 -34.23204675826022 -4.074818263451907
          -13.990139191371657 21.340662258888184 -49.08915725575781 -71.82620727866865 -6.122471014769369 -42.75334434386264
          8.682821390301138 -33.13724674251197 14.77206268212363 -58.99013020652614 -33.64483631346039 -0.2702517098934634
          1.9059452529460272 -24.43413995985051 -50.41924628791734 -9.779210705711456 33.67715474185321 -25.756294440937868
          -216.96357302834872 47.71748740800587 -18.34250761510658 -228.53012819060947 -12.845066694218815 -211.32426304888568
          -170.77859314328833 87.56475881870134 36.439751028381735 -415.1934941918044 3.7549196675941516 -63.80619522108773
          117.82723651043271 -470.4157847461757 57.77435199762213 -405.9552198513131 -267.4195441523557 -75.03474458494615
          -173.1613878145534 9.819054575256805 156.98180697107264 -271.65035490701405 24.332302923298528 373.1305809214415
          198.16838900785993 -73.58762238411629 469.85839357118044 264.4685318731438 818.2324483399403 50.008928340837784
          630.4589929609323 40.30546860463262 229.1380999464067 80.11076956028508 670.2689262682713 314.05850281335734
          277.89348279998956 291.03119652545246 128.6196315075331 455.1691418076106 93.3491572726188 528.4254166300797
          274.9316964866435 450.86048601668824 208.51589110118587 165.17225733967837 320.90710534294266 307.55280721999026
          332.99561573204124 370.4839596236795 401.20550282773036 282.90693168292006 236.19364234596574 420.41290546648617
          411.1014604722921 318.86092459280263 327.5122063465859 353.2718956423797 373.1087208299782 385.22641907863516
          287.6384391111561 323.2977099315958 406.0734641285595 409.0400129405938 389.8683166847307 314.07465765893284
          355.98283225350025 331.0193876790574 323.2550996857591
        </DataArray>
        <DataArray type="Float64" Name="stream" format="ascii" RangeMin="-323.37594627083104" RangeMax="0.1908969853154995">
          0.019046825259813716 -43.68146637515188 -0.01756354783869322 -49.33925460503712 -82.79869248817177 -0.02969174132422836
          -56.31621398741026 -100.20602416554516 0.0057647304424624695 -115.69494038469425 -127.65095025491185 -55.507941476637164
          -115.78011660414998 0.10335792275086675 -145.1913733914822 -159.8572282976589 -46.381004557774375 -0.0020924437502287674
          -174.36794407338456 -41.34991614041619 -189.52411040800192 -101.49489869776113 -175.00581352875977 0.056887708723287744
          -204.2106969705102 -52.44401453485414 -230.045204761637 0.13210743276093476 -236.60872062620834 -218.59625921640279
          -47.37184733065138 -160.55934855014652 0.03294669545564943 -275.48974026368273 -273.9187940809027 -218.19034375473402
          -273.938912086152 -104.55120385740467 -42.28716324596529 -279.00008710193305 -319.5414214870202 -0.20789918144457906
          -319.8602196182251 -273.5951390154673 -320.04241617854206 -320.1921182263905 -47.11940005849787 -278.6764529369752
          -319.9181219048722 -0.4024034446363771 -273.15183160613185 -216.3835171327355 -320.0332927633539 -106.90933791721068
          -45.89203442018937 -320.092630544613 -0.306148051534971 -278.69154757211453 -320.5751676332762 -169.26284267844858
          -44.407382732391184 -274.67210499348704 -90.7031604339149 -215.0434034540267 -0.1289528392412033 -321.40894145180937
          -139.02725368491733 -43.16271793749494 -281.67302507772473 -160.7724407777534 -322.02350004079403 -182.18041671971625
          -125.50084311536666 -0.07153950739932687 -278.22845014540866 -153.13414298160092 -323.16961543183874 -233.64042523665944
          -41.5557526671477 -162.5491088038854 -93.72695585833112 -157.35516072750082 -151.18239454140047 -138.2357308235402
          -194.54017372203853 -279.64678046448955 0.009342801101306955 -160.67861553845614 -323.37594627083104 -150.57517506880473
          -39.71691506937625 -175.74992242175833 -163.53344614165943 -114.03975595194692 -158.2856972330734 -279.72053549998566
          -145.45605162071618 -323.13125772523944 0.035582326309814505 -224.34606546497233 -168.81504332363087 -77.0698218519373
          -38.256165322767544 -200.9436480828978 -278.0918967402116 -123.50493747260727 -321.76893529476246 -157.51253514357526
          0.1532088958414922 -192.39935669488924 -277.188501516494 -317.6753874708138 -239.0134214089786 0.1908969853154995
          -53.40588467299137 -88.663325641033 -123.25726306245672 -277.9857734921728 -316.67365949155936 -158.00874533936238
          -193.1798471101898 0.1498467929148397 -35.38769504530959 -70.75850578445322 -228.06791088646935 -105.82118958026759
          -316.56795323611124 -272.7426720322319 -140.62666709450318 -175.8123224534826 -211.1030620939014 -317.16683287112534
          -246.29925484061275 -281.682057243784 -317.2376132437841
        </DataArray>
      </PointData>
      <CellData>
        <DataArray type="UInt8" Name="vtkGhostType" format="ascii" RangeMin="0" RangeMax="0">
          0 0 0 0 0 0
          0 0 0 0 0 0
          0 0 0 0 0 0
          0 0 0 0 0 0
          0 0 0 0 0 0
          0 0 0 0 0 0
          0 0 0 0 0 0
          0 0 0 0 0 0
          0 0 0 0 0 0
          0 0 0 0 0 0
          0 0 0 0 0 0
          0 0 0 0 0 0
          0 0 0 0 0 0
          0 0 0 0 0 0
          0 0 0 0 0 0
          0 0 0 0 0 0
          0 0 0 0 0 0
          0 0 0 0 0 0
          0 0 0 0 0 0
          0 0 0 0 0 0
          0 0 0 0 0 0
          0 0 0 0 0 0
          0 0 0 0 0 0
          0 0 0 0 0 0
          0 0 0 0 0 0
          0 0 0 0 0 0
          0 0 0 0 0 0
          0 0 0 0 0 0
          0 0 0 0 0 0
          0 0 0 0 0 0
          0 0 0 0 0 0
          0 0 0 0 0 0
          0 0 0 0 0 0
          0 0 0 0 0 0
          0 0 0 0 0 0
        </DataArray>
      </CellData>
      <Points>
        <DataArray type="Float32" Name="Points" NumberOfComponents="3" format="ascii" RangeMin="0" RangeMax="17.88854381999832">
          16 8 0 16 7.111111164093018 0
          15.111109733581543 8 0 15.064430236816406 6.992426872253418 0
          16 6.222221851348877 0 14.222220420837402 8 0
          13.976409912109375 6.843448162078857 0 15.076860427856445 5.777778148651123 0
          13.333330154418945 8 0 16 5.3333330154418945 0
          15.1806001663208 4.97777795791626 0 12.810070037841797 6.8727240562438965 0
          13.749300003051758 5.3333330154418945 0 12.444439888000488 8 0
          16 4.444444179534912 0 15.076860427856445 4 0
          12 7.076855182647705 0 11.555560111999512 8 0
          16 3.555556058883667 0 11.199999809265137 7.180602073669434 0
          15.076860427856445 3.1111109256744385 0 11.555560111999512 5.749299049377441 0
          13.749300003051758 3.555556058883667 0 10.666669845581055 8 0
          16 2.6666669845581055 0 10.237039566040039 6.959342956542969 0
          14.809109687805176 1.9420909881591797 0 9.777777671813965 8 0
          16 1.7777780294418335 0 13.333330154418945 2.2507009506225586 0
          9.333333015441895 7.076855182647705 0 10.222220420837402 3.9827520847320557 0
          8.88888931274414 8 0 16 0.8888888955116272 0
          14.986700057983398 0.9219837188720703 0 11.555560111999512 2.2507009506225586 0
          13.777779579162598 0.9231445789337158 0 8.88888931274414 5.749299049377441 0
          8.533332824707031 7.180602073669434 0 12.97778034210205 0.8193979859352112 0
          16 0 0 8 8 0
          15.111109733581543 0 0 12 0.9231445789337158 0
          14.222220420837402 0 0 13.333330154418945 0 0
          7.555555820465088 7.076855182647705 0 11.199999809265137 0.8193979859352112 0
          12.444439888000488 0 0 7.111111164093018 8 0
          10.222220420837402 0.9231445789337158 0 8.88888931274414 2.2507009506225586 0
          11.555560111999512 0 0 7.111111164093018 5.749299049377441 0
          6.6666669845581055 7.076855182647705 0 10.666669845581055 0 0
          6.222221851348877 8 0 9.244443893432617 0.8193979859352112 0
          9.777777671813965 0 0 6.700017929077148 3.6636950969696045 0
          5.777778148651123 7.076855182647705 0 8.444443702697754 0.9231445789337158 0
          5.675971031188965 6.142068862915039 0 7.111111164093018 2.2507009506225586 0
          5.3333330154418945 8 0 8.88888931274414 0 0
          5.699848175048828 4.957938194274902 0 4.888888835906982 7.076855182647705 0
          7.466667175292969 0.8193979859352112 0 5.571450233459473 4 0
          8 0 0 5.699848175048828 3.0420620441436768 0
          4.785725116729736 5.3609161376953125 0 4.444444179534912 8 0
          6.6666669845581055 0.9231445789337158 0 4.824699878692627 4.476140975952148 0
          7.111111164093018 0 0 5.675971031188965 1.8579310178756714 0
          4 7.076855182647705 0 4.824699878692627 3.5238590240478516 0
          4.020326137542725 5.951079845428467 0 4.5 4 0
          4.25 4.433012962341309 0 4 4.952281951904297 0
          4.785725116729736 2.6390841007232666 0 5.777778148651123 0.9231445789337158 0
          3.555556058883667 8 0 4.25 3.5669870376586914 0
          6.222221851348877 0 0 3.75 4.433012962341309 0
          3.1111109256744385 7.076855182647705 0 4 3.047718048095703 0
          3.75 3.5669870376586914 0 3.2142748832702637 5.3609161376953125 0
          3.5 4 0 4.888888835906982 0.9231445789337158 0
          3.175299882888794 4.476140975952148 0 5.3333330154418945 0 0
          2.6666669845581055 8 0 3.9796741008758545 2.048919916152954 0
          3.175299882888794 3.5238590240478516 0 2.324028968811035 6.142068862915039 0
          2.222222089767456 7.076855182647705 0 3.2142748832702637 2.6390841007232666 0
          4 0.9231445789337158 0 2.300152063369751 4.957938194274902 0
          4.444444179534912 0 0 2.4285500049591064 4 0
          1.7777780294418335 8 0 2.300152063369751 3.0420620441436768 0
          3.1111109256744385 0.9231445789337158 0 3.555556058883667 0 0
          2.324028968811035 1.8579310178756714 0 0.8888888955116272 8 0
          0.9231445789337158 6.6666669845581055 0 0.9231445789337158 5.777778148651123 0
          0.9231445789337158 4.888888835906982 0 2.222222089767456 0.9231445789337158 0
          2.6666669845581055 0 0 0.9231445789337158 4 0
          0.9231445789337158 3.1111109256744385 0 0 8 0
          0 7.111111164093018 0 0 6.222221851348877 0
          0.9231445789337158 2.222222089767456 0 0 5.3333330154418945 0
          1.7777780294418335 0 0 1.1622949838638306 1.095708966255188 0
          0 4.444444179534912 0 0 3.555556058883667 0
          0 2.6666669845581055 0 0.8888888955116272 0 0
          0 1.7777780294418335 0 0 0.8888888955116272 0
          0 0 0
          <InformationKey name="L2_NORM_RANGE" location="vtkDataArray" length="2">
            <Value index="0">
              0
            </Value>
            <Value index="1">
              17.88854382
            </Value>
          </InformationKey>
        </DataArray>
      </Points>
      <Cells>
        <DataArray type="Int64" Name="connectivity" format="ascii" RangeMin="0" RangeMax="134">
          81 87 79 92 94 100
          89 82 83 87 92 91
          94 89 96 82 81 75
          79 87 91 83 82 75
          96 89 83 100 94 96
          91 92 100 75 81 79
          134 131 133 44 42 34
          17 23 19 125 128 116
          76 70 68 9 4 7
          73 86 78 111 106 104
          28 24 26 41 49 46
          132 133 127 55 52 47
          2 5 3 113 121 122
          126 118 117 40 33 42
          27 32 30 129 130 120
          65 58 57 1 0 2
          98 108 102 97 88 85
          18 14 15 56 64 60
          48 45 39 8 13 11
          122 123 114 131 126 127
          23 27 25 128 129 119
          70 65 61 4 1 3
          86 98 90 106 97 95
          24 18 20 49 56 54
          52 48 43 5 8 6
          118 111 110 33 28 34
          32 41 38 130 132 124
          58 55 50 108 113 114
          88 76 74 14 9 10
          64 73 67 45 44 36
          13 17 16 123 125 115
          79 91 84 84 91 99
          79 84 71 96 83 93
          93 83 80 96 93 105
          91 100 103 103 100 109
          91 103 99 83 75 72
          72 75 66 83 72 80
          100 96 107 107 96 105
          100 107 109 75 79 69
          69 79 71 75 69 66
          99 103 110 107 105 119
          69 71 59 80 72 67
          109 107 119 66 69 59
          71 84 77 105 93 101
          72 66 62 84 99 95
          93 80 90 103 109 112
          34 42 33 102 108 114
          110 111 104 110 104 99
          46 49 54 46 54 53
          119 129 120 119 120 109
          16 17 19 16 19 21
          7 4 3 39 45 36
          39 36 29 74 76 68
          74 68 63 117 118 110
          117 110 112 117 112 127
          20 18 15 20 15 22
          116 128 119 116 119 105
          15 14 10 15 12 22
          124 132 127 124 127 112
          47 52 43 47 43 35
          90 98 102 90 102 101
          101 102 114 104 106 95
          104 95 99 114 123 115
          114 115 101 67 73 78
          67 78 80 120 130 124
          120 124 109 43 48 39
          43 39 29 19 23 25
          19 25 21 85 88 74
          85 74 77 85 77 95
          85 95 97 38 41 46
          38 46 37 127 133 131
          61 65 57 61 57 51
          115 125 116 115 116 105
          78 86 90 78 90 80
          11 13 16 11 16 21
          10 9 7 10 7 12
          30 32 38 30 38 37
          54 56 60 54 60 62
          62 60 67 67 60 64
          68 70 61 68 61 63
          50 55 47 50 47 35
          3 5 6 3 6 7
          26 24 20 26 20 29
          25 27 30 25 30 37
          36 44 34 36 34 26
          57 58 50 57 50 51
          6 8 11 6 11 12
          126 117 127 122 114 113
          2 3 1 28 26 34
          59 71 63 77 84 95
          101 93 90 62 66 53
          112 109 124 71 77 63
          105 101 115 72 62 67
          103 112 110 77 74 63
          54 62 53 7 6 12
          29 36 26 35 43 29
          10 12 15 20 22 29
          29 22 35 61 51 63
          37 46 53 59 63 51
          53 66 59 22 12 21
          37 53 59 11 21 12
          51 50 35 21 25 37
          35 22 21 59 51 37
          51 35 31 31 35 21
          51 31 37 31 21 37
        </DataArray>
        <DataArray type="Int64" Name="offsets" format="ascii" RangeMin="3" RangeMax="630">
          3 6 9 12 15 18
          21 24 27 30 33 36
          39 42 45 48 51 54
          57 60 63 66 69 72
          75 78 81 84 87 90
          93 96 99 102 105 108
          111 114 117 120 123 126
          129 132 135 138 141 144
          147 150 153 156 159 162
          165 168 171 174 177 180
          183 186 189 192 195 198
          201 204 207 210 213 216
          219 222 225 228 231 234
          237 240 243 246 249 252
          255 258 261 264 267 270
          273 276 279 282 285 288
          291 294 297 300 303 306
          309 312 315 318 321 324
          327 330 333 336 339 342
          345 348 351 354 357 360
          363 366 369 372 375 378
          381 384 387 390 393 396
          399 402 405 408 411 414
          417 420 423 426 429 432
          435 438 441 444 447 450
          453 456 459 462 465 468
          471 474 477 480 483 486
          489 492 495 498 501 504
          507 510 513 516 519 522
          525 528 531 534 537 540
          543 546 549 552 555 558
          561 564 567 570 573 576
          579 582 585 588 591 594
          597 600 603 606 609 612
          615 618 621 624 627 630
        </DataArray>
        <DataArray type="UInt8" Name="types" format="ascii" RangeMin="5" RangeMax="5">
          5 5 5 5 5 5
          5 5 5 5 5 5
          5 5 5 5 5 5
          5 5 5 5 5 5
          5 5 5 5 5 5
          5 5 5 5 5 5
          5 5 5 5 5 5
          5 5 5 5 5 5
          5 5 5 5 5 5
          5 5 5 5 5 5
          5 5 5 5 5 5
          5 5 5 5 5 5
          5 5 5 5 5 5
          5 5 5 5 5 5
          5 5 5 5 5 5
          5 5 5 5 5 5
          5 5 5 5 5 5
          5 5 5 5 5 5
          5 5 5 5 5 5
          5 5 5 5 5 5
          5 5 5 5 5 5
          5 5 5 5 5 5
          5 5 5 5 5 5
          5 5 5 5 5 5
          5 5 5 5 5 5
          5 5 5 5 5 5
          5 5 5 5 5 5
          5 5 5 5 5 5
          5 5 5 5 5 5
          5 5 5 5 5 5
          5 5 5 5 5 5
          5 5 5 5 5 5
          5 5 5 5 5 5
          5 5 5 5 5 5
          5 5 5 5 5 5
        </DataArray>
      </Cells>
    </Piece>
  </UnstructuredGrid>
</VTKFile>
