<?xml version="1.0"?>
<VTKFile type="UnstructuredGrid" version="0.1" byte_order="LittleEndian" header_type="UInt32" compressor="vtkZLibDataCompressor">
  <UnstructuredGrid>
    <Piece NumberOfPoints="135" NumberOfCells="210">
      <PointData>
        <DataArray type="Float64" Name="nsi_BC" NumberOfComponents="3" format="ascii" RangeMin="0" RangeMax="40">
          0 0 0 0 0 0
          0 0 0 0 0 0
          0 0 0 0 0 0
          0 0 0 0 0 0
          0 0 0 0 0 0
          0 0 0 0 0 0
          0 0 0 0 0 0
          0 0 0 0 0 0
          0 0 0 0 0 0
          0 0 0 0 0 0
          0 0 0 0 0 0
          0 0 0 0 0 0
          0 0 0 0 0 0
          0 0 0 0 0 0
          0 0 0 0 0 0
          0 0 0 0 0 0
          0 0 0 0 0 0
          0 0 0 0 0 0
          0 0 0 0 0 0
          0 0 0 0 0 0
          0 0 0 0 0 0
          0 0 0 0 0 0
          0 0 0 0 0 0
          0 0 0 0 0 0
          0 0 0 0 0 0
          0 0 0 0 0 0
          0 0 0 0 0 0
          0 0 0 0 0 0
          0 0 0 0 0 0
          0 0 0 0 0 0
          0 0 0 0 0 0
          0 0 0 0 0 0
          0 0 0 0 0 0
          0 0 0 0 0 0
          0 0 0 0 0 0
          0 0 0 0 0 0
          0 0 0 0 0 0
          0 0 0 0 0 0
          0 0 0 0 0 0
          0 0 0 0 0 0
          0 0 0 0 0 0
          0 0 0 0 0 0
          0 0 0 0 0 0
          0 0 0 0 0 0
          0 0 0 0 0 0
          0 0 0 0 0 0
          0 0 0 0 0 0
          0 0 0 0 0 0
          0 0 0 0 0 0
          0 0 0 0 0 0
          0 0 0 0 0 0
          0 0 0 0 0 0
          0 0 0 0 0 0
          0 0 0 0 0 0
          0 0 0 0 0 0
          0 0 0 0 0 0
          0 0 0 0 0 0
          0 0 0 0 0 0
          0 0 0 0 0 0
          0 0 0 0 0 0
          0 0 0 40 0 0
          40 0 0 40 0 0
          0 0 0 40 0 0
          0 0 0 0 0 0
          40 0 0 40 0 0
          40 0 0 0 0 0
          40 0 0 40 0 0
          40 0 0
          <InformationKey name="L2_NORM_RANGE" location="vtkDataArray" length="2">
            <Value index="0">
              0
            </Value>
            <Value index="1">
              40
            </Value>
          </InformationKey>
        </DataArray>
        <DataArray type="Float64" Name="nsi_FIXNO" NumberOfComponents="3" format="ascii" RangeMin="0" RangeMax="1.4142135623730951">
          0 1 0 0 0 0
          0 1 0 -1 -1 0
          0 0 0 0 1 0
          -1 -1 0 -1 -1 0
          0 1 0 0 0 0
          -1 -1 0 -1 -1 0
          -1 -1 0 0 1 0
          0 0 0 -1 -1 0
          -1 -1 0 0 1 0
          0 0 0 -1 -1 0
          -1 -1 0 -1 -1 0
          -1 -1 0 0 1 0
          0 0 0 -1 -1 0
          -1 -1 0 0 1 0
          0 0 0 -1 -1 0
          -1 -1 0 -1 -1 0
          0 1 0 0 0 0
          -1 -1 0 -1 -1 0
          -1 -1 0 -1 -1 0
          -1 -1 0 -1 -1 0
          0 1 0 0 1 0
          0 1 0 -1 -1 0
          0 1 0 0 1 0
          -1 -1 0 -1 -1 0
          0 1 0 0 1 0
          -1 -1 0 -1 -1 0
          0 1 0 -1 -1 0
          -1 -1 0 0 1 0
          0 1 0 -1 -1 0
          0 1 0 -1 -1 0
          -1 -1 0 -1 -1 0
          -1 -1 0 -1 -1 0
          0 1 0 0 1 0
          -1 -1 0 -1 -1 0
          -1 -1 0 -1 -1 0
          0 1 0 -1 -1 0
          -1 -1 0 0 1 0
          -1 -1 0 -1 -1 0
          0 1 0 -1 -1 0
          -1 -1 0 -1 -1 0
          -1 -1 0 1 1 0
          1 1 0 -1 -1 0
          -1 -1 0 -1 -1 0
          0 1 0 1 1 0
          0 1 0 1 1 0
          -1 -1 0 -1 -1 0
          1 1 0 -1 -1 0
          1 1 0 -1 -1 0
          -1 -1 0 0 1 0
          0 1 0 -1 -1 0
          -1 -1 0 -1 -1 0
          -1 -1 0 -1 -1 0
          -1 -1 0 -1 -1 0
          0 1 0 -1 -1 0
          0 1 0 -1 -1 0
          -1 -1 0 0 1 0
          -1 -1 0 0 1 0
          -1 -1 0 -1 -1 0
          -1 -1 0 -1 -1 0
          0 1 0 -1 -1 0
          -1 -1 0 1 1 0
          1 1 0 1 1 0
          -1 -1 0 1 1 0
          0 1 0 -1 -1 0
          1 1 0 1 1 0
          1 1 0 0 1 0
          1 1 0 1 1 0
          1 1 0
          <InformationKey name="L2_NORM_RANGE" location="vtkDataArray" length="2">
            <Value index="0">
              0
            </Value>
            <Value index="1">
              1.4142135624
            </Value>
          </InformationKey>
        </DataArray>
      </PointData>
      <CellData>
        <DataArray type="UInt8" Name="vtkGhostType" format="ascii" RangeMin="0" RangeMax="0">
          0 0 0 0 0 0
          0 0 0 0 0 0
          0 0 0 0 0 0
          0 0 0 0 0 0
          0 0 0 0 0 0
          0 0 0 0 0 0
          0 0 0 0 0 0
          0 0 0 0 0 0
          0 0 0 0 0 0
          0 0 0 0 0 0
          0 0 0 0 0 0
          0 0 0 0 0 0
          0 0 0 0 0 0
          0 0 0 0 0 0
          0 0 0 0 0 0
          0 0 0 0 0 0
          0 0 0 0 0 0
          0 0 0 0 0 0
          0 0 0 0 0 0
          0 0 0 0 0 0
          0 0 0 0 0 0
          0 0 0 0 0 0
          0 0 0 0 0 0
          0 0 0 0 0 0
          0 0 0 0 0 0
          0 0 0 0 0 0
          0 0 0 0 0 0
          0 0 0 0 0 0
          0 0 0 0 0 0
          0 0 0 0 0 0
          0 0 0 0 0 0
          0 0 0 0 0 0
          0 0 0 0 0 0
          0 0 0 0 0 0
          0 0 0 0 0 0
        </DataArray>
      </CellData>
      <Points>
        <DataArray type="Float32" Name="Points" NumberOfComponents="3" format="ascii" RangeMin="0" RangeMax="17.88854381999832">
          16 8 0 16 7.111111164093018 0
          15.111109733581543 8 0 15.064430236816406 6.992426872253418 0
          16 6.222221851348877 0 14.222220420837402 8 0
          13.976409912109375 6.843448162078857 0 15.076860427856445 5.777778148651123 0
          13.333330154418945 8 0 16 5.3333330154418945 0
          15.1806001663208 4.97777795791626 0 12.810070037841797 6.8727240562438965 0
          13.749300003051758 5.3333330154418945 0 12.444439888000488 8 0
          16 4.444444179534912 0 15.076860427856445 4 0
          12 7.076855182647705 0 11.555560111999512 8 0
          16 3.555556058883667 0 11.199999809265137 7.180602073669434 0
          15.076860427856445 3.1111109256744385 0 11.555560111999512 5.749299049377441 0
          13.749300003051758 3.555556058883667 0 10.666669845581055 8 0
          16 2.6666669845581055 0 10.237039566040039 6.959342956542969 0
          14.809109687805176 1.9420909881591797 0 9.777777671813965 8 0
          16 1.7777780294418335 0 13.333330154418945 2.2507009506225586 0
          9.333333015441895 7.076855182647705 0 10.222220420837402 3.9827520847320557 0
          8.88888931274414 8 0 16 0.8888888955116272 0
          14.986700057983398 0.9219837188720703 0 11.555560111999512 2.2507009506225586 0
          13.777779579162598 0.9231445789337158 0 8.88888931274414 5.749299049377441 0
          8.533332824707031 7.180602073669434 0 12.97778034210205 0.8193979859352112 0
          16 0 0 8 8 0
          15.111109733581543 0 0 12 0.9231445789337158 0
          14.222220420837402 0 0 13.333330154418945 0 0
          7.555555820465088 7.076855182647705 0 11.199999809265137 0.8193979859352112 0
          12.444439888000488 0 0 7.111111164093018 8 0
          10.222220420837402 0.9231445789337158 0 8.88888931274414 2.2507009506225586 0
          11.555560111999512 0 0 7.111111164093018 5.749299049377441 0
          6.6666669845581055 7.076855182647705 0 10.666669845581055 0 0
          6.222221851348877 8 0 9.244443893432617 0.8193979859352112 0
          9.777777671813965 0 0 6.700017929077148 3.6636950969696045 0
          5.777778148651123 7.076855182647705 0 8.444443702697754 0.9231445789337158 0
          5.675971031188965 6.142068862915039 0 7.111111164093018 2.2507009506225586 0
          5.3333330154418945 8 0 8.88888931274414 0 0
          5.699848175048828 4.957938194274902 0 4.888888835906982 7.076855182647705 0
          7.466667175292969 0.8193979859352112 0 5.571450233459473 4 0
          8 0 0 5.699848175048828 3.0420620441436768 0
          4.785725116729736 5.3609161376953125 0 4.444444179534912 8 0
          6.6666669845581055 0.9231445789337158 0 4.824699878692627 4.476140975952148 0
          7.111111164093018 0 0 5.675971031188965 1.8579310178756714 0
          4 7.076855182647705 0 4.824699878692627 3.5238590240478516 0
          4.020326137542725 5.951079845428467 0 4.5 4 0
          4.25 4.433012962341309 0 4 4.952281951904297 0
          4.785725116729736 2.6390841007232666 0 5.777778148651123 0.9231445789337158 0
          3.555556058883667 8 0 4.25 3.5669870376586914 0
          6.222221851348877 0 0 3.75 4.433012962341309 0
          3.1111109256744385 7.076855182647705 0 4 3.047718048095703 0
          3.75 3.5669870376586914 0 3.2142748832702637 5.3609161376953125 0
          3.5 4 0 4.888888835906982 0.9231445789337158 0
          3.175299882888794 4.476140975952148 0 5.3333330154418945 0 0
          2.6666669845581055 8 0 3.9796741008758545 2.048919916152954 0
          3.175299882888794 3.5238590240478516 0 2.324028968811035 6.142068862915039 0
          2.222222089767456 7.076855182647705 0 3.2142748832702637 2.6390841007232666 0
          4 0.9231445789337158 0 2.300152063369751 4.957938194274902 0
          4.444444179534912 0 0 2.4285500049591064 4 0
          1.7777780294418335 8 0 2.300152063369751 3.0420620441436768 0
          3.1111109256744385 0.9231445789337158 0 3.555556058883667 0 0
          2.324028968811035 1.8579310178756714 0 0.8888888955116272 8 0
          0.9231445789337158 6.6666669845581055 0 0.9231445789337158 5.777778148651123 0
          0.9231445789337158 4.888888835906982 0 2.222222089767456 0.9231445789337158 0
          2.6666669845581055 0 0 0.9231445789337158 4 0
          0.9231445789337158 3.1111109256744385 0 0 8 0
          0 7.111111164093018 0 0 6.222221851348877 0
          0.9231445789337158 2.222222089767456 0 0 5.3333330154418945 0
          1.7777780294418335 0 0 1.1622949838638306 1.095708966255188 0
          0 4.444444179534912 0 0 3.555556058883667 0
          0 2.6666669845581055 0 0.8888888955116272 0 0
          0 1.7777780294418335 0 0 0.8888888955116272 0
          0 0 0
          <InformationKey name="L2_NORM_RANGE" location="vtkDataArray" length="2">
            <Value index="0">
              0
            </Value>
            <Value index="1">
              17.88854382
            </Value>
          </InformationKey>
        </DataArray>
      </Points>
      <Cells>
        <DataArray type="Int64" Name="connectivity" format="ascii" RangeMin="0" RangeMax="134">
          81 87 79 92 94 100
          89 82 83 87 92 91
          94 89 96 82 81 75
          79 87 91 83 82 75
          96 89 83 100 94 96
          91 92 100 75 81 79
          134 131 133 44 42 34
          17 23 19 125 128 116
          76 70 68 9 4 7
          73 86 78 111 106 104
          28 24 26 41 49 46
          132 133 127 55 52 47
          2 5 3 113 121 122
          126 118 117 40 33 42
          27 32 30 129 130 120
          65 58 57 1 0 2
          98 108 102 97 88 85
          18 14 15 56 64 60
          48 45 39 8 13 11
          122 123 114 131 126 127
          23 27 25 128 129 119
          70 65 61 4 1 3
          86 98 90 106 97 95
          24 18 20 49 56 54
          52 48 43 5 8 6
          118 111 110 33 28 34
          32 41 38 130 132 124
          58 55 50 108 113 114
          88 76 74 14 9 10
          64 73 67 45 44 36
          13 17 16 123 125 115
          79 91 84 84 91 99
          79 84 71 96 83 93
          93 83 80 96 93 105
          91 100 103 103 100 109
          91 103 99 83 75 72
          72 75 66 83 72 80
          100 96 107 107 96 105
          100 107 109 75 79 69
          69 79 71 75 69 66
          99 103 110 107 105 119
          69 71 59 80 72 67
          109 107 119 66 69 59
          71 84 77 105 93 101
          72 66 62 84 99 95
          93 80 90 103 109 112
          34 42 33 102 108 114
          110 111 104 110 104 99
          46 49 54 46 54 53
          119 129 120 119 120 109
          16 17 19 16 19 21
          7 4 3 39 45 36
          39 36 29 74 76 68
          74 68 63 117 118 110
          117 110 112 117 112 127
          20 18 15 20 15 22
          116 128 119 116 119 105
          15 14 10 15 12 22
          124 132 127 124 127 112
          47 52 43 47 43 35
          90 98 102 90 102 101
          101 102 114 104 106 95
          104 95 99 114 123 115
          114 115 101 67 73 78
          67 78 80 120 130 124
          120 124 109 43 48 39
          43 39 29 19 23 25
          19 25 21 85 88 74
          85 74 77 85 77 95
          85 95 97 38 41 46
          38 46 37 127 133 131
          61 65 57 61 57 51
          115 125 116 115 116 105
          78 86 90 78 90 80
          11 13 16 11 16 21
          10 9 7 10 7 12
          30 32 38 30 38 37
          54 56 60 54 60 62
          62 60 67 67 60 64
          68 70 61 68 61 63
          50 55 47 50 47 35
          3 5 6 3 6 7
          26 24 20 26 20 29
          25 27 30 25 30 37
          36 44 34 36 34 26
          57 58 50 57 50 51
          6 8 11 6 11 12
          126 117 127 122 114 113
          2 3 1 28 26 34
          59 71 63 77 84 95
          101 93 90 62 66 53
          112 109 124 71 77 63
          105 101 115 72 62 67
          103 112 110 77 74 63
          54 62 53 7 6 12
          29 36 26 35 43 29
          10 12 15 20 22 29
          29 22 35 61 51 63
          37 46 53 59 63 51
          53 66 59 22 12 21
          37 53 59 11 21 12
          51 50 35 21 25 37
          35 22 21 59 51 37
          51 35 31 31 35 21
          51 31 37 31 21 37
        </DataArray>
        <DataArray type="Int64" Name="offsets" format="ascii" RangeMin="3" RangeMax="630">
          3 6 9 12 15 18
          21 24 27 30 33 36
          39 42 45 48 51 54
          57 60 63 66 69 72
          75 78 81 84 87 90
          93 96 99 102 105 108
          111 114 117 120 123 126
          129 132 135 138 141 144
          147 150 153 156 159 162
          165 168 171 174 177 180
          183 186 189 192 195 198
          201 204 207 210 213 216
          219 222 225 228 231 234
          237 240 243 246 249 252
          255 258 261 264 267 270
          273 276 279 282 285 288
          291 294 297 300 303 306
          309 312 315 318 321 324
          327 330 333 336 339 342
          345 348 351 354 357 360
          363 366 369 372 375 378
          381 384 387 390 393 396
          399 402 405 408 411 414
          417 420 423 426 429 432
          435 438 441 444 447 450
          453 456 459 462 465 468
          471 474 477 480 483 486
          489 492 495 498 501 504
          507 510 513 516 519 522
          525 528 531 534 537 540
          543 546 549 552 555 558
          561 564 567 570 573 576
          579 582 585 588 591 594
          597 600 603 606 609 612
          615 618 621 624 627 630
        </DataArray>
        <DataArray type="UInt8" Name="types" format="ascii" RangeMin="5" RangeMax="5">
          5 5 5 5 5 5
          5 5 5 5 5 5
          5 5 5 5 5 5
          5 5 5 5 5 5
          5 5 5 5 5 5
          5 5 5 5 5 5
          5 5 5 5 5 5
          5 5 5 5 5 5
          5 5 5 5 5 5
          5 5 5 5 5 5
          5 5 5 5 5 5
          5 5 5 5 5 5
          5 5 5 5 5 5
          5 5 5 5 5 5
          5 5 5 5 5 5
          5 5 5 5 5 5
          5 5 5 5 5 5
          5 5 5 5 5 5
          5 5 5 5 5 5
          5 5 5 5 5 5
          5 5 5 5 5 5
          5 5 5 5 5 5
          5 5 5 5 5 5
          5 5 5 5 5 5
          5 5 5 5 5 5
          5 5 5 5 5 5
          5 5 5 5 5 5
          5 5 5 5 5 5
          5 5 5 5 5 5
          5 5 5 5 5 5
          5 5 5 5 5 5
          5 5 5 5 5 5
          5 5 5 5 5 5
          5 5 5 5 5 5
          5 5 5 5 5 5
        </DataArray>
      </Cells>
    </Piece>
  </UnstructuredGrid>
</VTKFile>
