<?xml version="1.0"?>
<VTKFile type="UnstructuredGrid" version="0.1" byte_order="LittleEndian" header_type="UInt32" compressor="vtkZLibDataCompressor">
  <UnstructuredGrid>
    <Piece NumberOfPoints="83" NumberOfCells="64">
      <PointData>
        <DataArray type="Float64" Name="sld_BC" NumberOfComponents="3" format="ascii" RangeMin="0" RangeMax="0">
          0 0 0 0 0 0
          0 0 0 0 0 0
          0 0 0 0 0 0
          0 0 0 0 0 0
          0 0 0 0 0 0
          0 0 0 0 0 0
          0 0 0 0 0 0
          0 0 0 0 0 0
          0 0 0 0 0 0
          0 0 0 0 0 0
          0 0 0 0 0 0
          0 0 0 0 0 0
          0 0 0 0 0 0
          0 0 0 0 0 0
          0 0 0 0 0 0
          0 0 0 0 0 0
          0 0 0 0 0 0
          0 0 0 0 0 0
          0 0 0 0 0 0
          0 0 0 0 0 0
          0 0 0 0 0 0
          0 0 0 0 0 0
          0 0 0 0 0 0
          0 0 0 0 0 0
          0 0 0 0 0 0
          0 0 0 0 0 0
          0 0 0 0 0 0
          0 0 0 0 0 0
          0 0 0 0 0 0
          0 0 0 0 0 0
          0 0 0 0 0 0
          0 0 0 0 0 0
          0 0 0 0 0 0
          0 0 0 0 0 0
          0 0 0 0 0 0
          0 0 0 0 0 0
          0 0 0 0 0 0
          0 0 0 0 0 0
          0 0 0 0 0 0
          0 0 0 0 0 0
          0 0 0 0 0 0
          0 0 0
          <InformationKey name="L2_NORM_RANGE" location="vtkDataArray" length="2">
            <Value index="0">
              0
            </Value>
            <Value index="1">
              0
            </Value>
          </InformationKey>
        </DataArray>
        <DataArray type="Float64" Name="sld_FIXNO" NumberOfComponents="3" format="ascii" RangeMin="1.4142135623730951" RangeMax="1.4142135623730951">
          -1 -1 0 -1 -1 0
          -1 -1 0 -1 -1 0
          -1 -1 0 -1 -1 0
          -1 -1 0 -1 -1 0
          -1 -1 0 -1 -1 0
          -1 -1 0 -1 -1 0
          -1 -1 0 -1 -1 0
          -1 -1 0 -1 -1 0
          -1 -1 0 -1 -1 0
          -1 -1 0 -1 -1 0
          -1 -1 0 -1 -1 0
          -1 -1 0 -1 -1 0
          -1 -1 0 -1 -1 0
          -1 -1 0 -1 -1 0
          -1 -1 0 -1 -1 0
          -1 -1 0 -1 -1 0
          -1 -1 0 -1 -1 0
          -1 -1 0 -1 -1 0
          -1 -1 0 -1 -1 0
          -1 -1 0 -1 -1 0
          -1 -1 0 -1 -1 0
          -1 -1 0 -1 -1 0
          -1 -1 0 -1 -1 0
          -1 -1 0 -1 -1 0
          -1 -1 0 -1 -1 0
          -1 -1 0 -1 -1 0
          -1 -1 0 -1 -1 0
          -1 -1 0 -1 -1 0
          -1 -1 0 -1 -1 0
          -1 -1 0 -1 -1 0
          -1 -1 0 -1 -1 0
          -1 -1 0 -1 -1 0
          -1 -1 0 -1 -1 0
          -1 -1 0 -1 -1 0
          -1 -1 0 -1 -1 0
          1 1 0 1 1 0
          1 1 0 1 1 0
          1 1 0 1 1 0
          -1 -1 0 -1 -1 0
          -1 -1 0 -1 -1 0
          -1 -1 0 -1 -1 0
          -1 -1 0
          <InformationKey name="L2_NORM_RANGE" location="vtkDataArray" length="2">
            <Value index="0">
              1.4142135624
            </Value>
            <Value index="1">
              1.4142135624
            </Value>
          </InformationKey>
        </DataArray>
        <DataArray type="Float64" Name="Disp" NumberOfComponents="3" format="ascii" RangeMin="0" RangeMax="0.00018946148765420034">
          -0.000007319964982974757 0.00016909632466192596 0 0.0000030191319772413297 0.0001681656205576192 0
          0.000013376817615595222 0.00016716657763919595 0 0.000023869854242477853 0.00016609131925735988 0
          -0.000028368675448600097 0.00015180017439512172 0 -0.0000175983122604986 0.0001509073053860056 0
          -0.000007049286950121199 0.0001500017425136365 0 0.0000034026937540551923 0.0001490849608572221 0
          0.000013884166719183158 0.00014815388997778327 0 0.000024521354072727993 0.0001472001952902717 0
          -0.000027997719527679784 0.00013270865329405486 0 -0.000017250080850735194 0.00013171369629304768 0
          -0.000006735324849371353 0.0001307622551248323 0 0.0000036823261042431198 0.0001298577279965646 0
          0.000014139647663809181 0.00012899764799964542 0 0.000024774791335721814 0.0001281742079864221 0
          -0.000027265790234492864 0.00011375567886808574 0 -0.00001669498311936615 0.00011264667655115767 0
          -0.000006371458776703509 0.00011164291671182007 0 0.000003853138736212572 0.0001107481088202169 0
          0.00001412687205063655 0.00010996020906533787 0 0.00002459774056162333 0.00010927178671544193 0
          -0.000026134035448122574 0.00009523656790792005 0 -0.000015911376208973747 0.0000939998166616665 0
          -0.000005949191082579364 0.00009293576728062867 0 0.000003911642906496981 0.00009204788367307255 0
          0.000013830035682368843 0.00009133445286009734 0 0.000023964868095231715 0.0000907884865818199 0
          -0.000024565855129212902 0.000077466243212247 0 -0.000014875151184798854 0.00007608806664693976 0
          -0.000005457589568321935 0.00007495462721373271 0 0.000003856361671418388 0.00007406909236032066 0
          0.000013235908919050684 0.00007342954244920477 0 0.000022850295052361622 0.00007302906159464084 0
          -0.000022525025387611025 0.000060779944308233044 0 -0.000013562156636124766 0.00005924700705859899 0
          -0.0000048846275500846906 0.000058035479766735457 0 0.0000036875998326122213 0.000057148216435066276 0
          0.00001233361856015809 0.000056582865242014 0 0.000021231632592743847 0.00005633274582128162 0
          -0.00001997591155891493 0.00004553256212875972 0 -0.000011949145136560085 0.00004383236521027896 0
          -0.0000042182119731185616 0.000042534503415773934 0 0.0000034063833087022074 0.000041640471739580377 0
          0.000011112673858590338 0.000041148888794507386 0 0.00001908839328989855 0.00004105269104965561 0
          -0.00001688763473177812 0.00003210204201446155 0 -0.000010013696554898154 0.000030224991178423843 0
          -0.000003442034876427349 0.000028828824567929147 0 0.000003018556367378208 0.000027919237291250334 0
          0.000009565057721366392 0.000027497145546961308 0 0.000016398554010607573 0.000027559805390747625 0
          -0.000013239920204482135 0.00002089341885189805 0 -0.000007733871290692884 0.000018825620455562996 0
          -0.00000252669150194267 0.000017319340402266384 0 0.000002548969276528877 0.000016369194505780746 0
          0.000007680817563508173 0.00001600960251272593 0 0.000013122188399899894 0.00001624457118814884 0
          -0.00000911420801294517 0.000012242006624403277 0 -0.000005079608242587498 0.000010040376618696442 0
          -0.0000013956933521970112 0.000008360904028161695 0 0.0000019903006984782145 0.000007389774436647559 0
          0.000005434344219550808 0.000007131796304595409 0 0.000009197881532670064 0.000007553734865779779 0
          -0.0000045108473891265085 0.000006495514905059884 0 -0.0000018767547495721348 0.000003858759189619377 0
          -2.4932551746069785e-7 0.000002301421201601807 0 0.000001229536656961168 0.0000015333566631397725 0
          0.0000027315083331052426 0.0000014607752022806674 0 0.000004576440361293943 0.000002169717835780383 0
          0 0 0 0 0 0
          0 0 0 0 0 0
          0 0 0 0 0 0
          -0.000017757577655691726 0.00016996219032285146 0 -0.000028411819181953058 0.00017076281186893688 0
          -0.000007550856197738099 0.0001877993703773224 0 -0.000017741837265974947 0.00018862895460286676 0
          0.0000025395834914288737 0.00018685539999741506 0 0.000012637791178745868 0.00018579357243936432 0
          0.00002285202464757344 0.00018460602356768 0
          <InformationKey name="L2_NORM_RANGE" location="vtkDataArray" length="2">
            <Value index="0">
              0
            </Value>
            <Value index="1">
              0.00018946148765
            </Value>
          </InformationKey>
        </DataArray>
        <DataArray type="Float64" Name="Sld_traction" NumberOfComponents="3" format="ascii" RangeMin="0" RangeMax="1196.503136498115">
          0 0 0 0 0 0
          0 0 0 -22.213662423505276 -584.7860875888896 0
          10.399981314791264 629.9429031367872 0 0 0 0
          0 0 0 0 0 0
          0 0 0 -22.464186152018858 -603.0471100258555 0
          13.373673685026231 608.6192645709741 0 0 0 0
          0 0 0 0 0 0
          0 0 0 -23.275492717117597 -623.858335533539 0
          15.642299607117923 585.4286370088329 0 0 0 0
          0 0 0 0 0 0
          0 0 0 -24.508755495719168 -647.9599685590642 0
          17.518626903235457 560.9910343027486 0 0 0 0
          0 0 0 0 0 0
          0 0 0 -25.921101085042295 -674.1081131656553 0
          19.22047587544887 535.858616092368 0 0 0 0
          0 0 0 0 0 0
          0 0 0 -27.460923573187433 -703.5371031674235 0
          20.836913038528213 509.94637094476485 0 0 0 0
          0 0 0 0 0 0
          0 0 0 -28.85492250478273 -735.3237933148308 0
          22.292062465032476 483.2928864232523 0 0 0 0
          0 0 0 0 0 0
          0 0 0 -30.356730517176434 -769.7756401792996 0
          22.708135103892168 457.223488842235 0 0 0 0
          0 0 0 0 0 0
          0 0 0 -32.652891263505246 -808.2191186256475 0
          21.282265270940346 440.9371140203725 0 0 0 0
          0 0 0 0 0 0
          0 0 0 -36.60128159740346 -851.8699957204575 0
          7.076667920839452 447.61000645890834 0 0 0 0
          0 0 0 0 0 0
          0 0 0 -34.54446150655329 -889.9675911604811 0
          132.74351661773215 296.03029945712416 0 0 0 0
          0 0 0 0 0 0
          0 0 0 -36.13538556430241 -902.8144035354318 0
          789.5188400436946 -544.027278589345 0 873.9606580364175 -287.62109198717286 0
          117.13021032172493 -173.27373205797895 0 -526.9458889208179 -117.46281886878445 0
          -1191.1247177941655 -113.32105854428116 0 -662.9680975809125 -767.1732821691287 0
          0 0 0 6.541465951446734 650.9553194326245 0
          0 0 0 0 0 0
          0 0 0 0 0 0
          -22.23571404894371 -568.055645588478 0
          <InformationKey name="L2_NORM_RANGE" location="vtkDataArray" length="2">
            <Value index="0">
              0
            </Value>
            <Value index="1">
              1196.5031365
            </Value>
          </InformationKey>
        </DataArray>
        <DataArray type="Float64" Name="Fld_traction" NumberOfComponents="3" format="ascii" RangeMin="0" RangeMax="650.5121914740789">
          0 0 0 0 0 0
          0 0 0 -7.315952669315995 -615.2403550328406 0
          -10.070839953770166 624.9403326934565 0 0 0 0
          0 0 0 0 0 0
          0 0 0 -5.821833248415238 -613.4673543294 0
          -8.575649290543891 624.3782980108381 0 0 0 0
          0 0 0 0 0 0
          0 0 0 -4.558181675887227 -612.1440234753032 0
          -8.033424709719476 624.2707359376705 0 0 0 0
          0 0 0 0 0 0
          0 0 0 -4.174134563148616 -612.5369042650793 0
          -7.615532289077386 625.1438599891762 0 0 0 0
          0 0 0 0 0 0
          0 0 0 -3.829125267054357 -613.2348229063064 0
          -7.332694522788467 627.0822452361967 0 0 0 0
          0 0 0 0 0 0
          0 0 0 -3.712629926654572 -615.7183282443159 0
          -7.100409630790747 630.002230196799 0 0 0 0
          0 0 0 0 0 0
          0 0 0 -3.600877248388856 -618.954345959259 0
          -6.87021732675883 633.5440549706364 0 0 0 0
          0 0 0 0 0 0
          0 0 0 -3.499852324638184 -623.0705225629561 0
          -6.57607455206919 637.7681349876684 0 0 0 0
          0 0 0 0 0 0
          0 0 0 -3.4566913977562503 -627.6295884289518 0
          -5.9615953706709 642.5865665348799 0 0 0 0
          0 0 0 0 0 0
          0 0 0 -3.462121635799605 -632.757708319593 0
          -4.822321168520652 647.5346172301741 0 0 0 0
          0 0 0 0 0 0
          0 0 0 -3.250315676686852 -637.3676511995554 0
          -2.901155232840964 650.505722153713 0 0 0 0
          0 0 0 0 0 0
          0 0 0 -1.8812363404088135 -640.7337117751676 0
          307.95554955962274 408.2552900309658 0 0 0 0
          0 0 0 0 0 0
          0 0 0 304.32301258662704 -401.88423239781883 0
          0 0 0 -13.448897051943373 626.4003124737444 0
          0 0 0 0 0 0
          0 0 0 0 0 0
          -8.943019452342975 -617.025672307671 0
          <InformationKey name="L2_NORM_RANGE" location="vtkDataArray" length="2">
            <Value index="0">
              0
            </Value>
            <Value index="1">
              650.51219147
            </Value>
          </InformationKey>
        </DataArray>
        <DataArray type="Float64" Name="Velocity" NumberOfComponents="3" format="ascii" RangeMin="0" RangeMax="0.0022430031448428256">
          0.0006751055555929703 0.0016786267568039957 0 0.0008099049826726598 0.001677872834627054 0
          0.0009432670011370515 0.0016780709380967364 0 0.0010771607086078024 0.0016792534573939629 0
          0.000342679977457775 0.0014449812434247328 0 0.0004833501993955198 0.0014378846465278052 0
          0.0006183096421447893 0.0014327157554320396 0 0.0007495918521181535 0.0014295371579837134 0
          0.0008791140705803305 0.0014283642873714974 0 0.0010089171746123162 0.0014292553234272311 0
          0.0002984082159254042 0.0012152744617483398 0 0.0004334451834261451 0.0012038522933454534 0
          0.0005626077944561213 0.0011954925557479742 0 0.0006878378252464494 0.0011900737354611458 0
          0.0008109993121730705 0.0011875718530174463 0 0.0009339022811555024 0.0011880329927608847 0
          0.0002605288499598462 0.0009988032613470303 0 0.0003870432374951721 0.0009833843065425974 0
          0.0005079091922548076 0.0009720955299616699 0 0.000624746749039689 0.0009647007730629876 0
          0.0007391745930749453 0.0009611199039682697 0 0.0008528402355281995 0.0009614341879247875 0
          0.00022787290473063864 0.0007988816057297052 0 0.0003436320073224074 0.0007802922271066604 0
          0.0004540234099712348 0.0007666249718658973 0 0.0005604412431156608 0.0007575633374884828 0
          0.0006641931925306773 0.0007529242220606915 0 0.0007665138735992479 0.0007527004325285186 0
          0.00019908836159901648 0.0006188511960023015 0 0.0003022235827553773 0.0005980171067313223 0
          0.00040045872675600755 0.0005827318279034734 0 0.0004948869898518562 0.0005726043252250105 0
          0.0005864992997518195 0.0005674095064637954 0 0.0006761431265074656 0.0005670919983743943 0
          0.00017252179487590183 0.0004612428359360687 0 0.0002617327070851237 0.00043916755000202875 0
          0.0003466043452745524 0.0004229843322448634 0 0.0004279494436224455 0.00041225996041117783 0
          0.0005064300876229448 0.0004067069749650529 0 0.0005826167491856072 0.0004061886331762201 0
          0.00014688929794485678 0.0003286978149862188 0 0.00022129274066385278 0.0003059534128712687 0
          0.0002920675702801334 0.0002893288504502623 0 0.0003597028408642163 0.00027833219183346204 0
          0.00042458800511362225 0.00027260949907153214 0 0.0004869571551532551 0.0002719283023090301 0
          0.0001212199220393584 0.00022217390884842083 0 0.0001804063848159031 0.0001992374991374587 0
          0.00023668608429648296 0.0001824979440353851 0 0.00029030400192294034 0.00017147076540741237 0
          0.00034138828424454026 0.00016577650695178146 0 0.000389987678694227 0.0001651518066408442 0
          0.00009503360781237255 0.00014176665397009835 0 0.00013880260354655268 0.00011882777846966878 0
          0.00018066104475966495 0.0001020561426339786 0 0.0002201985044652744 0.00009086558584485736 0
          0.0002572653078397961 0.00008517276906646 0 0.00029214718696899246 0.00008464115211216931 0
          0.0000666427232296977 0.00008523964475661621 0 0.00009660157254415432 0.00006313391296207038 0
          0.00012475407002040674 0.00004596678964657787 0 0.00014979426854402436 0.00003488330274687189 0
          0.00017264901620205728 0.000029365016024618143 0 0.00019373204479368892 0.000028977232858383797 0
          0.000036054873868672835 0.000050267818218844944 0 0.000055424062965975766 0.00002647035943185434 0
          0.0000673024351949014 0.000011549155794221034 0 0.00007779413977845867 0.0000029880571850513745 0
          0.00008731848244049216 -7.706045333373649e-7 0 0.00009507393820430877 -7.32372970973583e-7 0
          0 0 0 0 0 0
          0 0 0 0 0 0
          0 0 0 0 0 0
          0.0005369754502713465 0.0016802385646696128 0 0.0003938768601936186 0.0016825532526811692 0
          0.0007327361581922159 0.0019288168095740964 0 0.0005941976676287577 0.0019270978239712487 0
          0.00086836271636379 0.0019302331125570214 0 0.0010029229402366393 0.001931502648564894 0
          0.0011382031122073963 0.0019327588528153744 0
          <InformationKey name="L2_NORM_RANGE" location="vtkDataArray" length="2">
            <Value index="0">
              0
            </Value>
            <Value index="1">
              0.0022430031448
            </Value>
          </InformationKey>
        </DataArray>
      </PointData>
      <CellData>
        <DataArray type="UInt8" Name="vtkGhostType" format="ascii" RangeMin="0" RangeMax="1">
          1 1 0 1 1 1
          1 0 0 0 0 0
          0 0 0 0 0 0
          0 0 0 0 0 0
          0 0 0 0 0 0
          0 0 0 0 0 0
          0 0 0 0 0 0
          0 0 0 0 0 0
          0 0 0 0 0 0
          0 0 0 0 0 0
          0 0 0 0
        </DataArray>
        <DataArray type="Float64" Name="Gauss Stress" NumberOfComponents="6" format="ascii" RangeMin="311.724229717212" RangeMax="1585.7884479670918">
          398.08366310481574 624.2420248824096 0 14.518061916773576 0 0
          368.5629580050498 620.8379372105281 0 46.554419700427985 0 0
          339.4681227001391 617.2924379051815 0 59.66122029418401 0 0
          394.81380247246426 622.2621992508928 0 41.206649240906415 0 0
          333.6099080882854 618.801354050297 0 54.39238825082741 0 0
          271.5858614471588 616.2162677147558 0 49.96019811977374 0 0
          207.23574214111952 615.3291441483171 0 27.931851938804687 0 0
          -705.5368329102425 79.2445325997972 0 203.9042093352151 0 0
          -64.83726917728217 281.31501581549855 0 117.60096000946426 0 0
          401.4803216922887 427.68792254824115 0 44.12672854657217 0 0
          864.2969390325426 591.2928372231149 0 12.777869002347277 0 0
          1383.6332667235838 774.6525455503963 0 14.050572728265724 0 0
          -457.0940758660859 703.6673548337153 0 7.4962238506210355 0 0
          -118.92831148216655 595.5557824296666 0 103.68597363925102 0 0
          353.4961328494706 598.5046370859939 0 120.1891924754103 0 0
          823.6274951846958 618.4281756773989 0 101.44291425462029 0 0
          1282.9429565607008 620.1094465180465 0 43.39579107194626 0 0
          -378.03037601411063 638.5677632199784 0 24.035979946989876 0 0
          -9.130874884426987 658.8190141215136 0 75.78454237869042 0 0
          361.1507110430379 642.2964951582553 0 109.7658497367493 0 0
          756.819196144748 634.470989370214 0 99.98759986768084 0 0
          1157.2904780025256 635.8850964396512 0 50.64337277667505 0 0
          -274.4582423249746 640.8864341715698 0 30.632181930104068 0 0
          48.62019346071361 639.1982525723439 0 79.17794518525088 0 0
          375.32726972521914 639.8204245534915 0 99.9551016345464 0 0
          703.997051502079 634.34725061277 0 90.54859895561282 0 0
          1033.9943950765753 629.4428119759375 0 45.17436737941202 0 0
          -170.44847113628143 634.5909698955436 0 30.80269565656915 0 0
          102.5176284423429 632.65310685144 0 78.24680132883009 0 0
          376.2220672467257 629.6635655819384 0 96.14511345115693 0 0
          650.3018938092104 626.977090074533 0 84.00505058462154 0 0
          922.3310053284677 624.9184629234467 0 41.360603729884225 0 0
          -69.70718146250192 630.9608497271162 0 29.31300226585916 0 0
          151.3003727267891 627.6027368026098 0 74.91121199380652 0 0
          373.88157935431957 624.3406288859816 0 91.69230224051222 0 0
          596.1236203085831 621.586373336832 0 79.82584248776888 0 0
          816.5827853166588 620.4603774953937 0 39.37013372384381 0 0
          24.856252923524 627.7057588866738 0 27.398925222730295 0 0
          196.57562027815305 624.315512858092 0 70.80453693573983 0 0
          369.98428391077016 620.7510621098911 0 86.90890197977336 0 0
          543.2963329078315 617.9691372155503 0 75.82049482313197 0 0
          714.8158155210458 616.7796132041068 0 37.602354566651606 0 0
          112.85704694658361 625.3080584197329 0 25.46147953974675 0 0
          238.11714669135017 621.9183679584642 0 66.48300459208767 0 0
          365.15155914053923 618.2860560712666 0 81.84221736661804 0 0
          492.10080201993253 615.3124562447682 0 71.59121076380603 0 0
          617.1189878364066 613.9049409874863 0 35.734808317839295 0 0
          194.1931627917188 623.9189881861399 0 23.379661173886376 0 0
          275.87859745101304 620.532605408278 0 61.923184718207644 0 0
          359.3533484620323 616.8029609150066 0 76.45375867108973 0 0
          442.7300136360463 613.7510813145482 0 66.99865682552092 0 0
          524.0308288233855 612.2777611811463 0 33.534801492042305 0 0
          268.8503566876388 623.5939917031963 0 21.06867291841894 0 0
          309.884976359583 620.0125292752095 0 57.06385011601283 0 0
          352.8469330608318 616.1965539941128 0 70.89503722792273 0 0
          395.54095378028757 613.1047630806747 0 62.48902415221168 0 0
          436.13339720854 611.7477873157815 0 31.732691212823706 0 0
          336.449943875744 623.7225335300906 0 18.125923399692876 0 0
          340.5183883981651 620.0596301726083 0 51.7945984177997 0 0
          346.0692272567343 616.3337709504776 0 65.13903028351027 0 0
          351.0649755734305 613.3564957357091 0 57.86300078844032 0 0
          353.4198476200959 611.944914914405 0 29.856178821920608 0 0
          309.57571795502577 614.5517856475798 0 53.704388044262 0 0
          277.25721026997326 613.5376727598081 0 28.721920216120495 0 0
          <InformationKey name="L2_NORM_RANGE" location="vtkDataArray" length="2">
            <Value index="0">
              311.72422972
            </Value>
            <Value index="1">
              1585.788448
            </Value>
          </InformationKey>
        </DataArray>
        <DataArray type="Float64" Name="Gauss Strain" NumberOfComponents="6" format="ascii" RangeMin="0.00014792132469935139" RangeMax="0.0008215964598314915">
          -0.000010830743175482825 0.00021528135299535287 0 0.00002903026070786214 0 0
          -0.000027186325898681526 0.00022503874374298072 0 0.00009309044485912338 0 0
          -0.0000432296510505803 0.00023454152089195934 0 0.00011929959661784818 0 0
          -0.000012002895868001852 0.0002153993279968569 0 0.00008239659578269292 0 0
          -0.000047348281643183616 0.00023778894255374603 0 0.00010876403220879041 0 0
          -0.00008353687592235759 0.00026103243104945445 0 0.00009990254267822538 0 0
          -0.00012180230441119488 0.00028622402926541113 0 0.00005585429884124007 0 0
          -0.00045530757260339727 0.0003295476853047707 0 0.00040790750157968935 0 0
          -0.00015147604910711876 0.0001946531048435951 0 0.0002352092341450175 0 0
          0.0000698134508931858 0.00009601733053224426 0 0.00008824665779879386 0 0
          0.0002820098915297942 0.000009089057164055059 0 0.000025549051073833174 0 0
          0.0005201053515048043 -0.00008860934552337718 0 0.000028080001981491376 0 0
          -0.0005561033848689168 0.0006046032935757839 0 0.00001498751287864845 0 0
          -0.0003097203661054093 0.0004047027332602371 0 0.00020735393722212076 0 0
          -0.000027318244390617252 0.0002176495438177134 0 0.00024033529954968483 0 0
          0.00024675764160325686 0.000041623702292784 0 0.00020282980386655494 0 0
          0.0005214814658974221 -0.00014109396761158297 0 0.00008676235432083953 0 0
          -0.0004825346359317861 0.000534014206437311 0 0.00004806811112870898 0 0
          -0.00026910603353089146 0.0003987608596168618 0 0.00015154758769415688 0 0
          -0.00004023742488352965 0.00024085675996393663 0 0.00021948741041332895 0 0
          0.00020027778425145415 0.00007796838469462107 0 0.00019992074627581705 0 0
          0.0004398606743813982 -0.00008135312868531863 0 0.00010125259400101585 0 0
          -0.0004212521816147341 0.0004940284654128546 0 0.00006125809019238073 0 0
          -0.00022657971588790904 0.00036392020488969223 0 0.0001583330860187973 0 0
          -0.00003073462293773366 0.0002337080647685924 0 0.0001998692388537079 0 0
          0.00016864790187602618 0.00009902010729739841 0 0.00018104934117617024 0 0
          0.00036851787985027473 -0.00003589598420841722 0 0.00009032033980690278 0 0
          -0.00035626533813878924 0.00044870150792865326 0 0.00006159827936500195 0 0
          -0.00019160247346822196 0.0003384572912929068 0 0.00015646981978251833 0 0
          -0.000026132444842175136 0.00022726035477416137 0 0.00019225142621876352 0 0
          0.00013938828928106162 0.0001160716926171812 0 0.00016796774350944193 0 0
          0.000303372453477238 0.000006054026549823233 0 0.00008269686732798699 0 0
          -0.00029431733503790247 0.0004062734136448809 0 0.000058618353370392694 0 0
          -0.00016029600442749037 0.0003159336448665673 0 0.00014979853040678396 0 0
          -0.000025405546301510148 0.0002250050168955825 0 0.00018334795462809434 0 0
          0.00010904448371622243 0.00013450249913669887 0 0.0001596132848745312 0 0
          0.00024173831069572435 0.00004567358960766432 0 0.00007871862026214063 0 0
          -0.00023623706149544788 0.000366534554550213 0 0.000054789928051682195 0 0
          -0.0001318026299142738 0.00029586793557934143 0 0.00014158543234846254 0 0
          -0.000026306497958858418 0.0002244115200559088 0 0.0001737833573427518 0 0
          0.00007879966094108404 0.00015345600164505535 0 0.00015160614778268766 0 0
          0.00018217291275929306 0.00008416357147698894 0 0.00007518542598418305 0 0
          -0.00018244706237402486 0.00032992867804218506 0 0.00005091492591841565 0 0
          -0.00010590837945045894 0.00027782730360204066 0 0.00013294288084073687 0 0
          -0.000028218880872926677 0.00022486633166811376 0 0.00016365225063673603 0 0
          0.000049147515308087246 0.00017233234068891876 0 0.00014315098407490363 0 0
          0.0001247189480268196 0.00012150604014918298 0 0.00007145254355327512 0 0
          -0.00013306752313160808 0.000296588112944543 0 0.00004675136638987373 0 0
          -0.00008268912198389211 0.0002619032976873409 0 0.0001238240170877781 0 0
          -0.00003110365417977046 0.0002262959179135243 0 0.00015287768269964009 0 0
          0.000020150100715168873 0.00019113521461638916 0 0.000133969182514892 0 0
          0.0000695238095460432 0.00015775077025730053 0 0.00006705469069761726 0 0
          -0.00008812769179525337 0.00026655261061449276 0 0.00004212968612825434 0 0
          -0.00006207111459466397 0.00024799880763809456 0 0.00011410640586840447 0 0
          -0.00003476435670723976 0.00022853428569773182 0 0.00014176260675097683 0 0
          -0.00000790620859555946 0.00020961373942748884 0 0.00012495292710899836 0 0
          0.00001699761378616549 0.00019257514753852345 0 0.0000634522340898228 0 0
          -0.00004760921944749197 0.00023960814875537134 0 0.000036244869068956306 0 0
          -0.000043705241139474487 0.00023578228578753635 0 0.00010356928431451564 0 0
          -0.00003888555327508092 0.00023132696937505634 0 0.00013025298672403164 0 0
          -0.00003469552065199499 0.0002275453805997002 0 0.00011570369095615464 0 0
          -0.000032714732862482165 0.00022576032989066186 0 0.00005970083033088939 0 0
          -0.000060071658087329505 0.00024484804313466835 0 0.00010738886602672991 0 0
          -0.00007905937894023274 0.0002571611300294929 0 0.000057433485719595774 0 0
          <InformationKey name="L2_NORM_RANGE" location="vtkDataArray" length="2">
            <Value index="0">
              0.0001479213247
            </Value>
            <Value index="1">
              0.00082159645983
            </Value>
          </InformationKey>
        </DataArray>
        <DataArray type="Float64" Name="Btraction" NumberOfComponents="3" format="ascii" RangeMin="0" RangeMax="324.5158292321385">
          -5.8799342514283826 312.8351612918002 0 0 0 0
          0 0 0 0 0 0
          0 0 0 0 0 0
          -4.064743030414743 -308.06650683512794 0 76.26359858169543 264.6902530461697 0
          0 0 0 0 0 0
          0 0 0 75.61044406155456 -260.6544860432466 0
          -1.930869100340404 324.5100848459718 0 0 0 0
          0 0 0 0 0 0
          -1.2828880042739166 -319.5253407436807 0 -2.695979134797888 322.5302959412635 0
          0 0 0 0 0 0
          0 0 0 -1.6781093281216144 -317.5313398797871 0
          -3.1344174806850225 320.088675380637 0 0 0 0
          0 0 0 0 0 0
          -1.7297032583889638 -315.0968241871361 0 -3.3615729697070043 317.82804748957614 0
          0 0 0 0 0 0
          0 0 0 -1.7391359305986083 -312.67502774797686 0
          -3.4926567393873937 315.8865712918588 0 0 0 0
          0 0 0 0 0 0
          -1.7751823932567599 -310.50621713055375 0 -3.6082760383948025 314.2711188582489 0
          0 0 0 0 0 0
          0 0 0 -1.8283767937608566 -308.6681685508937 0
          -3.7370567029664636 313.05652630634324 0 0 0 0
          0 0 0 0 0 0
          -1.8854387984272325 -307.23828778765557 0 -3.9122392496992155 312.3536489817116 0
          0 0 0 0 0 0
          0 0 0 -2.0008149575507432 -306.4429317928464 0
          -4.152268500065841 312.1622584871271 0 0 0 0
          0 0 0 0 0 0
          -2.1830790597589607 -306.17023193509567 0 -4.6616223110785135 312.3296576760737 0
          0 0 0 0 0 0
          0 0 0 -2.595003731075616 -306.4028444511758 0
          0 0 0 -3.284446479432808 -307.17692734056016 0
          <InformationKey name="L2_NORM_RANGE" location="vtkDataArray" length="2">
            <Value index="0">
              0
            </Value>
            <Value index="1">
              324.51582923
            </Value>