<?xml version="1.0"?>
<VTKFile type="UnstructuredGrid" version="0.1" byte_order="LittleEndian" header_type="UInt32" compressor="vtkZLibDataCompressor">
  <UnstructuredGrid>
    <Piece NumberOfPoints="90" NumberOfCells="70">
      <PointData>
        <DataArray type="Float64" Name="sld_BC" NumberOfComponents="3" format="ascii" RangeMin="0" RangeMax="0">
          0 0 0 0 0 0
          0 0 0 0 0 0
          0 0 0 0 0 0
          0 0 0 0 0 0
          0 0 0 0 0 0
          0 0 0 0 0 0
          0 0 0 0 0 0
          0 0 0 0 0 0
          0 0 0 0 0 0
          0 0 0 0 0 0
          0 0 0 0 0 0
          0 0 0 0 0 0
          0 0 0 0 0 0
          0 0 0 0 0 0
          0 0 0 0 0 0
          0 0 0 0 0 0
          0 0 0 0 0 0
          0 0 0 0 0 0
          0 0 0 0 0 0
          0 0 0 0 0 0
          0 0 0 0 0 0
          0 0 0 0 0 0
          0 0 0 0 0 0
          0 0 0 0 0 0
          0 0 0 0 0 0
          0 0 0 0 0 0
          0 0 0 0 0 0
          0 0 0 0 0 0
          0 0 0 0 0 0
          0 0 0 0 0 0
          0 0 0 0 0 0
          0 0 0 0 0 0
          0 0 0 0 0 0
          0 0 0 0 0 0
          0 0 0 0 0 0
          0 0 0 0 0 0
          0 0 0 0 0 0
          0 0 0 0 0 0
          0 0 0 0 0 0
          0 0 0 0 0 0
          0 0 0 0 0 0
          0 0 0 0 0 0
          0 0 0 0 0 0
          0 0 0 0 0 0
          0 0 0 0 0 0
          <InformationKey name="L2_NORM_RANGE" location="vtkDataArray" length="2">
            <Value index="0">
              0
            </Value>
            <Value index="1">
              0
            </Value>
          </InformationKey>
        </DataArray>
        <DataArray type="Float64" Name="sld_FIXNO" NumberOfComponents="3" format="ascii" RangeMin="1.4142135623730951" RangeMax="1.4142135623730951">
          -1 -1 0 -1 -1 0
          -1 -1 0 -1 -1 0
          -1 -1 0 -1 -1 0
          -1 -1 0 -1 -1 0
          -1 -1 0 -1 -1 0
          -1 -1 0 -1 -1 0
          -1 -1 0 -1 -1 0
          -1 -1 0 -1 -1 0
          -1 -1 0 -1 -1 0
          -1 -1 0 -1 -1 0
          -1 -1 0 -1 -1 0
          -1 -1 0 -1 -1 0
          -1 -1 0 -1 -1 0
          -1 -1 0 -1 -1 0
          -1 -1 0 -1 -1 0
          -1 -1 0 -1 -1 0
          -1 -1 0 -1 -1 0
          -1 -1 0 -1 -1 0
          -1 -1 0 -1 -1 0
          -1 -1 0 -1 -1 0
          -1 -1 0 -1 -1 0
          -1 -1 0 -1 -1 0
          -1 -1 0 -1 -1 0
          -1 -1 0 -1 -1 0
          -1 -1 0 -1 -1 0
          -1 -1 0 -1 -1 0
          -1 -1 0 -1 -1 0
          -1 -1 0 -1 -1 0
          -1 -1 0 -1 -1 0
          -1 -1 0 -1 -1 0
          -1 -1 0 -1 -1 0
          -1 -1 0 -1 -1 0
          -1 -1 0 -1 -1 0
          -1 -1 0 -1 -1 0
          -1 -1 0 -1 -1 0
          -1 -1 0 -1 -1 0
          -1 -1 0 -1 -1 0
          -1 -1 0 -1 -1 0
          -1 -1 0 -1 -1 0
          -1 -1 0 -1 -1 0
          -1 -1 0 -1 -1 0
          -1 -1 0 -1 -1 0
          -1 -1 0 -1 -1 0
          -1 -1 0 -1 -1 0
          -1 -1 0 -1 -1 0
          <InformationKey name="L2_NORM_RANGE" location="vtkDataArray" length="2">
            <Value index="0">
              1.4142135624
            </Value>
            <Value index="1">
              1.4142135624
            </Value>
          </InformationKey>
        </DataArray>
        <DataArray type="Float64" Name="Disp" NumberOfComponents="3" format="ascii" RangeMin="0.00004803367562525871" RangeMax="0.00031294555042115437">
          0.00005079854226348979 0.00008050539111513776 0 0.00003166114822362529 0.00008150529537854823 0
          0.000012712618476340813 0.00008214403161110344 0 -0.000006158096379417977 0.00008242318253733427 0
          -0.00002506365767332021 0.00008234772498874875 0 -0.00004411892962761219 0.0000819250877389531 0
          0.000047130533193245514 0.00011363114620009017 0 0.000028992426037309275 0.00011465890439788782 0
          0.000011048238481624768 0.00011528009185290691 0 -0.000006823067461499712 0.00011549641274661113 0
          -0.000024737898873556937 0.0001153113243859472 0 -0.00004281305306729273 0.00011472891904732418 0
          0.00004318590259732789 0.00014489903507357478 0 0.000026188253023427755 0.00014595386078856414 0
          0.00000937623017542596 0.00014655131738918492 0 -0.000007368108744308815 0.00014669631502015697 0
          -0.000024161388657512716 0.00014639192120339715 0 -0.000041119321821156174 0.0001456400546076933 0
          0.00003897671334207208 0.00017405610976104242 0 0.00002325592377380534 0.00017513191287835066 0
          0.000007707326723228644 0.000175700874544376 0 -0.000007782580149243232 0.00017577046622555036 0
          -0.00002332492866357313 0.00017534437147085567 0 -0.00003903183233423901 0.00017442265029265824 0
          0.00003452713928401132 0.00020086936134138106 0 0.000020215719406609736 0.00020195098823874854 0
          0.000006053742704607021 0.00020248116815930103 0 -0.000008061735333902973 0.00020247056765328097 0
          -0.000022231022493648204 0.00020192286456246542 0 -0.00003655643906044687 0.00020083472824761807 0
          0.00002988098912190567 0.00022510211365071368 0 0.000017098524722002032 0.0002261726590516351 0
          0.000004432457487666776 0.0002266533078611281 0 -0.000008202480957557388 0.00022655763114714193 0
          -0.000020889572445609255 0.00022588913714536145 0 -0.00003371231180617087 0.00022464096822567337 0
          0.000025097897615092017 0.00024655032534350865 0 0.000013942591575201087 0.00024758964915858815 0
          0.0000028629018257584192 0.00024800902359960257 0 -0.000008204535822240393 0.0002478245818193115 0
          -0.00001932014801572234 0.00024704049047215575 0 -0.00003054373117031328 0.0002456477981023187 0
          0.000020249083029125407 0.0002650543207537788 0 0.000010795063067910677 0.0002660390882166866 0
          0.0000013675599523955634 0.00026638325929632803 0 -0.000008071897155106513 0.0002661075934059683 0
          -0.00001755459474419535 0.00026521686587579113 0 -0.00002711100792548422 0.00026370017216364506 0
          0.00001541679051589782 0.00028049808565322324 0 0.000007710412382350096 0.00028140170991927167 0
          -3.338571114177544e-8 0.0002816624979030522 0 -0.000007813736538923925 0.00028129888800280527 0
          -0.00001563288687790511 0.00028031409211315915 0 -0.000023489019608638462 0.0002786985004375827 0
          0.000010687439796425312 0.0002927788650759212 0 0.000004719606658677463 0.00029361175534192414 0
          -0.0000013358805161700946 0.0002938034290876228 0 -0.000007449178135300252 0.00029336774551737374 0
          -0.000013597642932473942 0.0002923077540921528 0 -0.00001975900588025406 0.00029061647326846944 0
          0.000006120305510275446 0.00030201816909702385 0 0.0000018477155159543857 0.0003027614475222913 0
          -0.0000025410097755264863 0.00030288002268939285 0 -0.000007003114633378745 0.0003023823659086513 0
          -0.000011497809813666485 0.0003012704436353102 0 -0.00001598702585073771 0.00029953843224973255 0
          0.0000017613719513608642 0.00030830534081377356 0 -8.702377084255381e-7 0.000308947692571798 0
          -0.0000036400751369732007 0.0003089870368639577 0 -0.000006493250979153432 0.00030843036844595566 0
          -0.000009375714268302562 0.00030727857810606044 0 -0.000012233345758691145 0.0003055257781053707 0
          -0.0000023517102323537147 0.00031174944592978767 0 -0.000003408526332035063 0.000312280663688339 0
          -0.000004622363151282324 0.0003122354363817795 0 -0.000005927216157331149 0.00031161957470997325 0
          -0.000007257153936292297 0.0003104336224749382 0 -0.000008545102592636054 0.0003086724854210544 0
          0.000034179247533235994 0.000046762699894458663 0 0.00005419506400563051 0.000045808314293164064 0
          0.000014351809085382132 0.00004740242374826878 0 -0.000005392624645673426 0.00004773000726485853 0
          -0.000025160975811247625 0.00004775007013232425 0 -0.00004505974257808728 0.00004747089564144839 0
          -0.000005745686094798989 0.00031289280052391636 0 -0.000006185776923020041 0.0003124811912116026 0
          -0.000005478511701802415 0.0003127583959788057 0 -0.000005309099423771658 0.00031208319972599095 0
          -0.000005161411334664321 0.0003108680155136783 0 -0.000004957922231176578 0.00030910893784038006 0
          <InformationKey name="L2_NORM_RANGE" location="vtkDataArray" length="2">
            <Value index="0">
              4.8033675625e-05
            </Value>
            <Value index="1">
              0.00031294555042
            </Value>
          </InformationKey>
        </DataArray>
        <DataArray type="Float64" Name="Sld_traction" NumberOfComponents="3" format="ascii" RangeMin="0" RangeMax="740.4962383220118">
          -22.250798707465766 315.93524749369874 0 0 0 0
          0 0 0 0 0 0
          0 0 0 16.44892129699551 -55.96986794297399 0
          -25.31837214785362 365.1687805610686 0 0 0 0
          0 0 0 0 0 0
          0 0 0 12.982032551041616 -61.92175790144767 0
          -26.34360531094157 416.29305058448597 0 0 0 0
          0 0 0 0 0 0
          0 0 0 9.501219447012598 -70.29712018491833 0
          -27.2149120652805 467.0127144364264 0 0 0 0
          0 0 0 0 0 0
          0 0 0 5.696900154294731 -79.3714926361502 0
          -27.82593451638426 518.4103467034521 0 0 0 0
          0 0 0 0 0 0
          0 0 0 1.03690292022179 -89.44102380283353 0
          -27.619237773744302 568.0697193829994 0 0 0 0
          0 0 0 0 0 0
          0 0 0 -4.126186003107465 -103.11300532263384 0
          -26.783176224294074 614.5754766147897 0 0 0 0
          0 0 0 0 0 0
          0 0 0 -9.78084880343212 -120.94501932541674 0
          -25.41072203389635 657.345910887991 0 0 0 0
          0 0 0 0 0 0
          0 0 0 -16.186984371025567 -143.30952792008344 0
          -21.549658648614493 691.801211422003 0 0 0 0
          0 0 0 0 0 0
          0 0 0 -23.05203098043685 -170.7065863963608 0
          -17.71763074299029 706.9742215651859 0 0 0 0
          0 0 0 0 0 0
          0 0 0 -28.102728447476327 -200.92370138028792 0
          -16.4557519358176 717.7424850374791 0 0 0 0
          0 0 0 0 0 0
          0 0 0 -30.79559174266856 -227.23258082951898 0
          -15.433720938151737 726.8471714276657 0 0 0 0
          0 0 0 0 0 0
          0 0 0 -33.08087439381289 -253.8684935703962 0
          -14.648544551413455 734.3147409713816 0 0 0 0
          0 0 0 0 0 0
          0 0 0 -34.98643187593647 -283.13950580694166 0
          0 0 0 -17.17939126998876 274.7663617154806 0
          0 0 0 0 0 0
          0 0 0 19.444477504764574 -51.753292439098324 0
          0 0 0 -14.160941035369131 740.3608219767186 0
          0 0 0 0 0 0
          0 0 0 -36.493612811800524 -314.48763757590666 0
          <InformationKey name="L2_NORM_RANGE" location="vtkDataArray" length="2">
            <Value index="0">
              0
            </Value>
            <Value index="1">
              740.49623832
            </Value>
          </InformationKey>
        </DataArray>
        <DataArray type="Float64" Name="Fld_traction" NumberOfComponents="3" format="ascii" RangeMin="0" RangeMax="535.3349201972758">
          -5.107533837486242 180.916487369924 0 0 0 0
          0 0 0 0 0 0
          0 0 0 0.166374689353044 -184.97102885843606 0
          -6.999851462591337 212.53108555735457 0 0 0 0
          0 0 0 0 0 0
          0 0 0 -4.03508908040963 -210.34149168921573 0
          -8.89216908769646 244.14568374478569 0 0 0 0
          0 0 0 0 0 0
          0 0 0 -7.707016582149983 -237.9870404024872 0
          -10.784486712801568 275.7602819322165 0 0 0 0
          0 0 0 0 0 0
          0 0 0 -11.378944083890307 -265.63258911575844 0
          -13.399090474551915 309.5926531584195 0 0 0 0
          0 0 0 0 0 0
          0 0 0 -15.050871585630656 -293.2781378290299 0
          -16.23442337517809 344.1027712057698 0 0 0 0
          0 0 0 0 0 0
          0 0 0 -17.76687399847933 -322.2973654582845 0
          -19.06975627580428 378.61288925312033 0 0 0 0
          0 0 0 0 0 0
          0 0 0 -20.33097244101518 -351.53488140709254 0
          -21.905089176430455 413.1230073004706 0 0 0 0
          0 0 0 0 0 0
          0 0 0 -22.89507088355101 -380.77239735590035 0
          -24.574770332063355 446.1976663190683 0 0 0 0
          0 0 0 0 0 0
          0 0 0 -25.459169326086844 -410.0099133047082 0
          -25.46674029786035 463.8675278930756 0 0 0 0
          0 0 0 0 0 0
          0 0 0 -28.02326776862269 -439.24742925351626 0
          -26.358710263657343 481.5373894670828 0 0 0 0
          0 0 0 0 0 0
          0 0 0 -28.686375735112424 -461.18280260831864 0
          -27.250680229454346 499.2072510410901 0 0 0 0
          0 0 0 0 0 0
          0 0 0 -28.688252167484332 -480.5782332276772 0
          -28.142650195251335 516.8771126150973 0 0 0 0
          0 0 0 0 0 0
          0 0 0 -28.690128599856244 -499.9736638470356 0
          0 0 0 -0.2481441722401878 156.81407213013583 0
          0 0 0 0 0 0
          0 0 0 5.013440936520008 -162.37369723807257 0
          0 0 0 -29.03462016104833 534.5469741891046 0
          0 0 0 0 0 0
          0 0 0 -28.692005032228153 -519.3690944663941 0
          <InformationKey name="L2_NORM_RANGE" location="vtkDataArray" length="2">
            <Value index="0">
              0
            </Value>
            <Value index="1">
              535.3349202
            </Value>
          </InformationKey>
        </DataArray>
        <DataArray type="Float64" Name="Velocity" NumberOfComponents="3" format="ascii" RangeMin="0.0018050128434136641" RangeMax="0.004041246066413508">
          0.0014534209683044455 0.00212925051727191 0 0.001265060727900702 0.0021275375423942195 0
          0.0010825410833623615 0.002119840937503396 0 0.0009051428477930373 0.0021064191367634413 0
          0.000732229956481206 0.0020873866034202475 0 0.0005632803646671813 0.0020627302024525717 0
          0.0014404048933458703 0.002431038706517381 0 0.0012684733472731365 0.002429684120079122 0
          0.001101750518740773 0.0024220838361393793 0 0.0009398035814772966 0.002408486527396882 0
          0.0007822559429128682 0.0023890180029953237 0 0.0006288240324795445 0.002363685768733905 0
          0.0014261608056325794 0.002703138397567126 0 0.0012710588221723422 0.0027021219528717147 0
          0.001120630842846906 0.0026947389563815025 0 0.0009746528342229634 0.0026812131856664067 0
          0.0008329748278767463 0.0026616643420522466 0 0.0006955263155218213 0.0026361104055030804 0
          0.0014108030313063399 0.0029449739475276527 0 0.001272711122873099 0.002944325996538975 0
          0.0011387860924426192 0.0029372684568422227 0 0.0010090067257205184 0.002924025268430462 0
          0.0008834428427581268 0.0029047157091177697 0 0.0007622232708833836 0.002879339295803497 0
          0.0013944105901434983 0.0031564802119851566 0 0.0012732931739037631 0.00315620507955025 0
          0.0011558465217323623 0.0031495659478765026 0 0.0010422405157578286 0.003136781527890727 0
          0.0009327402833913319 0.0031179893535594567 0 0.0008277603416955379 0.003093230931226971 0
          0.0013770343466605103 0.003337920802470922 0 0.0012726310835411317 0.003338081815912829 0
          0.001171459824117411 0.0033319703320475492 0 0.0010738350799321856 0.003319770608367729 0
          0.000980152803474547 0.003301621269214235 0 0.0008909702588028554 0.003277627423933717 0
          0.0013585503034383311 0.003490077660441721 0 0.0012704139607954054 0.0034908303408386224 0
          0.0011852000573252695 0.003485443924698183 0 0.001103282431839064 0.003474050099664416 0
          0.0010250795291376498 0.003456783382236812 0 0.0009511140778412429 0.003433818118646624 0
          0.001338568014266627 0.003614035225198986 0 0.0012661284181199465 0.0036156259846214394 0
          0.001196494559846638 0.0036112416463541254 0 0.0011300088666480706 0.003600908452087755 0
          0.0010669515126268258 0.0035847548969076834 0 0.0010076906031731816 0.0035630108888725235 0
          0.001316386185182367 0.0037110494983804 0 0.0012590609409234685 0.0037138280097551496 0
          0.0012047731678445346 0.0037106263007194414 0 0.001153501638607422 0.0037015059075754518 0
          0.0011053688704634873 0.0036866230553075385 0 0.0010604942858225559 0.0036661905243795877 0
          0.0012911133365671233 0.0037831553908872096 0 0.0012489301214636869 0.0037867201228437347 0
          0.0012097726734002666 0.0037844242069112683 0 0.0011734539250792713 0.003776402774269702 0
          0.0011400082618322357 0.0037628111840128826 0 0.001109528212550379 0.0037438044033855293 0
          0.0012623276918183519 0.0038286479948453963 0 0.0012355057613476148 0.0038332570657554034 0
          0.0012113304911936797 0.0038319734404212696 0 0.0011897413323928266 0.0038250031387839028 0
          0.0011707840326867667 0.0038125076605718547 0 0.001154688568191821 0.0037946161195436244 0
          0.0012296831308551384 0.0038474393422771296 0 0.0012182310046170235 0.0038532561540458804 0
          0.0012090402972468476 0.0038531752149120854 0 0.0012021194403267616 0.0038473847637862752 0
          0.0011975648118360042 0.003836059816015709 0 0.0011955990284008967 0.003819382223580428 0
          0.0011927501017871653 0.0038397387634161954 0 0.0011965858165557026 0.0038469821777340355 0
          0.001202356882565775 0.003848332905430162 0 0.0012100837956802626 0.003843961144288499 0
          0.001219847674800268 0.003834045024707542 0 0.001231804007778531 0.0038187955795700116 0
          0.0012610256972905697 0.0017965039636474505 0 0.0014650814502804668 0.0017983737602005243 0
          0.0010634872107152706 0.0017889773587507418 0 0.0008714100988504765 0.0017760463740039882 0
          0.000683899720695274 0.0017578323456533926 0 0.0005001632592208575 0.0017343321708985998 0
          0.0011699737692843215 0.003814709229362909 0 0.0011509520054278112 0.00380579285841232 0
          0.0011906591340926395 0.0038177578649863445 0 0.0012130324257810248 0.0038150633350505165 0
          0.0012371028610745215 0.0038067805565474592 0 0.00126291268985581 0.0037931263613153006 0
          <InformationKey name="L2_NORM_RANGE" location="vtkDataArray" length="2">
            <Value index="0">
              0.0018050128434
            </Value>
            <Value index="1">
              0.0040412460664
            </Value>
          </InformationKey>
        </DataArray>
      </PointData>
      <CellData>
        <DataArray type="UInt8" Name="vtkGhostType" format="ascii" RangeMin="0" RangeMax="1">
          1 1 1 1 1 0
          0 0 0 0 0 0
          0 0 0 0 0 0
          0 0 0 0 0 0
          0 0 0 0 0 0
          0 0 0 0 0 0
          0 0 0 0 0 0
          0 0 0 0 0 0
          0 0 0 0 0 0
          0 0 0 0 0 0
          0 0 0 0 0 0
          0 0 0 0
        </DataArray>
        <DataArray type="Float64" Name="Gauss Stress" NumberOfComponents="6" format="ascii" RangeMin="177.40819779487052" RangeMax="1304.479714330443">
          835.2391306857899 170.0283864851091 0 -27.37543676281503 0 0
          628.1975224827108 172.83858306826738 0 -52.01652352813322 0 0
          421.4229957322375 174.9110062359615 0 -59.7956234469005 0 0
          215.9857523308002 175.81589197221956 0 -50.4939122805542 0 0
          13.373633887668198 175.27022391808322 0 -23.982559687562123 0 0
          1082.4453040259277 525.1456372570026 0 -9.334932553753589 0 0
          727.0300554595744 522.0649091030868 0 18.731344776127486 0 0
          373.5544822573637 517.9590653333956 0 35.83573228045869 0 0
          20.32780386965267 513.7201294433978 0 41.934696903506016 0 0
          1127.8403651484623 507.5206440730784 0 -10.959947600167439 0 0
          754.070621524545 504.0729195753605 0 14.544773648068134 0 0
          382.5871615515347 499.46210228425184 0 30.649751687016163 0 0
          11.322158014354002 494.6797367351071 0 37.4629913564095 0 0
          -361.9282675680227 490.84321855963475 0 34.88951772274727 0 0
          1167.0570820172136 489.9458077115484 0 -12.979198394290247 0 0
          777.8232511786283 486.2389577170284 0 9.498257385097332 0 0
          391.38135932095986 481.1515072913463 0 24.38424076437834 0 0
          5.461603496625045 475.7979305815482 0 31.942898292888568 0 0
          -382.55750947242365 471.465302326468 0 32.37888132819373 0 0
          1199.0294234637233 472.3337018631021 0 -15.301632758327642 0 0
          797.5570664542363 468.425587644912 0 3.482841903932652 0 0
          399.71070847421424 462.26142390227426 0 16.746395725679818 0 0
          3.1909179875646743 455.9154005867315 0 25.29249835732289 0 0
          -394.7997117374697 451.23497785945716 0 29.31251515476784 0 0
          1222.2337964837589 455.5013655924033 0 -18.176297092297077 0 0
          811.4356216220101 449.153500853293 0 -5.032671042860418 0 0
          407.6369947318619 440.71676625749177 0 6.233726794651481 0 0
          5.851480890837976 432.29128449638426 0 16.44117194634027 0 0
          -397.89880829494956 425.98606531902556 0 25.27544051481638 0 0
          1230.5851159851763 430.90315056580084 0 -25.40074016178864 0 0
          818.5939662123053 423.6191559731968 0 -18.42213125439923 0 0
          415.56659826242065 414.117027309936 0 -8.86489517691004 0 0
          14.701719396654383 404.365041701926 0 3.1659017002768373 0 0
          -389.9862200420729 396.30957887555746 0 17.384885034908574 0 0
          1218.793866643562 396.5342461217043 0 -28.951166860448723 0 0
          817.6093249858259 391.68864681924936 0 -30.196186570034197 0 0
          422.7777817457864 383.356830711352 0 -23.788571447373204 0 0
          29.741223271950815 374.32558997287055 0 -10.533973691020542 0 0
          -366.796611573746 367.06192070591425 0 9.538870455352566 0 0
          1190.9905953719551 362.12691324495796 0 -31.632288001628634 0 0
          806.9053543788566 358.1237311458329 0 -39.76167008967944 0 0
          428.1265448974233 351.42715074077154 0 -36.57181618768276 0 0
          50.59920847958317 343.92533544744674 0 -22.47083422525907 0 0
          -329.75625107811663 337.78903285065223 0 2.5808557635596827 0 0
          1149.2755709543644 327.6669029728008 0 -33.56768918255444 0 0
          788.2392540243145 324.764052890221 0 -47.40739822343878 0 0
          431.5542284296205 319.6633974461745 0 -46.86903665415038 0 0
          76.06785912751587 313.81767375085735 0 -32.32469633693469 0 0
          -281.5374913048342 308.6317544919973 0 -3.48940758470221 0 0
          1096.1690068279618 293.40847290921045 0 -34.43112389819924 0 0
          763.1356531078773 291.87715217561095 0 -52.726315938512926 0 0
          433.1761058103584 288.561629483586 0 -54.44961965381525 0 0
          104.41239578792536 284.4575567119808 0 -40.01531998159069 0 0
          -224.90148021361597 280.6129864534638 0 -9.103439372111268 0 0
          1035.1303423469478 260.5330055780329 0 -34.09259190303059 0 0
          733.0945536634863 260.07422779856523 0 -55.56071032563979 0 0
          432.95969138033587 258.24317476917975 0 -59.14799199910094 0 0
          134.00736344434037 255.73664779978475 0 -45.18860695245449 0 0
          -164.51339740811213 253.0463292711655 0 -13.625008251258167 0 0
          969.7211101654037 229.10435961851732 0 -33.60781481169534 0 0
          699.7028800815488 229.1022806129775 0 -56.844431980950525 0 0
          431.1708616191743 228.65130501458492 0 -61.65495406072384 0 0
          163.52402696724263 227.37209103970378 0 -48.50486579326693 0 0
          -103.29774546044155 225.32907812452677 0 -17.329366465406494 0 0
          901.5176057514147 197.1087646930436 0 -32.23881166244523 0 0
          664.8507684004651 199.29926583487426 0 -55.96314011166266 0 0
          427.62491398454097 200.3742864816552 0 -61.962857966111414 0 0
          191.47942864549907 200.3547251030938 0 -50.37533015799283 0 0
          -43.143063512505236 198.88897378114234 0 -20.8622491897992 0 0
          -334.4566655391619 510.2993091828182 0 36.8076753453912 0 0
          <InformationKey name="L2_NORM_RANGE" location="vtkDataArray" length="2">
            <Value index="0">
              177.40819779
            </Value>
            <Value index="1">
              1304.4797143
            </Value>
          </InformationKey>
        </DataArray>
        <DataArray type="Float64" Name="Gauss Strain" NumberOfComponents="6" format="ascii" RangeMin="0.00011514544602627808" RangeMax="0.0006288197484251777">
          0.0004329377335715867 -0.00023213799398191792 0 -0.000054740156495453065 0 0
          0.00030768430723342177 -0.00014760038045250057 0 -0.00010401638900097351 0 0
          0.00018285305816720387 -0.00006362825306799325 0 -0.00011957670543549802 0 0
          0.000059259301311037627 0.000019093799742062045 0 -0.00010097935569760098 0 0
          -0.00006209092591227817 0.00009980065235948299 0 -0.00004796248773250318 0 0
          0.0004392410133352842 -0.00011787575591176713 0 -0.000018662628579837803 0 0
          0.00022736029308013939 0.000022450019923028752 0 0.00003745424014724585 0 0
          0.000016954906795110802 0.00016133739667187338 0 0.00007165928764223285 0 0
          -0.00019334350636965314 0.0002999998187586256 0 0.00008386073523231782 0 0
          0.00047349399951011895 -0.00014661870583371206 0 -0.00002191152336993072 0 0
          0.00025076919303450296 8.384560105795243e-7 0 0.00002908313053566744 0 0
          0.000029772594897198294 0.00014663095089370581 0 0.00006128931735543633 0 0
          -0.0001911300801826221 0.0002921826628814045 0 0.00007491876397840231 0 0
          -0.0004137091315137842 0.0004390445990604535 0 0.00006977732810770841 0 0
          0.0005040210755679897 -0.00017286131085181286 0 -0.00002594866088216095 0 0
          0.0002721419450142648 -0.000019364232046958918 0 0.000018992588381678954 0 0
          0.0000423723425458239 0.0001321311819361265 0 0.00004876061771334991 0 0
          -0.00018709200990552063 0.0002832034433838809 0 0.00006388008446056652 0 0
          -0.0004183399307223223 0.0004356722605389357 0 0.00006475684219727262 0 0
          0.0005302190234705156 -0.00019622897878204815 0 -0.00003059200195438666 0 0
          0.0002910955086488365 -0.0000379479645812586 0 0.0000069647475149351606 0 0
          0.000054924663947297774 0.00011746918413105267 0 0.00003348771063964662 0 0
          -0.00018049844065892717 0.00027218909185280915 0 0.000050580933131346254 0 0
          -0.000417592021340285 0.0004284379030245061 0 0.00005862483043798303 0 0
          0.0005508491391876535 -0.00021562095010616011 0 -0.000036339567564330155 0 0
          0.0003071202885236157 -0.00005506569928731553 0 -0.000010062017121255144 0 0
          0.00006829652878090342 0.00010137535794413344 0 0.000012466149931147778 0 0
          -0.00016944747207817135 0.00025695966114172575 0 0.000032880312844373484 0 0
          -0.00040934322171998216 0.00041454191075589175 0 0.0000505514685018797 0 0
          0.0005656786192873714 -0.00023373250706340554 0 -0.00005078364626049842 0 0
          0.00032161751111947634 -0.00007325441394231968 0 -0.0000368341623479643 0 0
          0.00008369136115793374 0.00008224664344083643 0 -0.00001772586295795201 0 0
          -0.00015295993430844423 0.00023667536825965063 0 0.000006332331215285958 0 0
          -0.00039270837424845717 0.0003935913202870595 0 0.0000347708666781419 0 0
          0.0005723394574417007 -0.0002496496693153438 0 -0.00005788301611361899 0 0
          0.0003337878048532694 -0.0000920252760940876 0 -0.00006037693504789965 0 0
          0.0001003179983309066 0.00006090783999045112 0 -0.00004756847203851285 0 0
          -0.00013191288277264451 0.00021264809047909225 0 -0.00002106506840453923 0 0
          -0.0003670715555161019 0.0003667916006643429 0 0.00001907914193094864 0 0
          0.0005694201060461174 -0.00025918167140676074 0 -0.0000632446048823941 0 0
          0.00034078351512240035 -0.00010788930698280019 0 -0.00007950416770580266 0 0
          0.00011629426258959183 0.000039610939480169693 0 -0.00007313129482742464 0 0
          -0.00010723055417594109 0.00018607653666033452 0 -0.00004493689607875863 0 0
          -0.000333109098942741 0.00033443936068702773 0 0.000005163270765862122 0 0
          0.0005581848682128521 -0.00026317718648305455 0 -0.00006711546135349905 0 0
          0.000342923373043022 -0.00012044489168283601 0 -0.00009479320738716117 0 0
          0.00013105126078136187 0.000019180908816404663 0 -0.0000937231472919559 0 0
          -0.00007989971942226615 0.00015783519625908737 0 -0.00006464314358112962 0 0
          -0.0002924838904533877 0.00029768586499201444 0 -0.000006977145866951714 0 0
          0.0005400421083681245 -0.0002624919992454122 0 -0.00006884319574257682 0 0
          0.0003410148215597375 -0.00013014100471708812 0 -0.00010543003699230124 0 0
          0.0001444600547974434 -1.3038657595276824e-7 0 -0.00010888278494969078 0 0
          -0.00005114385627558171 0.00012889041316681282 0 -0.00008002328956732901 0 0
          -0.0002472648894165929 0.00025824704217655703 0 -0.000018205116008183853 0 0
          0.0005165925318244696 -0.0002578013564751014 0 -0.00006816772578836407 0 0
          0.0003357130294474875 -0.00013721064969277053 0 -0.00011109912439488158 0 0
          0.00015645289141405505 -0.00001823684159923955 0 -0.00011827900122877145 0 0
          -0.000021895187052520252 0.00009982717754751512 0 -0.00009036914212504822 0 0
          -0.00019997933436718962 0.00021757550333423303 0 -0.000027248091612830173 0 0
          0.0004899444206004078 -0.0002504925869934449 0 -0.00006719974923243249 0 0
          0.00032807040412323457 -0.00014244061789525642 0 -0.00011366758113597741 0 0
          0.0001672119875250344 -0.000035278723259896116 0 -0.00012329310124057328 0 0
          0.000007162032311380788 0.00007100715749326636 0 -0.00009700124436383005 0 0
          -0.00015214208313096833 0.00017647868515380252 0 -0.000034656601177165424 0 0
          0.0004618466882421318 -0.00024240571544809075 0 -0.00006446366658043455 0 0