<?xml version="1.0"?>
<VTKFile type="UnstructuredGrid" version="0.1" byte_order="LittleEndian" header_type="UInt32" compressor="vtkZLibDataCompressor">
  <UnstructuredGrid>
    <Piece NumberOfPoints="84" NumberOfCells="65">
      <PointData>
        <DataArray type="Float64" Name="sld_BC" NumberOfComponents="3" format="ascii" RangeMin="0" RangeMax="0">
          0 0 0 0 0 0
          0 0 0 0 0 0
          0 0 0 0 0 0
          0 0 0 0 0 0
          0 0 0 0 0 0
          0 0 0 0 0 0
          0 0 0 0 0 0
          0 0 0 0 0 0
          0 0 0 0 0 0
          0 0 0 0 0 0
          0 0 0 0 0 0
          0 0 0 0 0 0
          0 0 0 0 0 0
          0 0 0 0 0 0
          0 0 0 0 0 0
          0 0 0 0 0 0
          0 0 0 0 0 0
          0 0 0 0 0 0
          0 0 0 0 0 0
          0 0 0 0 0 0
          0 0 0 0 0 0
          0 0 0 0 0 0
          0 0 0 0 0 0
          0 0 0 0 0 0
          0 0 0 0 0 0
          0 0 0 0 0 0
          0 0 0 0 0 0
          0 0 0 0 0 0
          0 0 0 0 0 0
          0 0 0 0 0 0
          0 0 0 0 0 0
          0 0 0 0 0 0
          0 0 0 0 0 0
          0 0 0 0 0 0
          0 0 0 0 0 0
          0 0 0 0 0 0
          0 0 0 0 0 0
          0 0 0 0 0 0
          0 0 0 0 0 0
          0 0 0 0 0 0
          0 0 0 0 0 0
          0 0 0 0 0 0
          <InformationKey name="L2_NORM_RANGE" location="vtkDataArray" length="2">
            <Value index="0">
              0
            </Value>
            <Value index="1">
              0
            </Value>
          </InformationKey>
        </DataArray>
        <DataArray type="Float64" Name="sld_FIXNO" NumberOfComponents="3" format="ascii" RangeMin="1.4142135623730951" RangeMax="1.4142135623730951">
          -1 -1 0 -1 -1 0
          -1 -1 0 -1 -1 0
          -1 -1 0 -1 -1 0
          -1 -1 0 -1 -1 0
          -1 -1 0 -1 -1 0
          -1 -1 0 -1 -1 0
          -1 -1 0 -1 -1 0
          -1 -1 0 -1 -1 0
          -1 -1 0 -1 -1 0
          -1 -1 0 -1 -1 0
          -1 -1 0 -1 -1 0
          -1 -1 0 -1 -1 0
          -1 -1 0 -1 -1 0
          -1 -1 0 -1 -1 0
          -1 -1 0 -1 -1 0
          -1 -1 0 -1 -1 0
          -1 -1 0 -1 -1 0
          -1 -1 0 -1 -1 0
          -1 -1 0 -1 -1 0
          -1 -1 0 -1 -1 0
          -1 -1 0 -1 -1 0
          -1 -1 0 -1 -1 0
          -1 -1 0 -1 -1 0
          -1 -1 0 -1 -1 0
          -1 -1 0 -1 -1 0
          -1 -1 0 -1 -1 0
          -1 -1 0 -1 -1 0
          -1 -1 0 -1 -1 0
          -1 -1 0 -1 -1 0
          -1 -1 0 -1 -1 0
          -1 -1 0 -1 -1 0
          -1 -1 0 -1 -1 0
          -1 -1 0 -1 -1 0
          -1 -1 0 -1 -1 0
          -1 -1 0 -1 -1 0
          -1 -1 0 -1 -1 0
          -1 -1 0 -1 -1 0
          -1 -1 0 -1 -1 0
          -1 -1 0 -1 -1 0
          -1 -1 0 -1 -1 0
          -1 -1 0 -1 -1 0
          -1 -1 0 -1 -1 0
          <InformationKey name="L2_NORM_RANGE" location="vtkDataArray" length="2">
            <Value index="0">
              1.4142135624
            </Value>
            <Value index="1">
              1.4142135624
            </Value>
          </InformationKey>
        </DataArray>
        <DataArray type="Float64" Name="Disp" NumberOfComponents="3" format="ascii" RangeMin="0.0000577170620424886" RangeMax="0.0000764825737449075">
          0.00007150008906523051 0.000008754808506254288 0 0.00007184163763265266 0.000008861108097903648 0
          0.00007248806203889755 0.000009001161154998603 0 0.00007336066949994905 0.00000916119274940902 0
          0.00007446515005134686 0.000009312271469021606 0 0.00007589776822031715 0.000009439961113279575 0
          0.00007086856040375614 0.000007517350076416961 0 0.00007136248095826456 0.000007547310905455548 0
          0.00007202122992031471 0.000007541929106885023 0 0.00007288885100800748 0.000007534029810895891 0
          0.00007397069697428647 0.000007533491244396858 0 0.00007523053907271303 0.00000757556492504312 0
          0.0000702261036957036 0.000005831004495236464 0 0.00007083608721610142 0.000005915799573633732 0
          0.00007154677212918368 0.000005974246913273451 0 0.0000724088923641545 0.000006022997745030401 0
          0.0000734255580361374 0.000006088132829306422 0 0.00007455140050698067 0.000006187193762765114 0
          0.00006953843780273121 0.000004129187225405524 0 0.00007016739411987668 0.000004267947049005261 0
          0.00007090265593271445 0.000004404408526263657 0 0.00007175605619466784 0.000004540806734545712 0
          0.00007273056691716143 0.000004685652995742395 0 0.00007381951696531639 0.000004840439112828189 0
          0.00006875003451158813 0.000002464165375299491 0 0.00006937069666163986 0.000002660078121322989 0
          0.00007009970915237927 0.0000028610807006709614 0 0.0000709409859413873 0.000003067784984093113 0
          0.00007189832155530114 0.0000032805481863665656 0 0.00007297539396041544 0.0000034988730645244567 0
          0.00006784681988430742 8.314881269134106e-7 0 0.00006845110181283079 0.0000010830141317294743 0
          0.00006916347419738611 0.0000013420809154897076 0 0.00006998824212047202 0.0000016089555639650137 0
          0.00007093039785296492 0.0000018834180728026289 0 0.00007199561376282562 0.0000021645151892210757 0
          0.00006683078966505207 -7.659577277014377e-7 0 0.00006741413254388451 -4.6272005661127546e-7 0
          0.00006810455266525354 -1.5015606449710217e-7 0 0.00006890741987904273 1.724012310426381e-7 0
          0.00006982923369276475 5.048402841898995e-7 0 0.00007087704481995109 8.462734719343661e-7 0
          0.00006570620759773671 -0.0000023249806653942102 0 0.00006626477012898274 -0.0000019718490165823464 0
          0.00006692760591761497 -0.0000016077442630601538 0 0.0000677021787991165 -0.0000012316202269319155 0
          0.00006859635827145396 -8.430928737163539e-7 0 0.00006961910529563008 -4.4241059563822555e-7 0
          0.00006447883980938096 -0.00000383166070180718 0 0.00006500588609325997 -0.0000034301902635558753 0
          0.00006563497242612285 -0.0000030156031837547595 0 0.00006637463349044989 -0.000002587258575104558 0
          0.00006723329344865231 -0.000002144636536977012 0 0.0000682207188331869 -0.0000016870357962583823 0
          0.00006315284892164242 -0.000005265698663198477 0 0.0000636393486817756 -0.000004816884865392975 0
          0.0000642275527720639 -0.00000435201947272043 0 0.00006492551856889744 -0.000003871180262910377 0
          0.00006574079758743864 -0.0000033736638686424874 0 0.0000666809592280872 -0.000002857804659758492 0
          0.00006172795054079011 -0.00000660978114253411 0 0.00006216509065586598 -0.00000611271177382929 0
          0.00006270551346168931 -0.00000559763693496053 0 0.00006335472556824796 -0.000005064297313627649 0
          0.00006411873761452766 -0.000004511537538365044 0 0.00006500319963452082 -0.000003937624393224265 0
          0.00006020118335959692 -0.000007843837643111143 0 0.000060584443110169726 -0.000007301177998689764 0
          0.00006107083742214848 -0.0000067384886926306 0 0.00006166446267436975 -0.0000061548599063495825 0
          0.00006237019268936766 -0.0000055490971569549596 0 0.00006319321244438144 -0.000004919665470109321 0
          0.00005857398566700665 -0.00000896453096721703 0 0.00005890011207584597 -0.000008377469336604364 0
          0.00005932685865333934 -0.00000776860701352831 0 0.00005985868713139738 -0.0000071365472194488255 0
          0.00006050025674830551 -0.000006480083772258076 0 0.00006125603012688377 -0.000005797984131238218 0
          0.000057114164237735576 -0.000009336681653613295 0 0.000056849980920524736 -0.000009966891197984073 0
          0.00005747608670476054 -0.00000868254500147254 0 0.00005794063398391744 -0.000008003224756590026 0
          0.00005851237679281262 -0.000007297279679506884 0 0.00005919626921553371 -0.0000065633199308630906 0
          <InformationKey name="L2_NORM_RANGE" location="vtkDataArray" length="2">
            <Value index="0">
              5.7717062042e-05
            </Value>
            <Value index="1">
              7.6482573745e-05
            </Value>
          </InformationKey>
        </DataArray>
        <DataArray type="Float64" Name="Sld_traction" NumberOfComponents="3" format="ascii" RangeMin="0" RangeMax="156.63970485946274">
          95.67297011126098 93.15903575748133 0 153.1975732593237 32.65732208730143 0
          125.79960246214443 9.272622823899333 0 125.24210445858002 -7.852532562137778 0
          152.4905829844226 -32.6312109845066 0 96.39137353466032 -91.37873159551987 0
          43.09292502774463 142.65201084078467 0 0 0 0
          0 0 0 0 0 0
          0 0 0 42.49390030018835 -142.56798914998905 0
          46.38361735370301 126.05417923548856 0 0 0 0
          0 0 0 0 0 0
          0 0 0 45.38376842377642 -126.9756521338304 0
          41.80024102215621 105.86625307406872 0 0 0 0
          0 0 0 0 0 0
          0 0 0 40.93518288674972 -107.53912783194183 0
          39.974935970902386 94.29058714393453 0 0 0 0
          0 0 0 0 0 0
          0 0 0 39.37157186339862 -96.26255538144059 0
          39.54138841946268 85.29182816429724 0 0 0 0
          0 0 0 0 0 0
          0 0 0 38.60496968705737 -88.47701413533133 0
          39.51968722439812 77.77050886672778 0 0 0 0
          0 0 0 0 0 0
          0 0 0 38.01274964388245 -82.66739086081385 0
          39.4444915534724 70.41018351156337 0 0 0 0
          0 0 0 0 0 0
          0 0 0 37.44776625990739 -78.23010895984737 0
          38.98104114808861 62.763082303981555 0 0 0 0
          0 0 0 0 0 0
          0 0 0 37.19645037105282 -75.20774699777384 0
          38.255388204049346 55.13970291462938 0 0 0 0
          0 0 0 0 0 0
          0 0 0 37.229120244732 -71.48017944643783 0
          37.215851117951864 47.978409619764456 0 0 0 0
          0 0 0 0 0 0
          0 0 0 37.04139157434173 -66.70002305441288 0
          35.97119442551271 42.40047718228158 0 0 0 0
          0 0 0 0 0 0
          0 0 0 36.532791796691484 -62.029885582841985 0
          34.89602905999345 37.18238149368834 0 0 0 0
          0 0 0 0 0 0
          0 0 0 35.86559104347678 -57.824132003914364 0
          0 0 0 33.96736349615362 31.826473317550416 0
          0 0 0 0 0 0
          0 0 0 35.00336848944913 -53.78083838007291 0
          <InformationKey name="L2_NORM_RANGE" location="vtkDataArray" length="2">
            <Value index="0">
              0
            </Value>
            <Value index="1">
              156.63970486
            </Value>
          </InformationKey>
        </DataArray>
        <DataArray type="Float64" Name="Fld_traction" NumberOfComponents="3" format="ascii" RangeMin="0" RangeMax="163.56473225300476">
          105.79264946401119 76.05077508694717 0 163.56429541281378 0.378025272861249 0
          154.64901476713462 0.43436095913933553 0 154.49031820011652 -0.686175685685568 0
          163.2110188201955 -0.6355042358608334 0 107.62409257458313 -71.59836131584579 0
          50.09798368829118 127.21824246444413 0 0 0 0
          0 0 0 0 0 0
          0 0 0 50.43206677872662 -123.70875423827994 0
          48.40008249886308 114.54022600344317 0 0 0 0
          0 0 0 0 0 0
          0 0 0 48.07631992134783 -112.4237822786531 0
          47.50747302196561 104.28013149214752 0 0 0 0
          0 0 0 0 0 0
          0 0 0 47.342642684271674 -103.09986567234318 0
          46.44297473540458 95.92080222100013 0 0 0 0
          0 0 0 0 0 0
          0 0 0 46.961037416746606 -94.19419795127739 0
          46.07773130508332 87.95335474412569 0 0 0 0
          0 0 0 0 0 0
          0 0 0 46.602344196456066 -86.15189726476248 0
          45.983613880170466 81.05034670895652 0 0 0 0
          0 0 0 0 0 0
          0 0 0 46.27184049785125 -79.47298393380436 0
          45.58721039836791 74.29793537505739 0 0 0 0
          0 0 0 0 0 0
          0 0 0 45.99505331471937 -73.78540860125352 0
          44.89663006994335 67.5908153716024 0 0 0 0
          0 0 0 0 0 0
          0 0 0 45.82996646391978 -69.40734987751227 0
          44.16034357390442 61.1460074684408 0 0 0 0
          0 0 0 0 0 0
          0 0 0 45.443221602597546 -64.26166758653982 0
          43.416248937721825 54.74601123397457 0 0 0 0
          0 0 0 0 0 0
          0 0 0 44.85241698930313 -58.409306234576746 0
          42.2385264283498 49.74320673695466 0 0 0 0
          0 0 0 0 0 0
          0 0 0 44.15064979974385 -52.86636098584692 0
          40.94718775683108 45.10648471019711 0 0 0 0
          0 0 0 0 0 0
          0 0 0 43.22964321201235 -47.934758791154906 0
          0 0 0 39.77573406822788 40.568132174544886 0
          0 0 0 0 0 0
          0 0 0 42.30862350490262 -43.00308634772065 0
          <InformationKey name="L2_NORM_RANGE" location="vtkDataArray" length="2">
            <Value index="0">
              0
            </Value>
            <Value index="1">
              163.56473225
            </Value>
          </InformationKey>
        </DataArray>
        <DataArray type="Float64" Name="Velocity" NumberOfComponents="3" format="ascii" RangeMin="0.0023086824816995442" RangeMax="0.0030593029497963">
          0.0028600035626092203 0.0003501923402501715 0 0.0028736655053061065 0.00035444432391614595 0
          0.0028995224815559022 0.0003600464461999441 0 0.0029344267799979624 0.00036644770997636085 0
          0.0029786060020538744 0.00037249085876086424 0 0.003035910728812686 0.000377598444531183 0
          0.0028347424161502457 0.00030069400305667845 0 0.0028544992383305826 0.0003018924362182219 0
          0.002880849196812589 0.000301677164275401 0 0.0029155540403202995 0.0003013611924358357 0
          0.002958827878971459 0.00030133964977587435 0 0.0030092215629085213 0.0003030225970017248 0
          0.002809044147828144 0.00023324017980945857 0 0.002833443488644057 0.0002366319829453493 0
          0.0028618708851673473 0.000238969876530938 0 0.00289635569456618 0.00024091990980121606 0
          0.002937022321445496 0.00024352531317225692 0 0.002982056020279227 0.0002474877505106046 0
          0.002781537512109249 0.00016516748901622096 0 0.0028066957647950672 0.00017071788196021046 0
          0.0028361062373085783 0.0001761763410505463 0 0.0028702422477867137 0.0001816322693818285 0
          0.0029092226766864572 0.00018742611982969584 0 0.0029527806786126556 0.00019361756451312755 0
          0.0027500013804635254 0.00009856661501197965 0 0.0027748278664655943 0.00010640312485291955 0
          0.002803988366095171 0.00011444322802683846 0 0.002837639437655492 0.00012271139936372453 0
          0.002875932862212046 0.00013122192745466263 0 0.0029190157584166178 0.00013995492258097827 0
          0.0027138727953722967 0.000033259525076536424 0 0.0027380440725132318 0.00004332056526917897 0
          0.0027665389678954446 0.00005368323661958831 0 0.002799529684818881 0.00006435822255860055 0
          0.002837215914118597 0.00007533672291210516 0 0.002879824550513025 0.00008658060756884304 0
          0.0026732315866020828 -0.00003063830910805751 0 0.0026965653017553804 -0.000018508802264451018 0
          0.0027241821066101416 -0.000006006242579884087 0 0.002756296795161709 0.000006896049241705524 0
          0.00279316934771059 0.00002019361136759598 0 0.002835081792798044 0.000033850938877374645 0
          0.0026282483039094685 -0.00009299922661576842 0 0.0026505908051593094 -0.00007887396066329386 0
          0.002677104236704599 -0.00006430977052240614 0 0.00270808715196466 -0.00004926480907727662 0
          0.0027438543308581586 -0.000033723714948654155 0 0.0027847642118252035 -0.000017696423825529022 0
          0.0025791535923752385 -0.00015326642807228722 0 0.002600235443730399 -0.00013720761054223502 0
          0.002625398897044914 -0.0001206241273501904 0 0.0026549853396179955 -0.00010349034300418234 0
          0.002689331737946093 -0.00008578546147908049 0 0.002728828753327476 -0.0000674814318503353 0
          0.0025261139568656973 -0.0002106279465279391 0 0.002545573947271024 -0.00019267539461571902 0
          0.0025691021108825564 -0.0001740807789088172 0 0.002597020742755898 -0.0001548472105164151 0
          0.002629631903497546 -0.00013494655474569948 0 0.002667238369123488 -0.00011431218639033967 0
          0.0024691180216316047 -0.0002643912457013644 0 0.0024866036262346392 -0.00024450847095317164 0
          0.0025082205384675724 -0.00022390547739842121 0 0.0025341890227299183 -0.000202571892545106 0
          0.0025647495045811063 -0.00018046150153460175 0 0.0026001279853808327 -0.00015750497572897062 0
          0.002408047334383877 -0.0003137535057244458 0 0.002423377724406789 -0.0002920471199475906 0
          0.0024428334968859392 -0.000269539547705224 0 0.00246657850697479 -0.0002461943962539833 0
          0.0024948077075747067 -0.0002219638862781984 0 0.002527728497775258 -0.00019678661880437282 0
          0.002342959426680266 -0.0003585812386886812 0 0.0023560044830338387 -0.0003350987734641746 0
          0.002373074346133574 -0.00031074428054113243 0 0.0023943474852558956 -0.000285461888777953 0
          0.002420010269932221 -0.00025920335089032304 0 0.0024502412050753514 -0.00023191936524952873 0
          0.002284566569509423 -0.00037346726614453186 0 0.0022739992368209895 -0.00039867564791936294 0
          0.002299043468190422 -0.0003473018000589016 0 0.0023176253593566974 -0.00032012899026360103 0
          0.002340495071712505 -0.0002918911871802754 0 0.0023678507686213483 -0.0002625327972345236 0
          <InformationKey name="L2_NORM_RANGE" location="vtkDataArray" length="2">
            <Value index="0">
              0.0023086824817
            </Value>
            <Value index="1">
              0.0030593029498
            </Value>
          </InformationKey>
        </DataArray>
      </PointData>
      <CellData>
        <DataArray type="UInt8" Name="vtkGhostType" format="ascii" RangeMin="0" RangeMax="0">
          0 0 0 0 0 0
          0 0 0 0 0 0
          0 0 0 0 0 0
          0 0 0 0 0 0
          0 0 0 0 0 0
          0 0 0 0 0 0
          0 0 0 0 0 0
          0 0 0 0 0 0
          0 0 0 0 0 0
          0 0 0 0 0 0
          0 0 0 0 0
        </DataArray>
        <DataArray type="Float64" Name="Gauss Stress" NumberOfComponents="6" format="ascii" RangeMin="179.84776431068718" RangeMax="513.8757205112704">
          445.56535473073507 43.44720137330399 0 32.97908002978369 0 0
          461.2199468171745 44.35561469763164 0 17.436262464331843 0 0
          477.35162096691045 45.02860061859337 0 1.1631462726387023 0 0
          493.8901586533325 45.42047359686698 0 -15.83628242449312 0 0
          510.75572558374523 45.483129261101006 0 -33.58764455893165 0 0
          425.08479674923603 48.038622814949285 0 33.922834676118676 0 0
          439.5825657274728 48.98776628288965 0 17.96606467758412 0 0
          454.50003721794013 49.735427498787914 0 1.3312685490034948 0 0
          469.7815094812359 50.22477883897429 0 -16.060211268987576 0 0
          485.535396503284 50.451567827280556 0 -34.2051434312987 0 0
          403.98865914573713 52.72865990600452 0 35.017286028930236 0 0
          417.5413916805237 53.83840313572542 0 18.800356012674335 0 0
          431.166659188288 54.75218234317581 0 1.8162111146428535 0 0
          445.1134261080989 55.3898597956437 0 -16.039740180475945 0 0
          459.49427773848487 55.63504872260906 0 -34.758696686010985 0 0
          382.9703676531001 58.27356145092488 0 36.30672998296973 0 0
          395.2184485529492 59.34219709274046 0 19.991655899575232 0 0
          407.2922781421865 60.256120475426364 0 2.6779808439769113 0 0
          419.64661069757744 60.968912133429384 0 -15.66222554261184 0 0
          432.63555080378796 61.39561259563732 0 -35.0259871124626 0 0
          362.7373055918079 64.70660689363454 0 37.12677156240234 0 0
          372.8521369003498 65.37161607002473 0 20.919158665176976 0 0
          383.07244704498896 65.98888814044614 0 3.491424932445459 0 0
          393.52156996259527 66.50295996292934 0 -15.098816107588707 0 0
          404.5694423205186 66.92198127496626 0 -34.97738187278597 0 0
          342.5982823774241 71.21891898199824 0 37.76033917217981 0 0
          350.5309156390904 71.48716443178657 0 21.34922124669938 0 0
          358.7681204832245 71.60624574493558 0 3.800274655300557 0 0
          367.1584726886503 71.63822808324646 0 -14.895348696655583 0 0
          375.5243426083567 71.55846455012842 0 -34.92839390629076 0 0
          321.80635915882476 77.82638603268616 0 37.91298864066785 0 0
          327.9315209459603 77.67927569877105 0 21.093763555308296 0 0
          334.3798636274604 77.38994183894486 0 3.341891779806731 0 0
          340.77164074735816 77.00522663767372 0 -15.469751447281556 0 0
          346.7583232452645 76.58604578842824 0 -35.48426842603174 0 0
          300.0105585276789 84.4665527833659 0 37.7254850148354 0 0
          304.9706783951306 84.25773543835236 0 20.533058418728245 0 0
          309.9032721891593 83.83517637534979 0 2.5947032531226775 0 0
          314.5753896061711 83.30714149404943 0 -16.221251317443077 0 0
          318.74798617048293 82.82859077525079 0 -35.99799398570611 0 0
          277.6680158522061 91.93340511325083 0 37.761092807276114 0 0
          281.57874819050204 91.90739539824054 0 20.18723163508772 0 0
          285.29761223640446 91.56953454268535 0 1.9375181098223737 0 0
          288.6706544089677 90.97165924514779 0 -16.990712835458346 0 0
          291.4129062882899 90.25450478331936 0 -36.59593166508898 0 0
          255.07765978327566 100.36835590818103 0 38.4651555572661 0 0
          257.5006585870913 101.40015573964081 0 20.716924086513767 0 0
          260.0307310127232 101.90918151764095 0 1.5162922210276215 0 0
          262.6782314977872 100.64795532900689 0 -18.227184327994188 0 0
          265.0243335478305 98.97792716218252 0 -37.542550717794626 0 0
          233.98762940597706 109.4599928341105 0 41.863908143802206 0 0
          231.85768098301767 114.0058000196994 0 24.226437210575 0 0
          230.92671341918467 115.41481384602065 0 1.4797967666967435 0 0
          235.60513891564412 113.35549727704401 0 -21.706365200806037 0 0
          241.54091536672794 108.16918839171159 0 -40.50293574633623 0 0
          221.1140038259404 123.54216586443461 0 49.16736307782319 0 0
          200.66170437341472 122.75863783060922 0 28.345385662757813 0 0
          193.8200521930304 120.74012903798118 0 1.5367731029169347 0 0
          203.0114340908968 121.91668792928124 0 -25.864988891130327 0 0
          226.45149439747752 121.59241802648972 0 -48.17708151611228 0 0
          203.28125504701472 107.15630337995302 0 38.642950287669834 0 0
          168.52712651833434 84.32530781774206 0 17.185611216175335 0 0
          162.63604683590034 76.76846732389691 0 1.1562966241819244 0 0
          168.98574782320844 81.34166280140136 0 -15.34290388117402 0 0
          205.9893022333201 102.01051600120128 0 -38.52303469435888 0 0
          <InformationKey name="L2_NORM_RANGE" location="vtkDataArray" length="2">
            <Value index="0">
              179.84776431
            </Value>
            <Value index="1">
              513.87572051
            </Value>
          </InformationKey>
        </DataArray>
        <DataArray type="Float64" Name="Gauss Strain" NumberOfComponents="6" format="ascii" RangeMin="0.00006825179646704476" RangeMax="0.0003448196213937049">
          0.00024989276567095875 -0.00015218606787451017 0 0.00006595172846804066 0 0
          0.00025891819298776153 -0.0001579039970148188 0 0.00003486901950437493 0 0
          0.00026832305842004744 -0.00016395480470776658 0 0.0000023260714728484953 0 0
          0.0002780834073477789 -0.00017033791630766124 0 -0.000031669125236259424 0 0
          0.0002881704816577735 -0.00017705036738308033 0 -0.0000671677914535018 0 0
          0.00023577535059683683 -0.00014123515439967704 0 0.00006783926773224122 0 0
          0.00024409110242809567 -0.0001464655400211512 0 0.000035928637697163025 0 0
          0.00025273832330516277 -0.00015198547782951932 0 0.0000026622892692362348 0 0
          0.0002617062227000949 -0.0001578068855613013 0 -0.000032117059962061945 0 0
          0.00027106139632396276 -0.00016397580574689652 0 -0.00006840293003810954 0 0
          0.00022124887116838074 -0.00012997905202105642 0 0.00007002819246998357 0 0
          0.00022893399969418915 -0.00013473471084837763 0 0.00003759718529965944 0 0
          0.00023674021159197922 -0.00013963769573913098 0 0.00000363208854022229 0 0
          0.00024484873723752687 -0.00014483583077995466 0 -0.000032076248234454025 0 0
          0.00025337348711496066 -0.0001504441486970265 0 -0.00006951020862207098 0 0
          0.00020642681720509093 -0.00011824134549312526 0 0.00007260706892768386 0 0
          0.00021334625404167973 -0.00012249947419887275 0 0.00003997969370844362 0 0
          0.00022022230530874265 -0.00012678141442462598 0 0.000005355478558559785 0 0
          0.00022734612413516375 -0.00013129711199325045 0 -0.000031321420832894554 0 0
          0.0002349638820837996 -0.00013623939146475972 0 -0.00007004503107156809 0 0
          0.00019172016445960505 -0.00010628506679374872 0 0.00007424720900782427 0 0
          0.00019752181170230865 -0.00010993177243306951 0 0.00004183466487765962 0 0
          0.0002034051130089115 -0.00011364998148416518 0 0.0000069822378681874725 0 0
          0.00020946605476598879 -0.0001175224828519339 0 -0.000030194837678749516 0 0
          0.00021592306523139648 -0.00012169257295399638 0 -0.00006994814871770262 0 0
          0.00017703773994208472 -0.000094319175065527 0 0.0000755144388971782 0 0
          0.00018168942902682672 -0.0000973307826562797 0 0.000042694850564417694 0 0
          0.0001865827446974749 -0.00010055442628126299 0 0.00000759990771317787 0 0
          0.0001916019034681471 -0.00010389242128130972 0 -0.00002978806989572247 0 0
          0.0001966500513225361 -0.00010728866390208312 0 -0.00006985052804420284 0 0
          0.00016192520978861036 -0.00008203527575775803 0 0.00007581992560517076 0 0
          0.00016565905007581702 -0.00008457290767205361 0 0.000042184114737797755 0 0
          0.00016964289348811448 -0.00008732587875570629 0 0.000006683243607258752 0 0
          0.0001736301164721732 -0.00009011427475449918 0 -0.00003093690717025584 0 0
          0.00017738716903152596 -0.00009276225179830065 0 -0.0000709625181298549 0 0
          0.0001461969681265662 -0.00006933047707158302 0 0.00007544517588238675 0 0
          0.0001492568183755344 -0.00007143895770062024 0 0.00004106292822870488 0 0
          0.00015238489662239285 -0.00007366541278455706 0 0.000005189006280998014 0 0
          0.00015539808622863638 -0.00007585177584712444 0 -0.000032439912930674354 0 0
          0.0001580909256295865 -0.00007780954110025995 0 -0.00007199019859668285 0 0
          0.00012980962031391985 -0.00005591127686557784 0 0.00007551660941846442 0 0
          0.00013216704656016098 -0.00005749015568917715 0 0.00004037145413928076 0 0
          0.00013453333094279318 -0.00005918016348430144 0 0.000003874751005819273 0 0
          0.00013679531090941832 -0.00006088869305065359 0 -0.000033978839108279936 0 0
          0.00013872569004196034 -0.00006241737707943229 0 -0.00007318627136844837 0 0
          0.00011288581475966951 -0.00004181250799958903 0 0.0000769248455470093 0 0
          0.0001139279426181361 -0.00004216137702425793 0 0.00004143087685304096 0 0
          0.00011524259537616655 -0.0000428675335783224 0 0.0000030323708042085314 0 0
          0.00011733465807929609 -0.00004468386775083322 0 -0.00003645171166405975 0 0
          0.00011940848905660216 -0.00004662585006279251 0 -0.00007507963008762913 0 0
          0.00009659849612647653 -0.00002792060130479834 0 0.00008372205803420179 0 0
          0.00009350430679137822 -0.000024339452681265694 0 0.000048449509570251856 0 0
          0.00009238306809299102 -0.000023120869979187386 0 0.000002959393803814896 0 0
          0.00009601254944602289 -0.000026228590184473877 0 -0.000043409677337886426 0 0
          0.0001016458849608798 -0.00003171652766120747 0 -0.00008100019163252294 0 0
          0.00008324333677107998 -0.000014321768329994544 0 0.00009832790393720525 0 0
          0.00007128909956297114 -0.000006608944491864888 0 0.000056687081431070824 0 0
          0.00006799287251343933 -0.00000508246962063752 0 0.00000307335499176178 0 0
          0.00007303561521827817 -0.000008053876167729568 0 -0.00005172658650268511 0 0
          0.00008722512432284002 -0.00001762663950125032 0 -0.00009634740325575563 0 0
          0.00007909940424885574 -0.00001701957036134849 0 0.00007728118234747632 0 0
          0.00006738208684430036 -0.000016815583614909757 0 0.00003436949663627736 0 0
          0.0000668704748678639 -0.000018993140043721546 0 0.0000023124767641037762 0 0
          0.00006885053899542692 -0.000018789276928804503 0 -0.00003068429511287071 0 0
          0.0000827818419076448 -0.000021190526966391454 0 -0.00007704142537957389 0 0
          <InformationKey name="L2_NORM_RANGE" location="vtkDataArray" length="2">
            <Value index="0">
              6.8251796467e-05
            </Value>
            <Value index="1">
              0.00034481962139
            </Value>
          </InformationKey>
        </DataArray>
        <DataArray type="Float64" Name="Btraction" NumberOfComponents="3" format="ascii" RangeMin="0" RangeMax="79.55358679338019">
          20.18073045626474 21.4186542211855 0 0 0 0
          0 0 0 0 0 0
          21.384566679228744 -22.734461284718886 0 20.796428546295218 23.712422861787946 0
          0 0 0 0 0 0
          0 0 0 21.84507325293905 -25.200279944250454 0
          21.413693841517905 26.122304492732308 0 0 0 0
          0 0 0 0 0 0
          22.250766697261746 -27.818916805105907 0 21.89414812790656 28.973004675603836 0
          0 0 0 0 0 0
          0 0 0 22.573909647975164 -30.66774345527914 0
          22.264243410961946 32.184205710010794 0 0 0 0
          0 0 0 0 0 0