<?xml version="1.0"?>
<VTKFile type="UnstructuredGrid" version="0.1" byte_order="LittleEndian" header_type="UInt32" compressor="vtkZLibDataCompressor">
  <UnstructuredGrid>
    <Piece NumberOfPoints="90" NumberOfCells="70">
      <PointData>
        <DataArray type="Float64" Name="sld_BC" NumberOfComponents="3" format="ascii" RangeMin="0" RangeMax="0">
          0 0 0 0 0 0
          0 0 0 0 0 0
          0 0 0 0 0 0
          0 0 0 0 0 0
          0 0 0 0 0 0
          0 0 0 0 0 0
          0 0 0 0 0 0
          0 0 0 0 0 0
          0 0 0 0 0 0
          0 0 0 0 0 0
          0 0 0 0 0 0
          0 0 0 0 0 0
          0 0 0 0 0 0
          0 0 0 0 0 0
          0 0 0 0 0 0
          0 0 0 0 0 0
          0 0 0 0 0 0
          0 0 0 0 0 0
          0 0 0 0 0 0
          0 0 0 0 0 0
          0 0 0 0 0 0
          0 0 0 0 0 0
          0 0 0 0 0 0
          0 0 0 0 0 0
          0 0 0 0 0 0
          0 0 0 0 0 0
          0 0 0 0 0 0
          0 0 0 0 0 0
          0 0 0 0 0 0
          0 0 0 0 0 0
          0 0 0 0 0 0
          0 0 0 0 0 0
          0 0 0 0 0 0
          0 0 0 0 0 0
          0 0 0 0 0 0
          0 0 0 0 0 0
          0 0 0 0 0 0
          0 0 0 0 0 0
          0 0 0 0 0 0
          0 0 0 0 0 0
          0 0 0 0 0 0
          0 0 0 0 0 0
          0 0 0 0 0 0
          0 0 0 0 0 0
          0 0 0 0 0 0
          <InformationKey name="L2_NORM_RANGE" location="vtkDataArray" length="2">
            <Value index="0">
              0
            </Value>
            <Value index="1">
              0
            </Value>
          </InformationKey>
        </DataArray>
        <DataArray type="Float64" Name="sld_FIXNO" NumberOfComponents="3" format="ascii" RangeMin="1.4142135623730951" RangeMax="1.4142135623730951">
          -1 -1 0 -1 -1 0
          -1 -1 0 -1 -1 0
          -1 -1 0 -1 -1 0
          -1 -1 0 -1 -1 0
          -1 -1 0 -1 -1 0
          -1 -1 0 -1 -1 0
          -1 -1 0 -1 -1 0
          -1 -1 0 -1 -1 0
          -1 -1 0 -1 -1 0
          -1 -1 0 -1 -1 0
          -1 -1 0 -1 -1 0
          -1 -1 0 -1 -1 0
          -1 -1 0 -1 -1 0
          -1 -1 0 -1 -1 0
          -1 -1 0 -1 -1 0
          -1 -1 0 -1 -1 0
          -1 -1 0 -1 -1 0
          -1 -1 0 -1 -1 0
          -1 -1 0 -1 -1 0
          -1 -1 0 -1 -1 0
          -1 -1 0 -1 -1 0
          -1 -1 0 -1 -1 0
          -1 -1 0 -1 -1 0
          -1 -1 0 -1 -1 0
          -1 -1 0 -1 -1 0
          -1 -1 0 -1 -1 0
          -1 -1 0 -1 -1 0
          -1 -1 0 -1 -1 0
          -1 -1 0 -1 -1 0
          -1 -1 0 -1 -1 0
          -1 -1 0 -1 -1 0
          -1 -1 0 -1 -1 0
          -1 -1 0 -1 -1 0
          -1 -1 0 -1 -1 0
          -1 -1 0 -1 -1 0
          -1 -1 0 -1 -1 0
          -1 -1 0 -1 -1 0
          -1 -1 0 -1 -1 0
          -1 -1 0 -1 -1 0
          -1 -1 0 -1 -1 0
          -1 -1 0 -1 -1 0
          -1 -1 0 -1 -1 0
          -1 -1 0 -1 -1 0
          -1 -1 0 -1 -1 0
          -1 -1 0 -1 -1 0
          <InformationKey name="L2_NORM_RANGE" location="vtkDataArray" length="2">
            <Value index="0">
              1.4142135624
            </Value>
            <Value index="1">
              1.4142135624
            </Value>
          </InformationKey>
        </DataArray>
        <DataArray type="Float64" Name="Disp" NumberOfComponents="3" format="ascii" RangeMin="0.0000023840984349520902" RangeMax="0.00005279350862091242">
          0.000012439622165359961 -0.00004726474088874173 0 0.000009790325492239413 -0.00004711061372429015 0
          0.0000072448782588364946 -0.000046779386345060945 0 0.0000047861390405617336 -0.00004627649710887539 0
          0.000002395839044355961 -0.00004559833998895574 0 5.5029705221597344e-8 -0.00004473366163326991 0
          0.000012040673736984234 -0.0000423573211564124 0 0.000008911273356998356 -0.00004218951873998194 0
          0.000005909997951372974 -0.00004185236099552002 0 0.0000029988036343458675 -0.00004135182892620539 0
          1.4297792521240158e-7 -0.00004068564446977453 0 -0.0000026911992792036074 -0.00003984312899672682 0
          0.000011529645222203637 -0.000036597779255468 0 0.000007963167897914821 -0.00003640394576818831 0
          0.000004541173815385807 -0.000036058223632970424 0 0.0000012150542217440239 -0.00003556671971802981 0
          -0.0000020674894821571507 -0.00003492802770668872 0 -0.000005358467178294836 -0.00003413142819359292 0
          0.000010873164384975212 -0.000030075413408327742 0 0.000006922158690203012 -0.000029843614531249136 0
          0.0000031376924573373903 -0.000029487074169023815 0 -5.472559681894929e-7 -0.00002900931600649209 0
          -0.00000419800057477999 -0.000028407510018643686 0 -0.000007885777174973936 -0.000027674222226853052 0
          0.000010044008519693103 -0.00002285841078914604 0 0.00000578839789239068 -0.000022607906215450417 0
          0.000001710813434393471 -0.000022259744882043272 0 -0.000002267913847178244 -0.00002181242286644141 0
          -0.000006220292408130103 -0.000021261939331816887 0 -0.000010218903194593205 -0.000020603795063476355 0
          0.000009042363042436178 -0.000015146702199677759 0 0.000004578988805409433 -0.000014886045354701236 0
          2.854803387530922e-7 -0.00001456063925812321 0 -0.000003914754719684746 -0.000014164819839302498 0
          -0.000008094702613265116 -0.000013694864463092877 0 -0.00001232202862418758 -0.000013148275339254906 0
          0.00000788550188717912 -0.0000071220382542357155 0 0.000003305876676258197 -0.0000068573461436083956 0
          -0.000001119358568402547 -0.000006560401108172901 0 -0.0000054613244618933235 -0.000006224019221969398 0
          -0.000009789396091849089 -0.000005843283160014802 0 -0.000014171652529907805 -0.00000541425175639555 0
          0.000006594898994116498 0.0000010628558085439055 0 0.000001982342807760764 0.0000013244781387626514 0
          -0.0000024932925399405975 0.0000015884721995400622 0 -0.0000068980637615824506 0.0000018627905129160296 0
          -0.000011297555882428926 0.0000021529453719522096 0 -0.000015757588072354358 0.0000024625826526183037 0
          0.000005193317694213035 0.000009265759181017639 0 6.241944294360304e-7 0.000009516471713268105 0
          -0.000003827122093291753 0.000009742780066613796 0 -0.000008220431689986085 0.000009952746982463603 0
          -0.000012616462689429985 0.000010151417058104345 0 -0.00001707731913008512 0.000010341348214845215 0
          0.0000037071633783309178 0.000017354103491521976 0 -7.512325988955662e-7 0.000017585105878480894 0
          -0.000005110330797572896 0.0000177677289049654 0 -0.000009423950374493407 0.000017910017807687013 0
          -0.000013745981088744399 0.000018016565328598433 0 -0.000018133033129102052 0.00001808801993493165 0
          0.000002160952702908232 0.000025205991417535924 0 -0.0000021245166476095347 0.00002540824712598548 0
          -0.000006330172496864186 0.000025539782487085175 0 -0.000010501832964534682 0.000025608290736858392 0
          -0.000014685642738516121 0.00002561749369015096 0 -0.000018926541654207687 0.00002556641241492381 0
          5.825825505550469e-7 0.0000327201000966577 0 -0.0000034765842219499052 0.000032884659446446104 0
          -0.000007473671366472673 0.00003295875535210355 0 -0.000011447130328927975 0.00003294899919458496 0
          -0.000015435498186190337 0.00003285875394638427 0 -0.000019475765807111646 0.0000326882851144826 0
          -0.0000010027494316662558 0.000039814081875791203 0 -0.000004790533069556856 0.00003993373767483879 0
          -0.000008530780612069365 0.00003994572479016771 0 -0.00001225656519462735 0.00003985548024810812 0
          -0.00001600129514795846 0.00003966640648407249 0 -0.000019797534475793532 0.00003938016759753153 0
          0.000010611382720502053 -0.00005109053326824528 0 0.000012767279854263319 -0.00005122646891626706 0
          0.000008539603638003734 -0.000050774266163597597 0 0.000006551943725758841 -0.000050281902357635304 0
          0.000004646013468626719 -0.000049610657526946364 0 0.000002819110949545649 -0.00004874981041591224 0
          -0.00000605328179139373 0.00004648875461671506 0 -0.0000025757125639307796 0.00004641920577080614 0
          -0.000009494355356805438 0.00004643548540661384 0 -0.000012928682370873896 0.000046263378113823205 0
          -0.00001638722491129586 0.000045975605403260014 0 -0.000019900580598436654 0.00004557493157302134 0
          <InformationKey name="L2_NORM_RANGE" location="vtkDataArray" length="2">
            <Value index="0">
              2.384098435e-06
            </Value>
            <Value index="1">
              5.2793508621e-05
            </Value>
          </InformationKey>
        </DataArray>
        <DataArray type="Float64" Name="Sld_traction" NumberOfComponents="3" format="ascii" RangeMin="0" RangeMax="394.84822084681383">
          15.065032861351717 -10.479166533092627 0 0 0 0
          0 0 0 0 0 0
          0 0 0 24.71376588811779 -140.38962426928722 0
          10.455771375069421 3.710824096423688 0 0 0 0
          0 0 0 0 0 0
          0 0 0 23.709655650163143 -143.35967594079597 0
          7.414382302222203 21.38204269791075 0 0 0 0
          0 0 0 0 0 0
          0 0 0 22.850304979190945 -146.2730064851983 0
          3.053117462012498 42.57882573598967 0 0 0 0
          0 0 0 0 0 0
          0 0 0 22.156256026134777 -145.91806412537343 0
          -1.5150919630928001 76.77618350102523 0 0 0 0
          0 0 0 0 0 0
          0 0 0 18.77209748766118 -145.31220504083373 0
          -4.127353081339738 115.82292642147314 0 0 0 0
          0 0 0 0 0 0
          0 0 0 13.645287729325023 -156.60063177781862 0
          -6.211638735037353 154.24527326578348 0 0 0 0
          0 0 0 0 0 0
          0 0 0 9.364183679548317 -170.78422065203168 0
          -8.240749111663334 191.54578739765964 0 0 0 0
          0 0 0 0 0 0
          0 0 0 4.812170075670776 -184.75984057884892 0
          -9.996181104999724 227.63988496532943 0 0 0 0
          0 0 0 0 0 0
          0 0 0 0.051260547020797284 -198.80976262114595 0
          -11.19648352459182 262.89201551959354 0 0 0 0
          0 0 0 0 0 0
          0 0 0 -4.99851540075255 -213.25352546675404 0
          -12.157826372167827 297.33455064013356 0 0 0 0
          0 0 0 0 0 0
          0 0 0 -9.32358205274267 -231.90042164377135 0
          -13.27449733326358 330.6612887214633 0 0 0 0
          0 0 0 0 0 0
          0 0 0 -12.459630859866985 -253.91833991215032 0
          -14.700637333601911 362.9809411608352 0 0 0 0
          0 0 0 0 0 0
          0 0 0 -15.042834604620205 -277.16923872832103 0
          0 0 0 20.846042308450308 -15.110100388352528 0
          0 0 0 0 0 0
          0 0 0 25.044077012885914 -138.37162519302888 0
          0 0 0 -16.429205068778916 394.50627210058684 0
          0 0 0 0 0 0
          0 0 0 -17.276562918863096 -300.864928570477 0
          <InformationKey name="L2_NORM_RANGE" location="vtkDataArray" length="2">
            <Value index="0">
              0
            </Value>
            <Value index="1">
              394.84822085
            </Value>
          </InformationKey>
        </DataArray>
        <DataArray type="Float64" Name="Fld_traction" NumberOfComponents="3" format="ascii" RangeMin="0" RangeMax="347.9073820590155">
          22.377836328453593 57.52272329513757 0 0 0 0
          0 0 0 0 0 0
          0 0 0 26.814312457550866 -67.9854910523967 0
          20.6804765454359 68.54854592449878 0 0 0 0
          0 0 0 0 0 0
          0 0 0 23.3435777632272 -74.85861881687163 0
          18.983116762418184 79.57436855386017 0 0 0 0
          0 0 0 0 0 0
          0 0 0 19.549135411409456 -84.7209736240656 0
          17.285756979400478 90.60019118322144 0 0 0 0
          0 0 0 0 0 0
          0 0 0 15.75469305959174 -94.5833284312595 0
          14.256452290657807 113.0571187318503 0 0 0 0
          0 0 0 0 0 0
          0 0 0 11.960250707773996 -104.44568323845348 0
          10.820108013094769 139.00736813343417 0 0 0 0
          0 0 0 0 0 0
          0 0 0 7.215338912689495 -127.234040282011 0
          7.383763735531702 164.95761753501827 0 0 0 0
          0 0 0 0 0 0
          0 0 0 2.3193900920356576 -152.07644014000402 0
          3.9474194579686626 190.90786693660215 0 0 0 0
          0 0 0 0 0 0
          0 0 0 -2.5765587286181404 -176.91883999799688 0
          0.5794459680438042 216.87605317891374 0 0 0 0
          0 0 0 0 0 0
          0 0 0 -7.472507549271939 -201.7612398559897 0
          -2.054798370719859 243.03673073771142 0 0 0 0
          0 0 0 0 0 0
          0 0 0 -12.368456369925775 -226.60363971398274 0
          -4.689042709483503 269.19740829650897 0 0 0 0
          0 0 0 0 0 0
          0 0 0 -15.37199786705887 -254.7619303023302 0
          -7.323287048247166 295.3580858553067 0 0 0 0
          0 0 0 0 0 0
          0 0 0 -17.71729335324403 -284.0736046357452 0
          -9.957531387010809 321.51876341410417 0 0 0 0
          0 0 0 0 0 0
          0 0 0 -20.062588839429175 -313.38527896916 0
          0 0 0 25.978625120845535 53.604416880899564 0
          0 0 0 0 0 0
          0 0 0 29.89047377692698 -64.75634719742317 0
          0 0 0 -12.591775725774472 347.67944097290194 0
          0 0 0 0 0 0
          0 0 0 -22.407884325614337 -342.696953302575 0
          <InformationKey name="L2_NORM_RANGE" location="vtkDataArray" length="2">
            <Value index="0">
              0
            </Value>
            <Value index="1">
              347.90738206
            </Value>
          </InformationKey>
        </DataArray>
        <DataArray type="Float64" Name="Velocity" NumberOfComponents="3" format="ascii" RangeMin="0.0031220090862219625" RangeMax="0.003749380851842515">
          -0.00313186410343254 0.0001578983873684861 0 -0.0032598277332569633 0.00014328191534899624 0
          -0.003380970136735015 0.00012789928906925942 0 -0.00349609508310003 0.0001117824707126203 0
          -0.003605998026476555 0.00009503767462549031 0 -0.003711446071656695 0.00007783622958432873 0
          -0.003100747571780385 0.00036698584150566356 0 -0.0032264368200533946 0.0003519334926276312 0
          -0.003345226017834531 0.00033571748648808216 0 -0.003458102806196674 0.0003183639628116596 0
          -0.003566004943567557 0.00029997343876319357 0 -0.0036698304492351857 0.0002807253919059835 0
          -0.0030692523162475435 0.0005715163634241655 0 -0.0031914708721187753 0.0005562362332836204 0
          -0.003306771242307487 0.000539313268869299 0 -0.003416232478058818 0.0005207658950647292 0
          -0.003520961123560665 0.0005006841020463143 0 -0.003622045036308782 0.00047925412517941276 0
          -0.003037959842948109 0.0007692107333914476 0 -0.0031554249100794007 0.0007539224882859003 0
          -0.0032658827827261837 0.0007364052953822915 0 -0.003370595489773632 0.0007167133189320033 0
          -0.0034707824010653046 0.0006949567252077129 0 -0.003567727150128802 0.0006712714641282306 0
          -0.0030073650931285566 0.000958161988600032 0 -0.0031185072090968813 0.000942675621625847 0
          -0.003222678227533705 0.0009243961684016846 0 -0.0033212565307897883 0.0009034423896028184 0
          -0.0034155063601957686 0.0008799471240836254 0 -0.003506640335567245 0.0008540259601371803 0
          -0.002977655981008104 0.0011348303478545148 0 -0.003080723354503297 0.0011191118555601502 0
          -0.0031771041056933612 0.0010999695656015724 0 -0.0032681096950519933 0.0010775725997274502 0
          -0.0033549794744427647 0.0010520530218469974 0 -0.0034388450178780973 0.0010235234552838368 0
          -0.0029488302143790947 0.0012960304065258515 0 -0.0030421826321595457 0.0012800945359780684 0
          -0.0031292134108595014 0.001260126576512031 0 -0.003211134369693277 0.0012363062538829459 0
          -0.0032891319269627256 0.0012087759174918232 0 -0.0033643626712170313 0.001177678411950428 0
          -0.0029208488963303986 0.0014390449910730478 0 -0.0030030216085658837 0.0014229020829350375 0
          -0.0030792158271029744 0.0014021822232314664 0 -0.0031505525534707606 0.0013770305712291373 0
          -0.003218210077005486 0.0013475921303160083 0 -0.003283359849321519 0.0013140129619944527 0
          -0.002893694341304945 0.0015614480050396536 0 -0.0029633703716844904 0.0015451160857116906 0
          -0.003027283735413437 0.0015236164121365146 0 -0.003086621313569478 0.0014971548212514326 0
          -0.003142491556046996 0.0014658911686839878 0 -0.0031960634738863896 0.0014299192694741992 0
          -0.0028672594854446403 0.001661632534740518 0 -0.002922923242657842 0.001644548200138123 0
          -0.002973321780299165 0.0016218926042380984 0 -0.0030194886220028844 0.0015939551835015078 0
          -0.003062331220990403 0.0015608900845269476 0 -0.0031027935279799588 0.0015227010405805905 0
          -0.002840865267297657 0.0017359194128901394 0 -0.0028811996965956606 0.0017179011360510528 0
          -0.0029171055798220755 0.0016939375744141933 0 -0.0029491963956611326 0.0016643866208530993 0
          -0.0029780415555889657 0.0016293984893235173 0 -0.003004124259239956 0.001588915273584094 0
          -0.00281358295977621 0.0017824337020175684 0 -0.002837828792909707 0.0017631940430195652 0
          -0.0028585355226820575 0.0017378121495316837 0 -0.0028758968015823324 0.0017066409037293894 0
          -0.0028900741345751326 0.0016698351107492988 0 -0.0029011689684303784 0.0016273643404356147 0
          -0.0027844271985737285 0.0018003499356880255 0 -0.0027923533782884535 0.001779624271120616 0
          -0.0027975982721465745 0.0017527407884612078 0 -0.002799966189853924 0.0017200363732704843 0
          -0.0027992517432882886 0.00168166779991316 0 -0.002795221948057885 0.0016376291538757013 0
          -0.0032912562842184584 -0.00006761725156414133 0 -0.0031619274236183697 -0.00005354919407343545 0
          -0.003413773242484087 -0.00008210971023937894 0 -0.003530170059552227 -0.00009698903396111454 0
          -0.003641106517909491 -0.00011216247967465586 0 -0.0037472135062936516 -0.0001274665070272983 0
          -0.0027443541877882394 0.0017673077950599884 0 -0.0027524845187378317 0.0017897587038897518 0
          -0.002734338567288566 0.0017388729671826638 0 -0.002721873786131737 0.0017047455381058417 0
          -0.002706444472566209 0.0016650655952755906 0 -0.0026875307931961373 0.001619843560530265 0
          <InformationKey name="L2_NORM_RANGE" location="vtkDataArray" length="2">
            <Value index="0">
              0.0031220090862
            </Value>
            <Value index="1">
              0.0037493808518
            </Value>
          </InformationKey>
        </DataArray>
      </PointData>
      <CellData>
        <DataArray type="UInt8" Name="vtkGhostType" format="ascii" RangeMin="0" RangeMax="1">
          1 1 1 1 1 0
          0 0 0 0 0 0
          0 0 0 0 0 0
          0 0 0 0 0 0
          0 0 0 0 0 0
          0 0 0 0 0 0
          0 0 0 0 0 0
          0 0 0 0 0 0
          0 0 0 0 0 0
          0 0 0 0 0 0
          0 0 0 0 0 0
          0 0 0 0
        </DataArray>
        <DataArray type="Float64" Name="Gauss Stress" NumberOfComponents="6" format="ascii" RangeMin="183.31067437299453" RangeMax="653.2411077012997">
          173.77210328035082 55.68232087275631 0 17.47966254904607 0 0
          290.9804544466611 59.35582153161182 0 4.519486776245117 0 0
          405.82793636996144 63.46775165497131 0 -7.094324332564539 0 0
          521.3540549485899 66.69785797984792 0 -17.129789088653265 0 0
          640.5245189160464 67.77631836760848 0 -25.57449745574489 0 0
          560.5957121645804 335.0241165731852 0 -14.670842098014099 0 0
          487.9944996201105 334.63044767714996 0 -15.780549155172281 0 0
          417.05858522564125 333.38115976893994 0 -11.835318095885574 0 0
          347.26585528751707 331.5200803903067 0 -2.67755808738156 0 0
          550.7722522669369 308.7968300986852 0 -13.340610927694126 0 0
          487.4101024098984 307.8219831572375 0 -16.34860260495566 0 0
          426.1188470187996 305.7132101198061 0 -13.621948566208957 0 0
          365.97429243566086 302.95493687456377 0 -5.092823444916853 0 0
          306.1427218561601 299.99875825965904 0 9.039183681628593 0 0
          537.0991426583514 282.57943408491496 0 -12.428791305938816 0 0
          484.42775405092505 281.0346922966837 0 -17.88060833906497 0 0
          434.20862474618 278.13954825134044 0 -16.62430330684557 0 0
          385.0472498223707 274.46842554243955 0 -8.581372976422106 0 0
          335.568017311003 270.7287373219879 0 6.046171674997335 0 0
          518.4237495798062 256.3774940843011 0 -11.863877922549946 0 0
          478.39350712657233 254.49368101372903 0 -20.192112838588457 0 0
          441.0776860148243 251.13487004084033 0 -20.693122890827034 0 0
          404.9677903802849 246.8421355846999 0 -13.297045696101769 0 0
          368.076657657605 242.09119443459522 0 2.1814558774501993 0 0
          494.14024349748183 230.1600409721963 0 -11.304230078572441 0 0
          468.8803110276209 228.47515208527523 0 -22.599567708611353 0 0
          446.26498184393915 225.19126922131198 0 -25.08947379317128 0 0
          425.17285130488557 220.90913846315803 0 -18.693553858963266 0 0
          404.5774438418936 216.28367558083008 0 -3.0705919015025933 0 0
          464.83828783748373 204.28082663883976 0 -10.142404004349777 0 0
          455.7552809508294 202.80857447175177 0 -24.32476579616402 0 0
          449.54524514142975 199.90803497535282 0 -28.74190243940511 0 0
          445.19766090077394 196.04315852243278 0 -23.351577200236772 0 0
          441.9689560233993 191.62472479468076 0 -7.9970915765087085 0 0
          430.24628028640495 178.30498659063278 0 -8.477679918046176 0 0
          439.2601067065068 177.09464888972738 0 -25.404174036408428 0 0
          450.9226772731671 174.4887751400462 0 -31.65981183729002 0 0
          464.5171529776553 170.99090880461333 0 -27.431107859153233 0 0
          479.46007407763204 166.80418565267047 0 -12.794816952071098 0 0
          391.0346668242542 152.3238303467944 0 -6.632550087760679 0 0
          419.6174518045141 151.16497445089942 0 -26.0416491612897 0 0
          450.48441258084983 148.8436195319569 0 -33.96120303148815 0 0
          482.74383699907617 145.643152534053 0 -30.822020811250596 0 0
          516.2591445638179 141.9313087823141 0 -17.131669916864567 0 0
          347.58389626750034 126.23146688061276 0 -4.797245385404986 0 0
          397.3505633802139 125.5702616622774 0 -26.11513706073367 0 0
          448.3141349407881 124.20526489219576 0 -35.50388516826127 0 0
          499.88231490444747 121.6272970671907 0 -33.74394116445628 0 0
          551.285009452557 117.4740318091412 0 -21.08255101847122 0 0
          301.43871660801705 101.35752605597827 0 -1.8722264411861307 0 0
          373.401388210462 102.99763143702161 0 -23.80754892313182 0 0
          443.6009705250811 103.87626707505797 0 -34.85549178995257 0 0
          513.9533947800086 103.4284307298841 0 -35.76194369791391 0 0
          585.0082241546148 100.9573672489714 0 -26.091113688516415 0 0
          258.45731525817723 84.35125825862538 0 3.866356493797741 0 0
          348.78341399236086 86.93946441310776 0 -17.347674278502698 0 0
          436.052825001991 89.48902169689998 0 -29.49140398038392 0 0
          523.5137661249457 91.27768354139448 0 -32.58646641057978 0 0
          614.574667216156 91.67808572878047 0 -26.217361994380713 0 0
          223.06822735635404 73.93172155664489 0 7.291176996594305 0 0
          325.93530135420764 75.58413200565361 0 -11.018187724063674 0 0
          427.10408995594946 78.61727343878763 0 -22.66110095503248 0 0
          528.645377379976 81.12619877823704 0 -27.582090389966968 0 0
          633.7927948814576 81.57609503425383 0 -25.834297795142696 0 0
          193.842529640117 62.56536406199276 0 11.113244295562584 0 0
          307.1226412150133 65.90581629915538 0 -4.120336483618947 0 0
          417.3511708389459 69.58734176198301 0 -15.331565015731272 0 0
          528.1798983536011 72.43963416490126 0 -22.593819767036955 0 0
          642.2635891350851 72.88887615167921 0 -25.860829396066137 0 0
          278.2096306571897 329.2232221913026 0 11.586862033685444 0 0
          <InformationKey name="L2_NORM_RANGE" location="vtkDataArray" length="2">
            <Value index="0">
              183.31067437
            </Value>
            <Value index="1">
              653.2411077
            </Value>
          </InformationKey>
        </DataArray>
        <DataArray type="Float64" Name="Gauss Strain" NumberOfComponents="6" format="ascii" RangeMin="0.00008771791329611727" RangeMax="0.0004202329587543077">
          0.00008198286850227832 -0.00003610108492355102 0 0.00003495778225619374 0 0
          0.0001508221154669226 -0.00008078591087926079 0 0.00000903838868438407 0 0
          0.00021805956526782522 -0.00012426811417715067 0 -0.000014187283295651045 0 0
          0.00028604635922127586 -0.00016855597621878712 0 -0.00003425552680891699 0 0
          0.0003570677704917702 -0.00021559886269659212 0 -0.000051141737391021694 0 0
          0.00020231823054792097 -0.00002321280848285867 0 -0.000029336321299905527 0 0
          0.00015892974065502552 0.000005591051315603779 0 -0.00003155577111818556 0 0
          0.00011687843671809306 0.0000332136796153959 0 -0.000023666919055451538 0 0
          0.00007575382005664544 0.00006001027060527353 0 -0.000005354194606781237 0 0
          0.0002069117676000293 -0.000035021940261448226 0 -0.00002667655105298883 0 0
          0.00016929788717681693 -0.000010261576607606404 0 -0.000032691894842099456 0 0
          0.0001333767781160483 0.000012988835355651207 0 -0.000027239772092362854 0 0
          0.00009840060521763837 0.00003538973066011253 0 -0.000010184118286103334 0 0
          0.0000636884553323197 0.000057545267471426076 0 0.000018076370267570224 0 0
          0.00020919247810342878 -0.000045285425381180744 0 -0.000024853448824717396 0 0
          0.00017821899452320766 -0.000025142871902361638 0 -0.0000357556592708101 0 0
          0.0001492545680299856 -0.000006792237989966532 0 -0.00003324376269028294 0 0
          0.00012123332755438476 0.00001066910266414589 0 -0.000017160348150995244 0 0
          0.00009304693899095384 0.00002821551554441082 0 0.000012091041995833514 0 0
          0.0002084669089254254 -0.000053538692881882615 0 -0.000023724044758371182 0 0
          0.00018521093630743946 -0.00003865604417668811 0 -0.00004037825215921691 0 0
          0.0001641719694351479 -0.0000257445439264814 0 -0.00004138044386408601 0 0
          0.00014422916533546326 -0.000013875892271586475 0 -0.000026590531726206137 0 0
          0.00012400000976645065 -0.0000019701205363070735 0 0.000004362502705297383 0 0
          0.00020438411917211852 -0.00005955782410621557 0 -0.000022605170061998424 0 0
          0.00018990728340319285 -0.00005046434110234088 0 -0.00004519280361936951 0 0
          0.0001776558192797817 -0.00004338821773824941 0 -0.00005017217173355711 0 0
          0.00016671726189691757 -0.00003752009117999333 0 -0.000037382229637188444 0 0
          0.00015621375089790168 -0.00003205669990707927 0 -0.000006140360986143557 0 0
          0.00019715629666096357 -0.00006336629308695275 0 -0.000020282090151383398 0 0
          0.0001922966486604116 -0.00006061674782661952 0 -0.00004864311749989393 0 0
          0.00018973141615108435 -0.000059873389771841756 0 -0.00005747633318906457 0 0
          0.00018866938344358486 -0.000060453208856503515 0 -0.000046697162649394404 0 0
          0.00018849997984797529 -0.0000618126026701582 0 -0.000015992157125886648 0 0
          0.00018679427504078583 -0.0000651163531461274 0 -0.000016953296904386387 0 0
          0.00019268368883545994 -0.00006944945323400509 0 -0.00005080209640295084 0 0
          0.00020071980812455537 -0.00007567953091164314 0 -0.00006331173054217929 0 0
          0.0002102717581457386 -0.00008321721320220243 0 -0.000054855287453409494 0 0
          0.00022090799359618382 -0.00009170754817158788 0 -0.000025586390582476408 0 0
          0.00017366347858949194 -0.00006502139425629272 0 -0.000013263655466646238 0 0
          0.00019126929005054694 -0.00007715251721340799 0 -0.00005207737872866735 0 0
          0.00021070927213720503 -0.00009089535015910365 0 -0.00006791432296444843 0 0
          0.00023133574663722345 -0.00010572257810370633 0 -0.0000616363859689383 0 0
          0.0002529193682018621 -0.00012135922589212587 0 -0.000034258955493568465 0 0
          0.00015803422259974553 -0.00006329715861974615 0 -0.000009593567198342321 0 0
          0.0001881471143414526 -0.00008360468825333034 0 -0.00005222484591125483 0 0
          0.0002192572965256656 -0.00010481439456666575 0 -0.0000709997189754764 0 0
          0.0002512136447421487 -0.00012699430478269047 0 -0.00006747962066503927 0 0
          0.00028369886178307435 -0.00015005407442686414 0 -0.000042159639107779544 0 0
          0.00014030120682530234 -0.000059763710607702025 0 -0.000003744112270553126 0 0
          0.00018280787942472065 -0.0000875699695415677 0 -0.00004761057853517096 0 0
          0.00022455757592546033 -0.0001151297906462623 0 -0.00006970341305009378 0 0
          0.00026692605199303554 -0.00014354808653285756 0 -0.00007151516381737985 0 0
          0.0003105212107820665 -0.00017346311167482087 0 -0.00005217523065387338 0 0
          0.00012131936762622975 -0.000052774510129083296 0 0.000007732283047826988 0 0
          0.00017446310622711014 -0.0000873578046480805 0 -0.00003469229857315273 0 0
          0.00022578267993864087 -0.00012074448275040116 0 -0.00005897664330165811 0 0
          0.00027751597508128556 -0.0001546667441444105 0 -0.000065165014262272 0 0
          0.0003319573905384565 -0.00019086509665394713 0 -0.00005242749239751982 0 0
          0.00010425729709340192 -0.00004487003071546036 0 0.000014581565751394642 0 0
          0.00016529936310880067 -0.00008503140421053933 0 -0.000022034581588706237 0 0