<?xml version="1.0"?>
<VTKFile type="UnstructuredGrid" version="0.1" byte_order="LittleEndian" header_type="UInt32" compressor="vtkZLibDataCompressor">
  <UnstructuredGrid>
    <Piece NumberOfPoints="84" NumberOfCells="65">
      <PointData>
        <DataArray type="Float64" Name="sld_BC" NumberOfComponents="3" format="ascii" RangeMin="0" RangeMax="0">
          0 0 0 0 0 0
          0 0 0 0 0 0
          0 0 0 0 0 0
          0 0 0 0 0 0
          0 0 0 0 0 0
          0 0 0 0 0 0
          0 0 0 0 0 0
          0 0 0 0 0 0
          0 0 0 0 0 0
          0 0 0 0 0 0
          0 0 0 0 0 0
          0 0 0 0 0 0
          0 0 0 0 0 0
          0 0 0 0 0 0
          0 0 0 0 0 0
          0 0 0 0 0 0
          0 0 0 0 0 0
          0 0 0 0 0 0
          0 0 0 0 0 0
          0 0 0 0 0 0
          0 0 0 0 0 0
          0 0 0 0 0 0
          0 0 0 0 0 0
          0 0 0 0 0 0
          0 0 0 0 0 0
          0 0 0 0 0 0
          0 0 0 0 0 0
          0 0 0 0 0 0
          0 0 0 0 0 0
          0 0 0 0 0 0
          0 0 0 0 0 0
          0 0 0 0 0 0
          0 0 0 0 0 0
          0 0 0 0 0 0
          0 0 0 0 0 0
          0 0 0 0 0 0
          0 0 0 0 0 0
          0 0 0 0 0 0
          0 0 0 0 0 0
          0 0 0 0 0 0
          0 0 0 0 0 0
          0 0 0 0 0 0
          <InformationKey name="L2_NORM_RANGE" location="vtkDataArray" length="2">
            <Value index="0">
              0
            </Value>
            <Value index="1">
              0
            </Value>
          </InformationKey>
        </DataArray>
        <DataArray type="Float64" Name="sld_FIXNO" NumberOfComponents="3" format="ascii" RangeMin="1.4142135623730951" RangeMax="1.4142135623730951">
          -1 -1 0 -1 -1 0
          -1 -1 0 -1 -1 0
          -1 -1 0 -1 -1 0
          -1 -1 0 -1 -1 0
          -1 -1 0 -1 -1 0
          -1 -1 0 -1 -1 0
          -1 -1 0 -1 -1 0
          -1 -1 0 -1 -1 0
          -1 -1 0 -1 -1 0
          -1 -1 0 -1 -1 0
          -1 -1 0 -1 -1 0
          -1 -1 0 -1 -1 0
          -1 -1 0 -1 -1 0
          -1 -1 0 -1 -1 0
          -1 -1 0 -1 -1 0
          -1 -1 0 -1 -1 0
          -1 -1 0 -1 -1 0
          -1 -1 0 -1 -1 0
          -1 -1 0 -1 -1 0
          -1 -1 0 -1 -1 0
          -1 -1 0 -1 -1 0
          -1 -1 0 -1 -1 0
          -1 -1 0 -1 -1 0
          -1 -1 0 -1 -1 0
          -1 -1 0 -1 -1 0
          -1 -1 0 -1 -1 0
          -1 -1 0 -1 -1 0
          -1 -1 0 -1 -1 0
          -1 -1 0 -1 -1 0
          -1 -1 0 -1 -1 0
          -1 -1 0 -1 -1 0
          -1 -1 0 -1 -1 0
          -1 -1 0 -1 -1 0
          -1 -1 0 -1 -1 0
          -1 -1 0 -1 -1 0
          -1 -1 0 -1 -1 0
          -1 -1 0 -1 -1 0
          -1 -1 0 -1 -1 0
          -1 -1 0 -1 -1 0
          -1 -1 0 -1 -1 0
          -1 -1 0 -1 -1 0
          -1 -1 0 -1 -1 0
          <InformationKey name="L2_NORM_RANGE" location="vtkDataArray" length="2">
            <Value index="0">
              1.4142135624
            </Value>
            <Value index="1">
              1.4142135624
            </Value>
          </InformationKey>
        </DataArray>
      </PointData>
      <CellData>
        <DataArray type="UInt8" Name="vtkGhostType" format="ascii" RangeMin="0" RangeMax="0">
          0 0 0 0 0 0
          0 0 0 0 0 0
          0 0 0 0 0 0
          0 0 0 0 0 0
          0 0 0 0 0 0
          0 0 0 0 0 0
          0 0 0 0 0 0
          0 0 0 0 0 0
          0 0 0 0 0 0
          0 0 0 0 0 0
          0 0 0 0 0
        </DataArray>
      </CellData>
      <Points>
        <DataArray type="Float32" Name="Points" NumberOfComponents="3" format="ascii" RangeMin="0.5430595415073552" RangeMax="0.6356886233499035">
          0.6000000238418579 0.20999999344348907 0 0.6000000238418579 0.20600000023841858 0
          0.6000000238418579 0.20200000703334808 0 0.6000000238418579 0.1979999989271164 0
          0.6000000238418579 0.1940000057220459 0 0.6000000238418579 0.1899999976158142 0
          0.5929797887802124 0.20999999344348907 0 0.5929797887802124 0.20600000023841858 0
          0.5929797887802124 0.20200000703334808 0 0.5929797887802124 0.1979999989271164 0
          0.5929797887802124 0.1940000057220459 0 0.5929797887802124 0.1899999976158142 0
          0.5859596133232117 0.20999999344348907 0 0.5859596133232117 0.20600000023841858 0
          0.5859596133232117 0.20200000703334808 0 0.5859596133232117 0.1979999989271164 0
          0.5859596133232117 0.1940000057220459 0 0.5859596133232117 0.1899999976158142 0
          0.5789393782615662 0.20999999344348907 0 0.5789393782615662 0.20600000023841858 0
          0.5789393782615662 0.20200000703334808 0 0.5789393782615662 0.1979999989271164 0
          0.5789393782615662 0.1940000057220459 0 0.5789393782615662 0.1899999976158142 0
          0.5719192028045654 0.20999999344348907 0 0.5719192028045654 0.20600000023841858 0
          0.5719192028045654 0.20200000703334808 0 0.5719192028045654 0.1979999989271164 0
          0.5719192028045654 0.1940000057220459 0 0.5719192028045654 0.1899999976158142 0
          0.5648990273475647 0.20999999344348907 0 0.5648990273475647 0.20600000023841858 0
          0.5648990273475647 0.20200000703334808 0 0.5648990273475647 0.1979999989271164 0
          0.5648990273475647 0.1940000057220459 0 0.5648990273475647 0.1899999976158142 0
          0.5578787922859192 0.20999999344348907 0 0.5578787922859192 0.20600000023841858 0
          0.5578787922859192 0.20200000703334808 0 0.5578787922859192 0.1979999989271164 0
          0.5578787922859192 0.1940000057220459 0 0.5578787922859192 0.1899999976158142 0
          0.5508586168289185 0.20999999344348907 0 0.5508586168289185 0.20600000023841858 0
          0.5508586168289185 0.20200000703334808 0 0.5508586168289185 0.1979999989271164 0
          0.5508586168289185 0.1940000057220459 0 0.5508586168289185 0.1899999976158142 0
          0.543838381767273 0.20999999344348907 0 0.543838381767273 0.20600000023841858 0
          0.543838381767273 0.20200000703334808 0 0.543838381767273 0.1979999989271164 0
          0.543838381767273 0.1940000057220459 0 0.543838381767273 0.1899999976158142 0
          0.5368182063102722 0.20999999344348907 0 0.5368182063102722 0.20600000023841858 0
          0.5368182063102722 0.20200000703334808 0 0.5368182063102722 0.1979999989271164 0
          0.5368182063102722 0.1940000057220459 0 0.5368182063102722 0.1899999976158142 0
          0.5297979712486267 0.20999999344348907 0 0.5297979712486267 0.20600000023841858 0
          0.5297979712486267 0.20200000703334808 0 0.5297979712486267 0.1979999989271164 0
          0.5297979712486267 0.1940000057220459 0 0.5297979712486267 0.1899999976158142 0
          0.522777795791626 0.20999999344348907 0 0.522777795791626 0.20600000023841858 0
          0.522777795791626 0.20200000703334808 0 0.522777795791626 0.1979999989271164 0
          0.522777795791626 0.1940000057220459 0 0.522777795791626 0.1899999976158142 0
          0.5157576203346252 0.20999999344348907 0 0.5157576203346252 0.20600000023841858 0
          0.5157576203346252 0.20200000703334808 0 0.5157576203346252 0.1979999989271164 0
          0.5157576203346252 0.1940000057220459 0 0.5157576203346252 0.1899999976158142 0
          0.508737325668335 0.20600000023841858 0 0.508737325668335 0.20999999344348907 0
          0.508737325668335 0.20200000703334808 0 0.508737325668335 0.1979999989271164 0
          0.508737325668335 0.1940000057220459 0 0.508737325668335 0.1899999976158142 0
          <InformationKey name="L2_NORM_RANGE" location="vtkDataArray" length="2">
            <Value index="0">
              0.54305954151
            </Value>
            <Value index="1">
              0.63568862335
            </Value>
          </InformationKey>
        </DataArray>
      </Points>
      <Cells>
        <DataArray type="Int64" Name="connectivity" format="ascii" RangeMin="0" RangeMax="83">
          78 73 72 79 80 74
          73 78 81 75 74 80
          82 76 75 81 83 77
          76 82 73 67 66 72
          74 68 67 73 75 69
          68 74 76 70 69 75
          77 71 70 76 67 61
          60 66 68 62 61 67
          69 63 62 68 70 64
          63 69 71 65 64 70
          61 55 54 60 62 56
          55 61 63 57 56 62
          64 58 57 63 65 59
          58 64 55 49 48 54
          56 50 49 55 57 51
          50 56 58 52 51 57
          59 53 52 58 49 43
          42 48 50 44 43 49
          51 45 44 50 52 46
          45 51 53 47 46 52
          43 37 36 42 44 38
          37 43 45 39 38 44
          46 40 39 45 47 41
          40 46 37 31 30 36
          38 32 31 37 39 33
          32 38 40 34 33 39
          41 35 34 40 31 25
          24 30 32 26 25 31
          33 27 26 32 34 28
          27 33 35 29 28 34
          25 19 18 24 26 20
          19 25 27 21 20 26
          28 22 21 27 29 23
          22 28 19 13 12 18
          20 14 13 19 21 15
          14 20 22 16 15 21
          23 17 16 22 13 7
          6 12 14 8 7 13
          15 9 8 14 16 10
          9 15 17 11 10 16
          7 1 0 6 8 2
          1 7 9 3 2 8
          10 4 3 9 11 5
          4 10
        </DataArray>
        <DataArray type="Int64" Name="offsets" format="ascii" RangeMin="4" RangeMax="260">
          4 8 12 16 20 24
          28 32 36 40 44 48
          52 56 60 64 68 72
          76 80 84 88 92 96
          100 104 108 112 116 120
          124 128 132 136 140 144
          148 152 156 160 164 168
          172 176 180 184 188 192
          196 200 204 208 212 216
          220 224 228 232 236 240
          244 248 252 256 260
        </DataArray>
        <DataArray type="UInt8" Name="types" format="ascii" RangeMin="9" RangeMax="9">
          9 9 9 9 9 9
          9 9 9 9 9 9
          9 9 9 9 9 9
          9 9 9 9 9 9
          9 9 9 9 9 9
          9 9 9 9 9 9
          9 9 9 9 9 9
          9 9 9 9 9 9
          9 9 9 9 9 9
          9 9 9 9 9 9
          9 9 9 9 9
        </DataArray>
      </Cells>
    </Piece>
  </UnstructuredGrid>
</VTKFile>
