<?xml version="1.0"?>
<VTKFile type="UnstructuredGrid" version="0.1" byte_order="LittleEndian" header_type="UInt32" compressor="vtkZLibDataCompressor">
  <UnstructuredGrid>
    <Piece NumberOfPoints="84" NumberOfCells="65">
      <PointData>
        <DataArray type="Float64" Name="sld_BC" NumberOfComponents="3" format="ascii" RangeMin="0" RangeMax="0">
          0 0 0 0 0 0
          0 0 0 0 0 0
          0 0 0 0 0 0
          0 0 0 0 0 0
          0 0 0 0 0 0
          0 0 0 0 0 0
          0 0 0 0 0 0
          0 0 0 0 0 0
          0 0 0 0 0 0
          0 0 0 0 0 0
          0 0 0 0 0 0
          0 0 0 0 0 0
          0 0 0 0 0 0
          0 0 0 0 0 0
          0 0 0 0 0 0
          0 0 0 0 0 0
          0 0 0 0 0 0
          0 0 0 0 0 0
          0 0 0 0 0 0
          0 0 0 0 0 0
          0 0 0 0 0 0
          0 0 0 0 0 0
          0 0 0 0 0 0
          0 0 0 0 0 0
          0 0 0 0 0 0
          0 0 0 0 0 0
          0 0 0 0 0 0
          0 0 0 0 0 0
          0 0 0 0 0 0
          0 0 0 0 0 0
          0 0 0 0 0 0
          0 0 0 0 0 0
          0 0 0 0 0 0
          0 0 0 0 0 0
          0 0 0 0 0 0
          0 0 0 0 0 0
          0 0 0 0 0 0
          0 0 0 0 0 0
          0 0 0 0 0 0
          0 0 0 0 0 0
          0 0 0 0 0 0
          0 0 0 0 0 0
          <InformationKey name="L2_NORM_RANGE" location="vtkDataArray" length="2">
            <Value index="0">
              0
            </Value>
            <Value index="1">
              0
            </Value>
          </InformationKey>
        </DataArray>
        <DataArray type="Float64" Name="sld_FIXNO" NumberOfComponents="3" format="ascii" RangeMin="1.4142135623730951" RangeMax="1.4142135623730951">
          -1 -1 0 -1 -1 0
          -1 -1 0 -1 -1 0
          -1 -1 0 -1 -1 0
          -1 -1 0 -1 -1 0
          -1 -1 0 -1 -1 0
          -1 -1 0 -1 -1 0
          -1 -1 0 -1 -1 0
          -1 -1 0 -1 -1 0
          -1 -1 0 -1 -1 0
          -1 -1 0 -1 -1 0
          -1 -1 0 -1 -1 0
          -1 -1 0 -1 -1 0
          -1 -1 0 -1 -1 0
          -1 -1 0 -1 -1 0
          -1 -1 0 -1 -1 0
          -1 -1 0 -1 -1 0
          -1 -1 0 -1 -1 0
          -1 -1 0 -1 -1 0
          -1 -1 0 -1 -1 0
          -1 -1 0 -1 -1 0
          -1 -1 0 -1 -1 0
          -1 -1 0 -1 -1 0
          -1 -1 0 -1 -1 0
          -1 -1 0 -1 -1 0
          -1 -1 0 -1 -1 0
          -1 -1 0 -1 -1 0
          -1 -1 0 -1 -1 0
          -1 -1 0 -1 -1 0
          -1 -1 0 -1 -1 0
          -1 -1 0 -1 -1 0
          -1 -1 0 -1 -1 0
          -1 -1 0 -1 -1 0
          -1 -1 0 -1 -1 0
          -1 -1 0 -1 -1 0
          -1 -1 0 -1 -1 0
          -1 -1 0 -1 -1 0
          -1 -1 0 -1 -1 0
          -1 -1 0 -1 -1 0
          -1 -1 0 -1 -1 0
          -1 -1 0 -1 -1 0
          -1 -1 0 -1 -1 0
          -1 -1 0 -1 -1 0
          <InformationKey name="L2_NORM_RANGE" location="vtkDataArray" length="2">
            <Value index="0">
              1.4142135624
            </Value>
            <Value index="1">
              1.4142135624
            </Value>
          </InformationKey>
        </DataArray>
        <DataArray type="Float64" Name="Disp" NumberOfComponents="3" format="ascii" RangeMin="0.00010823112454486502" RangeMax="0.00013632885499523527">
          0.00012125135407460523 0.000016905435413258124 0 0.00012355244854970183 0.000017025869784821743 0
          0.00012613165385781972 0.000017175902021298987 0 0.00012890583516277443 0.00001734735838238324 0
          0.00013188588953379028 0.000017513576012272466 0 0.00013518014405024248 0.000017660276296467642 0
          0.000120555104416115 0.00001222746718233683 0 0.00012301380467245808 0.00001229725619478461 0
          0.00012560050402596413 0.000012333842006976076 0 0.00012836381872996177 0.000012371926293104288 0
          0.0001313179928223063 0.000012419788469763774 0 0.0001344360765580091 0.000012510318272461927 0
          0.00011976612833432574 0.000007058811098687759 0 0.00012233992676766045 0.000007216717897367251 0
          0.00012496493666794216 0.000007352767901237531 0 0.00012770742540922522 0.000007487227935282522 0
          0.0001305837084898117 0.000007646528934739184 0 0.0001335600599923567 0.000007846013437086017 0
          0.00011886709477998064 0.0000018826113387402981 0 0.00012143930243609963 0.0000021209907425936017 0
          0.00012406096306691617 0.0000023697656789283235 0 0.00012676329721165248 0.0000026333349589975742 0
          0.00012956764760384978 0.0000029205822809029555 0 0.00013248561577243047 0.0000032307167513348937 0
          0.00011781798800357247 -0.0000032066165614943574 0 0.00012033690348651379 -0.0000028890363239483224 0
          0.00012290223496242174 -0.0000025442026336881218 0 0.00012554042877655213 -0.000002170160929366727 0
          0.0001282771736523282 -0.0000017665398483011902 0 0.0001311385447667327 -0.000001335107548279249 0
          0.0001166163315963056 -0.000008164526554916748 0 0.00011904597399896145 -0.000007772626715817053 0
          0.00012151911171812076 -0.0000073405683570374956 0 0.00012406428437572998 -0.0000068675400335202 0
          0.00012671028931729713 -0.00000635378178454886 0 0.00012948676678114043 -0.000005800800259932484 0
          0.00011527127493487833 -0.000012934403571912859 0 0.00011757772034778098 -0.000012474050680120238 0
          0.00011992571935775719 -0.000011960815735364515 0 0.0001223455130690367 -0.000011394004153402058 0
          0.00012486792491913452 -0.000010773747357125293 0 0.0001275243242244544 -0.000010100886000850785 0
          0.00011379150795085504 -0.000017456382500720496 0 0.00011594069968039413 -0.000016930757883080833 0
          0.00011812933428316058 -0.000016339392533136414 0 0.00012038933109041786 -0.000015681822467227548 0
          0.00012275231587313332 -0.00001495768025591317 0 0.00012525086716058892 -0.00001416673389552018 0
          0.00011218449793952166 -0.000021660697877537625 0 0.00011413984700694327 -0.00002107173433416386 0
          0.00011613488166437251 -0.0000204043858195233 0 0.00011820072071307424 -0.000019658826220690382 0
          0.00012036814293759942 -0.000018834415510438363 0 0.0001226691601939931 -0.00001792944429050789 0
          0.00011045359692147324 -0.000025470974144206535 0 0.00011217888397621252 -0.000024820987729158558 0
          0.00011394660884144003 -0.000024079684212335827 0 0.00011578535530809987 -0.000023248488015487645 0
          0.00011772256852446531 -0.000022326550945714258 0 0.0001197860296318163 -0.000021310649836920342 0
          0.00010859719822410373 -0.000028822638132727296 0 0.00011005836237312105 -0.00002810989453944165 0
          0.00011156854665314431 -0.000027295843576259033 0 0.00011314987216864018 -0.000026381729762354966 0
          0.00011482503155302518 -0.000025365993228272576 0 0.00011661652797889626 -0.000024244715665140492 0
          0.00010660740400277441 -0.00003164703362657965 0 0.00010778012701248545 -0.0000308751816087228 0
          0.00010900684935949518 -0.000029993062372723474 0 0.00011030439818897613 -0.00002900149797557772 0
          0.00011169007236473956 -0.000027898893659532703 0 0.00011318179988130914 -0.000026680776899756213 0
          0.00010448171838936794 -0.00003390840049943262 0 0.00010534650698882773 -0.000033077520326175235 0
          0.00010626882600339229 -0.00003212936871733487 0 0.00010726178473867965 -0.000031065135473752545 0
          0.00010833709495648751 -0.000029883381539798055 0 0.00010950575443032725 -0.00002857955800135311 0
          0.00010275717364956733 -0.000034683012457620825 0 0.00010221809329611147 -0.00003557299148446101 0
          0.00010336065254336647 -0.000033670979287368754 0 0.00010403489204294868 -0.00003253875419493547 0
          0.00010478527164594754 -0.00003128442060680338 0 0.00010561685996385319 -0.000029903103617302152 0
          <InformationKey name="L2_NORM_RANGE" location="vtkDataArray" length="2">
            <Value index="0">
              0.00010823112454
            </Value>
            <Value index="1">
              0.000136328855
            </Value>
          </InformationKey>
        </DataArray>
        <DataArray type="Float64" Name="Sld_traction" NumberOfComponents="3" format="ascii" RangeMin="0" RangeMax="179.09571028165118">
          103.07502037228225 94.49846531367818 0 174.2752000367864 32.58491201094104 0
          149.0615588388811 10.577215675930796 0 149.53948785413888 -5.388206670699242 0
          176.5655790809731 -29.99782867291861 0 104.27939345310747 -91.59476938847791 0
          44.05072922343985 142.92959528158121 0 0 0 0
          0 0 0 0 0 0
          0 0 0 41.12273557517405 -143.57619290110623 0
          48.9462121604517 124.12653006870518 0 0 0 0
          0 0 0 0 0 0
          0 0 0 43.46137797437209 -129.21291811074533 0
          44.966846822607664 100.02153775828894 0 0 0 0
          0 0 0 0 0 0
          0 0 0 37.97812604033401 -112.15216484001944 0
          43.52625950125102 84.12540236326915 0 0 0 0
          0 0 0 0 0 0
          0 0 0 35.61869697766481 -104.65395186440843 0
          43.26943288439572 70.58384905548266 0 0 0 0
          0 0 0 0 0 0
          0 0 0 34.3414865631087 -101.29681932358064 0
          43.149179312196516 58.41793463957303 0 0 0 0
          0 0 0 0 0 0
          0 0 0 33.52823486468665 -99.83388640294396 0
          42.72270263336618 46.49460198339307 0 0 0 0
          0 0 0 0 0 0
          0 0 0 32.90021411235702 -99.61164028714575 0
          41.60845684168681 34.66547209305333 0 0 0 0
          0 0 0 0 0 0
          0 0 0 32.581877295442695 -100.6401559501287 0
          39.96765034204494 23.759606499463107 0 0 0 0
          0 0 0 0 0 0
          0 0 0 32.50400981273322 -101.28609781377156 0
          37.68446648854284 14.084361989495124 0 0 0 0
          0 0 0 0 0 0
          0 0 0 32.28539922458414 -101.0052925153433 0
          34.826969532840295 7.517407683602274 0 0 0 0
          0 0 0 0 0 0
          0 0 0 31.749403684719894 -100.67260754839732 0
          31.997312245644377 2.1010281137623217 0 0 0 0
          0 0 0 0 0 0
          0 0 0 31.144093645948242 -100.55312742514256 0
          0 0 0 28.95805516241501 -1.8670312465107939 0
          0 0 0 0 0 0
          0 0 0 30.359144612071027 -99.64616211625639 0
          <InformationKey name="L2_NORM_RANGE" location="vtkDataArray" length="2">
            <Value index="0">
              0
            </Value>
            <Value index="1">
              179.09571028
            </Value>
          </InformationKey>
        </DataArray>
        <DataArray type="Float64" Name="Fld_traction" NumberOfComponents="3" format="ascii" RangeMin="0" RangeMax="165.74973402669434">
          105.50184335264971 76.26239380356205 0 165.74963760193603 0.17878687533800125 0
          157.7304584765165 0.45864563112629547 0 157.60442712065245 -0.4138570941976977 0
          165.51348506977482 -0.15014448464753832 0 107.21574743825344 -71.99735868993037 0
          48.57863256271031 127.11097414567274 0 0 0 0
          0 0 0 0 0 0
          0 0 0 48.49948755945707 -124.58822162715175 0
          46.93001978830048 113.69684829406502 0 0 0 0
          0 0 0 0 0 0
          0 0 0 46.165571199440706 -112.93627775098689 0
          46.00800329265726 102.6710618903803 0 0 0 0
          0 0 0 0 0 0
          0 0 0 45.37202540148124 -103.37328007951768 0
          44.83164279091713 93.75301673661451 0 0 0 0
          0 0 0 0 0 0
          0 0 0 44.78184048834338 -94.58677413702262 0
          44.39960057232199 85.3383914478092 0 0 0 0
          0 0 0 0 0 0
          0 0 0 44.135349653067564 -86.8923719274307 0
          44.10875723802557 78.04066939480175 0 0 0 0
          0 0 0 0 0 0
          0 0 0 43.63524591896654 -80.29859441701988 0
          43.41832343955818 71.03396954824566 0 0 0 0
          0 0 0 0 0 0
          0 0 0 43.190949561815785 -74.56182968316432 0
          42.35735530030527 64.19415734529761 0 0 0 0
          0 0 0 0 0 0
          0 0 0 42.75243139176678 -70.04265591250933 0
          40.98698077128647 58.265074837293014 0 0 0 0
          0 0 0 0 0 0
          0 0 0 41.94124823952677 -65.37314863986502 0
          39.563749295848076 52.49157538212965 0 0 0 0
          0 0 0 0 0 0
          0 0 0 40.78698737195717 -60.565243404265516 0
          37.283901624984495 49.13949428978389 0 0 0 0
          0 0 0 0 0 0
          0 0 0 39.403893147781694 -56.45278113339488 0
          34.77960933103644 46.42185641095079 0 0 0 0
          0 0 0 0 0 0
          0 0 0 37.56867092628707 -53.71437218917326 0
          0 0 0 32.5233663924852 44.49819614681898 0
          0 0 0 0 0 0
          0 0 0 35.73342256277051 -50.97592423738847 0
          <InformationKey name="L2_NORM_RANGE" location="vtkDataArray" length="2">
            <Value index="0">
              0
            </Value>
            <Value index="1">
              165.74973403
            </Value>
          </InformationKey>
        </DataArray>
        <DataArray type="Float64" Name="Velocity" NumberOfComponents="3" format="ascii" RangeMin="0.0006475590726407155" RangeMax="0.0008738568961083198">
          -0.0008699529622342313 -0.000024167263970018005 0 -0.0008052330686241405 -0.00002785385643942214 0
          -0.0007537788087990148 -0.0000330568115479288 0 -0.0007126201534849476 -0.00003900108465739209 0
          -0.0006817764227561376 -0.00004443867703082978 0 -0.0006646156956156735 -0.00004878583720366027 0
          -0.0008472806556558913 -0.0001122893188198837 0 -0.0007884462897628421 -0.00011189462464505944 0
          -0.0007376782325866113 -0.00011000064827175894 0 -0.0006965553314421278 -0.00010784533314749984 0
          -0.0006649360450506668 -0.00010588776076119767 0 -0.0006410000634966789 -0.00010563246310497254 0
          -0.0008274431622832586 -0.00018412791567140677 0 -0.000773289906581695 -0.00018459524999600867 0
          -0.0007251443036170079 -0.00018382903701237482 0 -0.0006844143727633509 -0.00018235070219113126 0
          -0.0006506963032985253 -0.00018118946895494655 0 -0.0006217096408641857 -0.0001811349635377685 0
          -0.0008083912330192717 -0.00025503052448282995 0 -0.0007558194321461483 -0.0002565961342166769 0
          -0.0007097739519405103 -0.00025756205494395967 0 -0.0006699526071073272 -0.00025793114040375403 0
          -0.0006357394492189222 -0.0002580289484232734 0 -0.0006061367263280925 -0.00025800645897285936 0
          -0.0007872832407841519 -0.0003253978924837337 0 -0.0007361795934706372 -0.00032836770266377204 0
          -0.0006918873336934726 -0.00033065456140120183 0 -0.0006536617242488981 -0.000332229235902118 0
          -0.0006207787783309641 -0.0003331054488413728 0 -0.0005924897261639292 -0.00033331414709312655 0
          -0.0007630923268923699 -0.00039310011234974286 0 -0.0007142491850680053 -0.0003975461991710401 0
          -0.0006723134670660589 -0.00040098920752067657 0 -0.000636487994608562 -0.0004034180464580091 0
          -0.0006060202555453085 -0.0004048247172061648 0 -0.0005801784297804337 -0.0004051932255349854 0
          -0.0007356121758090323 -0.00045609952466039934 0 -0.0006900217895995219 -0.00046194442267590745 0
          -0.0006513354389099959 -0.00046642014425481246 0 -0.0006187730675619517 -0.0004695522646194934 0
          -0.0005916216986557995 -0.00047133711702020364 0 -0.0005691906166179115 -0.00047173731778878076 0
          -0.0007048362897847352 -0.000512256846797283 0 -0.0006635536231028535 -0.0005194823939966456 0
          -0.0006290351020827754 -0.0005249561602806443 0 -0.0006006010603126066 -0.0005287432805345486 0
          -0.0005776160267909839 -0.0005308597803392185 0 -0.0005594937372268502 -0.0005312765081697491 0
          -0.0006709272671696106 -0.0005598950589569306 0 -0.0006348770071830673 -0.0005684541522820842 0
          -0.0006054025275149272 -0.0005749271780805512 0 -0.0005819418507130216 -0.0005793723628192505 0
          -0.000563937758388209 -0.0005818056974593736 0 -0.0005508910988952275 -0.000582214907919645 0
          -0.0006340840368724648 -0.0005975830727123833 0 -0.0006039925354935469 -0.0006074887199349042 0
          -0.0005803398681075121 -0.0006150258106757989 0 -0.0005626272731878005 -0.0006202450995866757 0
          -0.0005503610660164797 -0.0006231689283371712 0 -0.0005430355529743238 -0.0006238016206961345 0
          -0.00059434811429906 -0.000624123033906363 0 -0.0005708727575444365 -0.0006353788396713227 0
          -0.0005536992108093725 -0.0006440227882535189 0 -0.0005423831587142293 -0.000650125405403987 0
          -0.0005364977470412049 -0.0006537167260616994 0 -0.0005355948516058153 -0.0006547786751476785 0
          -0.0005517985086567769 -0.0006383743336142944 0 -0.0005355503683141596 -0.0006509130244537308 0
          -0.0005253930193920716 -0.000660643399498491 0 -0.0005209810863905347 -0.0006676711265151422 0
          -0.0005220125205598314 -0.0006720279738249113 0 -0.0005281850002981509 -0.0006736578383815029 0
          -0.0005066501177858149 -0.0006391735425999424 0 -0.0004981486865145686 -0.0006529032661186603 0
          -0.0004953956521314561 -0.0006636861876111301 0 -0.0004982235809646053 -0.0006716816413941957 0
          -0.0005065367416049408 -0.0006769285598112764 0 -0.0005202522329376125 -0.0006793435895550669 0
          -0.0004588461930361532 -0.0006403859660157694 0 -0.0004592747417975205 -0.0006255683635397146 0
          -0.0004636608346461845 -0.000652235571376947 0 -0.00047385503699544796 -0.0006612921872702169 0
          -0.0004895792775871087 -0.0006675944499115844 0 -0.0005110271386885691 -0.0006710585502230389 0
          <InformationKey name="L2_NORM_RANGE" location="vtkDataArray" length="2">
            <Value index="0">
              0.00064755907264
            </Value>
            <Value index="1">
              0.00087385689611
            </Value>
          </InformationKey>
        </DataArray>
      </PointData>
      <CellData>
        <DataArray type="UInt8" Name="vtkGhostType" format="ascii" RangeMin="0" RangeMax="0">
          0 0 0 0 0 0
          0 0 0 0 0 0
          0 0 0 0 0 0
          0 0 0 0 0 0
          0 0 0 0 0 0
          0 0 0 0 0 0
          0 0 0 0 0 0
          0 0 0 0 0 0
          0 0 0 0 0 0
          0 0 0 0 0 0
          0 0 0 0 0
        </DataArray>
        <DataArray type="Float64" Name="Gauss Stress" NumberOfComponents="6" format="ascii" RangeMin="193.48297556736" RangeMax="920.1757476829596">
          606.6093957974375 45.912560193381985 0 28.764535462068622 0 0
          684.4509127976607 47.93757405523301 0 16.773938456584023 0 0
          761.5573497225774 50.10707327905143 0 3.250481274635857 0 0
          839.1201208620611 51.880097191998445 0 -11.64989009542053 0 0
          918.2403964530473 52.72614944870138 0 -27.891470200716974 0 0
          573.5295978276312 48.51104433593082 0 31.688058847064962 0 0
          647.4440054998656 50.37312611460727 0 20.27547512007039 0 0
          721.1437379862746 52.50978872915634 0 6.507025324209451 0 0
          795.3546176947314 54.35340520930232 0 -9.540414436588854 0 0
          871.2527591881628 55.44014887033169 0 -27.858260955823823 0 0
          540.9685115110846 51.4659201494058 0 34.52611878271594 0 0
          610.2406233386141 53.55859728219555 0 23.57167358339817 0 0
          679.0322537270571 55.75989732904803 0 9.53072873801879 0 0
          748.3208876394986 57.633292742940796 0 -7.6776783004395135 0 0
          818.9263175498346 58.63386128167316 0 -28.1014775103825 0 0
          509.39163526743374 55.860078755008644 0 37.424302643371355 0 0
          572.6717820272338 57.90539698667226 0 26.896641008756987 0 0
          635.1903708824669 59.997426801338065 0 12.482970375783985 0 0
          698.0733561069175 61.828563781569486 0 -5.812426793201311 0 0
          762.2793054553664 63.05101405693191 0 -28.048219862124768 0 0
          479.59037366691774 61.837506108355385 0 39.26875248122751 0 0
          534.8696761681755 63.32432391948535 0 29.343146784874598 0 0
          589.9204056596483 64.9898922610293 0 14.810675518122432 0 0
          645.2240181064196 66.51172099761509 0 -4.198640789890759 0 0
          701.5349132181585 67.67437915777812 0 -27.843607043241292 0 0
          450.1537569038512 68.17668652190375 0 40.758384789415416 0 0
          496.8913031848336 69.29711862121542 0 30.864374033348696 0 0
          543.6324189779527 70.35761717608679 0 16.15376543762422 0 0
          590.549246137043 71.32303451563948 0 -3.3205078022107517 0 0
          637.7102498413025 72.04366258597518 0 -27.757002425442845 0 0
          420.2526732199751 75.0848606882184 0 41.36855112776753 0 0
          458.2390739274644 75.68406905435415 0 31.211058965843687 0 0
          496.4892608381173 76.21578826520211 0 16.261991826232343 0 0
          534.7036794614708 76.67204538688672 0 -3.506110084502268 0 0
          572.6636868932117 77.08230973161655 0 -28.24270895714992 0 0
          388.96005844253057 82.12271028812222 0 41.377164273538384 0 0
          418.75774429242404 82.59201837274404 0 30.74275841191497 0 0
          448.6556622061796 82.81238154660778 0 15.533434012240821 0 0
          478.3267366126759 82.95647131416773 0 -4.303000567919862 0 0
          507.4626895141959 83.22976185571316 0 -28.880913474263476 0 0
          356.2215004829088 90.07319356455532 0 41.27189402386508 0 0
          378.1430078245073 90.63017024987812 0 29.907065953464215 0 0
          400.1843271742506 90.68876166835148 0 14.228044374870999 0 0
          421.89251786763873 90.49563780717315 0 -5.671565761863212 0 0
          442.69346053748666 90.37717571539196 0 -29.85631570112555 0 0
          321.79460133519393 99.12846694802455 0 41.52836286670122 0 0
          335.8096252736891 100.61409399705686 0 29.299975479258524 0 0
          350.56507789563136 101.2671290834427 0 12.354869065715206 0 0
          365.42500869191383 100.05953066809285 0 -8.25193493343225 0 0
          379.3205225894797 98.74036135495304 0 -31.598804773547705 0 0
          286.5743527209779 108.92925356050452 0 44.23288080113148 0 0
          290.50290612572894 113.92057919594936 0 31.061367811127237 0 0
          296.52435926022724 115.16455896694939 0 10.067582194757055 0 0
          308.37669563318394 112.93643383264434 0 -13.818320700001168 0 0
          320.4805933898803 107.84511242638432 0 -35.663042959460796 0 0
          256.7330138846703 124.15574184208518 0 50.501365933724706 0 0
          237.7527815878565 122.95934422791076 0 32.6155862951844 0 0
          234.09852956110143 120.52720303429166 0 7.26168403339585 0 0
          246.59828737694974 121.63020098885059 0 -20.42399582037865 0 0
          272.8525460244238 121.85190883374813 0 -44.7602922745393 0 0
          217.2583631116671 105.57857338314854 0 37.52962871764127 0 0
          183.00275205001861 83.50801998648595 0 17.989744691954577 0 0
          178.1119273201616 75.4926770723954 0 3.5579332680820954 0 0
          184.9593992267463 79.13287222873737 0 -12.270132797473385 0 0
          222.489760822602 99.3427754021719 0 -35.92749568001348 0 0
          <InformationKey name="L2_NORM_RANGE" location="vtkDataArray" length="2">
            <Value index="0">
              193.48297557
            </Value>
            <Value index="1">
              920.17574768
            </Value>
          </InformationKey>
        </DataArray>
        <DataArray type="Float64" Name="Gauss Strain" NumberOfComponents="6" format="ascii" RangeMin="0.00008124958552604079" RangeMax="0.0006295182634241485">
          0.0003454718744193424 -0.0002151516407493392 0 0.00005752169743158062 0 0
          0.0003913310774514012 -0.00024508889621210894 0 0.00003354310454335812 0 0
          0.00043668702223126354 -0.0002746476434554168 0 0.000006500057030271715 0 0
          0.0004824699351987649 -0.0003046296902267098 0 -0.000023295466594790613 0 0
          0.0005295513892813464 -0.0003357946721165017 0 -0.000055771930869593334 0 0
          0.00032459965466243024 -0.00020035345162774942 0 0.0000633683600651852 0 0
          0.00036817173022661576 -0.0002288157028064175 0 0.000040545430698196304 0 0
          0.00041150101095267794 -0.0002570293743951457 0 0.00001301219019982743 0 0
          0.00045524918581144047 -0.00028562600182910347 0 -0.000019077417550204686 0 0
          0.0005003060610606486 -0.00031535525303835743 0 -0.00005570600738915084 0 0
          0.0003038950349120856 -0.00018554944365140047 0 0.00006904417481120804 0 0
          0.0003445936888065021 -0.00021201433406758952 0 0.0000471372227691789 0 0
          0.00038495708987625055 -0.0002382235854544168 0 0.00001905880852014485 0 0
          0.0004257453863969196 -0.000264830799530158 0 -0.000015352708476999247 0 0
          0.00046766714925321196 -0.0002924917984322706 0 -0.00005619289297495286 0 0
          0.0002832043173850718 -0.00017027587713494552 0 0.0000748402592900058 0 0
          0.00032033111838551676 -0.00019437027268728865 0 0.00005378662830356929 0 0
          0.00035697954816571453 -0.00021813336097495362 0 0.000024962617523302766 0 0
          0.00039394723739423487 -0.00024220080791365062 0 -0.000011622917546409485 0 0
          0.00043194715609352896 -0.0002671656761331076 0 -0.000056086984477126906 0 0
          0.000262944619692812 -0.00015476294680522026 0 0.00007852909848645702 0 0
          0.00029549887714869216 -0.00017599000911447393 0 0.00005867938946600646 0 0
          0.0003278423030270011 -0.0001970194158708027 0 0.000029617606033505397 0 0
          0.0003603919890368262 -0.00021823790473440852 0 -0.000008395931500043876 0 0
          0.00039368560639947703 -0.0002400774018065377 0 -0.00005567846692349431 0 0
          0.00024275807961808563 -0.0001391793542821207 0 0.00008150840472943467 0 0
          0.00027033821521131596 -0.00015720752210579558 0 0.00006172186044191447 0 0
          0.0002979427772043658 -0.00017527389182439562 0 0.000032303682037352165 0 0
          0.0003256885109320651 -0.00019346896651559198 0 -0.000006640001291811905 0 0
          0.0003536755855065993 -0.0002119107204495707 0 -0.00005550597049202535 0 0
          0.00022206467656846196 -0.00012306892444508 0 0.00008272897728477933 0 0
          0.00024460654824032263 -0.00013790759852180812 0 0.00006241553882023571 0 0
          0.00026733244404821 -0.00015289289499670347 0 0.00003252035884084085 0 0
          0.00029006538498435597 -0.0001679102633450058 0 -0.000007011248539184197 0 0
          0.00031266179755967677 -0.00018285521871211352 0 -0.00005647795006079405 0 0
          0.0002004839439809225 -0.00010632449578323877 0 0.00008274659048258596 0 0
          0.00021816793405074478 -0.00011796409498174287 0 0.00006147942226925179 0 0
          0.0002360107973342629 -0.0001297936190486071 0 0.0000310636472575695 0 0
          0.00025374684941516235 -0.0001415790703989117 0 -0.000008604944296114424 0 0
          0.00027110844133665385 -0.00015307442398074245 0 -0.00005775490443794095 0 0
          0.00017767003412197388 -0.00008845453319955567 0 0.00008253646645572224 0 0
          0.0001905961370598508 -0.00009688977158522905 0 0.00005980857987072763 0 0
          0.00020379284406894793 -0.00010567237503628091 0 0.000028453358808369545 0 0
          0.0002168893914281516 -0.00011447357938201841 0 -0.000011341900200617887 0 0
          0.0002294104000021141 -0.00012286839059483246 0 -0.000059706194457925694 0 0
          0.00015340047932861642 -0.00006924693849380548 0 0.00008304976300760557 0 0
          0.0001612137794599344 -0.00007396126619682586 0 0.00005859487359846455 0 0
          0.00016980374659594785 -0.000079471731408709 0 0.000024707554192061158 0 0
          0.00017919937825119908 -0.00008614145883409365 0 -0.000016502279154468925 0 0
          0.00018805978560278158 -0.00009249362126359517 0 -0.00006319151998193475 0 0
          0.00012835533156423107 -0.000049275749718941095 0 0.00008845876492362241 0 0
          0.00012871718767901164 -0.00004785092276016201 0 0.00006211771353542359 0 0
          0.00013183271532063445 -0.00004951223641153078 0 0.00002013354232440254 0 0
          0.0001398329549266164 -0.0000555909152832601 0 -0.000027634249155265796 0 0
          0.00014912759245210017 -0.00006348973151201753 0 -0.00007131993131091597 0 0
          0.00010436526767444719 -0.000028201923031684333 0 0.00010099496784625167 0 0
          0.00009345961377131562 -0.00002132559111442389 0 0.00006522644037633008 0 0
          0.00009224129601029252 -0.000021322023014441745 0 0.000014522351854301584 0 0
          0.00009929819369060289 -0.00002566074369989013 0 -0.00004084492342259371 0 0
          0.0001149567734559237 -0.00003603197156332172 0 -0.00008951341117095638 0 0
          0.00008811532535185629 -0.00002355722488966983 0 0.00007505446619631283 0 0
          0.00007639302199453912 -0.000023096473718342555 0 0.00003597757749505031 0 0
          0.00007666485107769849 -0.000025949286674459282 0 0.00000711549565908512 0 0
          0.00007931673387330529 -0.00002650427536221578 0 -0.00002453899051136887 0 0
          0.00009374743853263201 -0.000029391584361465613 0 -0.00007185043451165215 0 0
          <InformationKey name="L2_NORM_RANGE" location="vtkDataArray" length="2">
            <Value index="0">
              8.1249585526e-05
            </Value>
            <Value index="1">
              0.00062951826342
            </Value>
          </InformationKey>
        </DataArray>
        <DataArray type="Float64" Name="Btraction" NumberOfComponents="3" format="ascii" RangeMin="0" RangeMax="80.8701810307441">
          16.825743930880414 22.73001313944244 0 0 0 0
          0 0 0 0 0 0
          18.325523372264392 -26.17257410664043 0 18.01587773900523 23.89033767518367 0
          0 0 0 0 0 0
          0 0 0 19.243141018517193 -27.541788330642028 0
          19.21191273020814 25.407767417978384 0 0 0 0
          0 0 0 0 0 0
          20.04772012993471 -29.254506134415095 0 20.137682516783634 27.68916255485566 0
          0 0 0 0 0 0
          0 0 0 20.682058902870985 -31.48459801103263 0
          20.836084017897935 30.61480804564766 0 0 0 0