<?xml version="1.0"?>
<VTKFile type="UnstructuredGrid" version="0.1" byte_order="LittleEndian" header_type="UInt32" compressor="vtkZLibDataCompressor">
  <UnstructuredGrid>
    <Piece NumberOfPoints="84" NumberOfCells="65">
      <PointData>
        <DataArray type="Float64" Name="sld_BC" NumberOfComponents="3" format="ascii" RangeMin="0" RangeMax="0">
          0 0 0 0 0 0
          0 0 0 0 0 0
          0 0 0 0 0 0
          0 0 0 0 0 0
          0 0 0 0 0 0
          0 0 0 0 0 0
          0 0 0 0 0 0
          0 0 0 0 0 0
          0 0 0 0 0 0
          0 0 0 0 0 0
          0 0 0 0 0 0
          0 0 0 0 0 0
          0 0 0 0 0 0
          0 0 0 0 0 0
          0 0 0 0 0 0
          0 0 0 0 0 0
          0 0 0 0 0 0
          0 0 0 0 0 0
          0 0 0 0 0 0
          0 0 0 0 0 0
          0 0 0 0 0 0
          0 0 0 0 0 0
          0 0 0 0 0 0
          0 0 0 0 0 0
          0 0 0 0 0 0
          0 0 0 0 0 0
          0 0 0 0 0 0
          0 0 0 0 0 0
          0 0 0 0 0 0
          0 0 0 0 0 0
          0 0 0 0 0 0
          0 0 0 0 0 0
          0 0 0 0 0 0
          0 0 0 0 0 0
          0 0 0 0 0 0
          0 0 0 0 0 0
          0 0 0 0 0 0
          0 0 0 0 0 0
          0 0 0 0 0 0
          0 0 0 0 0 0
          0 0 0 0 0 0
          0 0 0 0 0 0
          <InformationKey name="L2_NORM_RANGE" location="vtkDataArray" length="2">
            <Value index="0">
              0
            </Value>
            <Value index="1">
              0
            </Value>
          </InformationKey>
        </DataArray>
        <DataArray type="Float64" Name="sld_FIXNO" NumberOfComponents="3" format="ascii" RangeMin="1.4142135623730951" RangeMax="1.4142135623730951">
          -1 -1 0 -1 -1 0
          -1 -1 0 -1 -1 0
          -1 -1 0 -1 -1 0
          -1 -1 0 -1 -1 0
          -1 -1 0 -1 -1 0
          -1 -1 0 -1 -1 0
          -1 -1 0 -1 -1 0
          -1 -1 0 -1 -1 0
          -1 -1 0 -1 -1 0
          -1 -1 0 -1 -1 0
          -1 -1 0 -1 -1 0
          -1 -1 0 -1 -1 0
          -1 -1 0 -1 -1 0
          -1 -1 0 -1 -1 0
          -1 -1 0 -1 -1 0
          -1 -1 0 -1 -1 0
          -1 -1 0 -1 -1 0
          -1 -1 0 -1 -1 0
          -1 -1 0 -1 -1 0
          -1 -1 0 -1 -1 0
          -1 -1 0 -1 -1 0
          -1 -1 0 -1 -1 0
          -1 -1 0 -1 -1 0
          -1 -1 0 -1 -1 0
          -1 -1 0 -1 -1 0
          -1 -1 0 -1 -1 0
          -1 -1 0 -1 -1 0
          -1 -1 0 -1 -1 0
          -1 -1 0 -1 -1 0
          -1 -1 0 -1 -1 0
          -1 -1 0 -1 -1 0
          -1 -1 0 -1 -1 0
          -1 -1 0 -1 -1 0
          -1 -1 0 -1 -1 0
          -1 -1 0 -1 -1 0
          -1 -1 0 -1 -1 0
          -1 -1 0 -1 -1 0
          -1 -1 0 -1 -1 0
          -1 -1 0 -1 -1 0
          -1 -1 0 -1 -1 0
          -1 -1 0 -1 -1 0
          -1 -1 0 -1 -1 0
          <InformationKey name="L2_NORM_RANGE" location="vtkDataArray" length="2">
            <Value index="0">
              1.4142135624
            </Value>
            <Value index="1">
              1.4142135624
            </Value>
          </InformationKey>
        </DataArray>
        <DataArray type="Float64" Name="Disp" NumberOfComponents="3" format="ascii" RangeMin="0.000012506821316180578" RangeMax="0.0004329567090664328">
          0.0000734263294143379 -0.00042668499630801746 0 0.0000498798309581227 -0.0004265049195865673 0
          0.00002657563743006165 -0.00042629217444561967 0 0.0000034512158166946524 -0.0004260657855361825 0
          -0.00001949536954835084 -0.00042585105528613075 0 -0.000042191815470047706 -0.00042565966276305825 0
          0.00007300564814667112 -0.0003858753815208015 0 0.000049568797934336895 -0.0003857311430314353 0
          0.000026277105387979504 -0.00038561748311491243 0 0.0000031546026667757276 -0.00038551185077424804 0
          -0.00001980680938772299 -0.00038540586355753295 0 -0.000042644429876835294 -0.00038526625903262195 0
          0.00007248499371961657 -0.00034539554094887973 0 0.0000491484350767551 -0.0003451741380937544 0
          0.00002591818362046712 -0.00034498463653304085 0 0.0000028136738167655354 -0.000344817614844944 0
          -0.000020183461237603483 -0.0003446506506489589 0 -0.00004313148489456648 -0.0003444628139697129 0
          0.00007181829773589965 -0.00030491460027406037 0 0.00004853018864137039 -0.0003046142671042004 0
          0.000025366594841287122 -0.00030433977097848574 0 0.0000023037350766802448 -0.0003040917850719193 0
          -0.000020686671955872595 -0.00030386120584551034 0 -0.000043639410312543646 -0.0003036401511037976 0
          0.00007093938004281306 -0.0002644450166178448 0 0.00004772053293592859 -0.0002640628366676698 0
          0.000024636125733917736 -0.00026371735811813975 0 0.0000016494637834695998 -0.0002634109661336474 0
          -0.000021277997860881963 -0.00026314078833823473 0 -0.00004418245492916956 -0.00026289854200566807 0
          0.00006982978582600371 -0.00022406438336411462 0 0.000046716602012739983 -0.00022360041186912202 0
          0.00002375432758184728 -0.00022319280091539904 0 8.915937735081031e-7 -0.00022284561993170113 0
          -0.000021920901672855785 -0.00022255655729958352 0 -0.0000447317487029719 -0.00022231759188888787 0
          0.00006846199881881999 -0.00018386368582155432 0 0.00004551675084138303 -0.00018331821623482456 0
          0.00002273618709562518 -0.00018285581895501147 0 5.7540655650416766e-8 -0.00018247900382114258 0
          -0.000022579590246896283 -0.00018218556454565178 0 -0.00004523486676373946 -0.0001819681404704882 0
          0.0000668168344238223 -0.00014396259053704272 0 0.000044117003080558925 -0.00014333575249120156 0
          0.00002159053436195141 -0.00014282260877487477 0 -8.330686869076397e-7 -0.0001424246699832379 0
          -0.000023223681273347392 -0.00014213905709106202 0 -0.00004565048819238422 -0.00014195866975141307 0
          0.00006488270425487706 -0.00010449734488510054 0 0.000042513216565780504 -0.0001037891188420198 0
          0.00002032506528189392 -0.00010323030062007931 0 -0.0000017617083282409988 -0.00010282064398884831 0
          -0.000023824979770303288 -0.00010255604845873174 0 -0.00004594125662243432 -0.0001024287756424221 0
          0.00006265354044786891 -0.00006560170702796411 0 0.00004071018122809385 -0.00006482335218730039 0
          0.0000189525126847661 -0.00006423024642698992 0 -0.0000027063510166482303 -0.00006382221103300157 0
          -0.00002435250902478148 -0.00006359504925521054 0 -0.000046070171761484644 -0.00006354014241612981 0
          0.0000601287342356543 -0.000027467220312420718 0 0.000038713363088925774 -0.000026618799719227386 0
          0.000017487780018696996 -0.00002599792250820664 0 -0.0000036431054215668916 -0.00002560291690070249 0
          -0.000024773004834419196 -0.00002542835011249568 0 -0.00004599540742766235 -0.000025465414651438037 0
          0.00005730806185147044 0.000009745467116455717 0 0.000036532049165596455 0.000010649228623023053 0
          0.00001594809985277217 0.000011283558786884311 0 -0.000004547154428904068 0.000011650921252612043 0
          -0.000025054187989766546 0.000011756830661188524 0 -0.0000456720191143289 0.000011610119587813477 0
          0.00005419506400563051 0.000045808314293164064 0 0.000034179247533235994 0.000046762699894458663 0
          0.000014351809085382132 0.00004740242374826878 0 -0.000005392624645673426 0.00004773000726485853 0
          -0.000025160975811247625 0.00004775007013232425 0 -0.00004505974257808728 0.00004747089564144839 0
          0.00003166114822362529 0.00008150529537854823 0 0.00005079854226348979 0.00008050539111513776 0
          0.000012712618476340813 0.00008214403161110344 0 -0.000006158096379417977 0.00008242318253733427 0
          -0.00002506365767332021 0.00008234772498874875 0 -0.00004411892962761219 0.0000819250877389531 0
          <InformationKey name="L2_NORM_RANGE" location="vtkDataArray" length="2">
            <Value index="0">
              1.2506821316e-05
            </Value>
            <Value index="1">
              0.00043295670907
            </Value>
          </InformationKey>
        </DataArray>
        <DataArray type="Float64" Name="Sld_traction" NumberOfComponents="3" format="ascii" RangeMin="0" RangeMax="316.7178218099273">
          78.90316899107876 63.83005113534188 0 126.6341744418272 24.42550056681354 0
          102.59497021660158 4.758495623506866 0 100.83429648282359 -9.378651265506377 0
          122.74482884699034 -29.037071442893712 0 78.96926863941444 -66.18537859837333 0
          35.82801741011552 96.58147293165982 0 0 0 0
          0 0 0 0 0 0
          0 0 0 36.59862425793207 -99.15596088991146 0
          35.9147842690404 86.97357888884885 0 0 0 0
          0 0 0 0 0 0
          0 0 0 39.68445330744098 -86.03159651245377 0
          28.791363740524634 78.42912670620329 0 0 0 0
          0 0 0 0 0 0
          0 0 0 35.8606892501088 -68.70667341314598 0
          23.538654153512795 80.12985256554587 0 0 0 0
          0 0 0 0 0 0
          0 0 0 33.15975401201836 -59.84471075659148 0
          19.56546852493277 87.76446479922059 0 0 0 0
          0 0 0 0 0 0
          0 0 0 31.283132167006624 -55.09610748306012 0
          15.5724955347655 101.787235343394 0 0 0 0
          0 0 0 0 0 0
          0 0 0 30.67860297730751 -50.7257563520411 0
          11.189599115751484 119.76613818002036 0 0 0 0
          0 0 0 0 0 0
          0 0 0 30.341183636472923 -46.69209714858909 0
          5.744441899840914 141.11704159224294 0 0 0 0
          0 0 0 0 0 0
          0 0 0 29.48625324343786 -43.884222604276275 0
          0.022177857592462713 168.43424107746517 0 0 0 0
          0 0 0 0 0 0
          0 0 0 27.80280477398354 -43.33742656938267 0
          -5.972605512928461 198.51480306266998 0 0 0 0
          0 0 0 0 0 0
          0 0 0 25.556713380533434 -44.23488896324424 0
          -12.04713223046832 235.43325208220804 0 0 0 0
          0 0 0 0 0 0
          0 0 0 22.557556719007113 -46.49284130928123 0
          -17.17939126998876 274.7663617154806 0 0 0 0
          0 0 0 0 0 0
          0 0 0 19.444477504764574 -51.753292439098324 0
          0 0 0 -22.250798707465766 315.93524749369874 0
          0 0 0 0 0 0
          0 0 0 16.44892129699551 -55.96986794297399 0
          <InformationKey name="L2_NORM_RANGE" location="vtkDataArray" length="2">
            <Value index="0">
              0
            </Value>
            <Value index="1">
              316.71782181
            </Value>
          </InformationKey>
        </DataArray>
        <DataArray type="Float64" Name="Fld_traction" NumberOfComponents="3" format="ascii" RangeMin="0" RangeMax="184.97110368240126">
          81.99940171835581 52.12230888095725 0 122.08379230170748 -1.045977280197531 0
          115.21806901207744 -0.493905658256236 0 115.6283944434672 -1.0613743282604524 0
          123.35032466283616 -0.4855647813406499 0 84.41112965232485 -49.41394254507088 0
          42.926894606328375 84.98593443005824 0 0 0 0
          0 0 0 0 0 0
          0 0 0 41.772927264473225 -83.28070834202774 0
          40.25899577800001 74.8323876844476 0 0 0 0
          0 0 0 0 0 0
          0 0 0 38.22016556912966 -75.21601073123594 0
          37.76269459404207 69.14154133680495 0 0 0 0
          0 0 0 0 0 0
          0 0 0 36.08084964096223 -70.10457857311903 0
          33.68746386496891 67.21403493771756 0 0 0 0
          0 0 0 0 0 0
          0 0 0 32.57357792139894 -68.5977182166773 0
          31.821682016216798 67.78495915914088 0 0 0 0
          0 0 0 0 0 0
          0 0 0 28.563818636121596 -72.04942471956271 0
          29.312121947159035 71.67737395086924 0 0 0 0
          0 0 0 0 0 0
          0 0 0 26.104957232167003 -77.58623736717608 0
          25.754730345361672 77.85703560302447 0 0 0 0
          0 0 0 0 0 0
          0 0 0 24.099971809133656 -84.63512497190267 0
          21.311307373863908 85.80898852433734 0 0 0 0
          0 0 0 0 0 0
          0 0 0 21.811043767178745 -93.82630053267944 0
          16.10166069398103 99.25614275930619 0 0 0 0
          0 0 0 0 0 0
          0 0 0 18.515348714994307 -106.32361365265967 0
          10.76111741066934 113.64206093389686 0 0 0 0
          0 0 0 0 0 0
          0 0 0 14.292817651258568 -121.86457770465994 0
          5.275493171211179 134.39406742054035 0 0 0 0
          0 0 0 0 0 0
          0 0 0 9.8604381401097 -139.77668750326467 0
          -0.2481441722401878 156.81407213013583 0 0 0 0
          0 0 0 0 0 0
          0 0 0 5.013440936520008 -162.37369723807257 0
          0 0 0 -5.107533837486242 180.916487369924 0
          0 0 0 0 0 0
          0 0 0 0.166374689353044 -184.97102885843606 0
          <InformationKey name="L2_NORM_RANGE" location="vtkDataArray" length="2">
            <Value index="0">
              0
            </Value>
            <Value index="1">
              184.97110368
            </Value>
          </InformationKey>
        </DataArray>
        <DataArray type="Float64" Name="Velocity" NumberOfComponents="3" format="ascii" RangeMin="0.00034905543500748546" RangeMax="0.003807153762478866">
          0.0015423524836558405 -0.0034807425339024494 0 0.0012517109145663947 -0.0034758385331555963 0
          0.0009747455276878851 -0.0034694119617737973 0 0.0007083713784153804 -0.003462310811227613 0
          0.00045257310948128597 -0.003455777201866542 0 0.00021081627538842063 -0.0034503815825066017 0
          0.001525552595514884 -0.002994605545816661 0 0.0012404807667824615 -0.002994758352574239 0
          0.0009641843498836736 -0.0029964430851645604 0 0.0006979697109336427 -0.0029984837269592833 0
          0.00044160251764946597 -0.003000426074423847 0 0.00019337882050743447 -0.0030007635648103435 0
          0.0015157789663208612 -0.002522630380574823 0 0.0012351398698396345 -0.0025237062089903005 0
          0.000961567460413848 -0.0025260617045533857 0 0.0006960030938799756 -0.002529268951200027 0
          0.00043788436547464283 -0.0025323483237702526 0 0.00018508219881009782 -0.0025345228873447975 0
          0.00151087002089167 -0.0020514473639259324 0 0.0012321079699612171 -0.002053147166620633 0
          0.0009609897173022613 -0.0020557090055803974 0 0.0006967907759195058 -0.002059123314232127 0
          0.0004386571566541453 -0.002063054837014521 0 0.00018552990740349043 -0.0020672638684419604 0
          0.0015078074205601352 -0.0015812260497966848 0 0.0012312819840261985 -0.0015832569223068204 0
          0.0009626732457439756 -0.0015863912442291754 0 0.0007008113464532071 -0.0015906487011397548 0
          0.0004446272570492751 -0.001595952748081561 0 0.00019315412502950868 -0.0016021439533851242 0
          0.0015054086008158799 -0.0011147011738614704 0 0.001232244043926546 -0.001116918367143917 0
          0.0009671917324950399 -0.0011207368695035753 0 0.0007088758821930671 -0.0011261668583780774 0
          0.0004560778697787795 -0.0011331458442983386 0 0.0002076943610563637 -0.0011415530992681523 0
          0.0015029002911095051 -0.0006546675102284321 0 0.0012346455899701035 -0.0006570289074802301 0
          0.0009745708814944253 -0.0006615926941796905 0 0.000721193654760949 -0.0006683159878197369 0
          0.00047320777455389786 -0.000677131119759887 0 0.00022942641887572552 -0.0006879467191103309 0
          0.0014997403553441812 -0.00020433507159017437 0 0.0012381460337892037 -0.0002067437537976377 0
          0.000984619680514038 -0.00021200776804404476 0 0.0007376849426679451 -0.00022002999034963103 0
          0.0004960141208532039 -0.0002307208175552028 0 0.0002584177503694812 -0.00024399366287373276 0
          0.001495605448793263 0.0002332751432581816 0 0.0012423933357981914 0.00023088077403138373 0
          0.0009970471062059028 0.00022498832727289712 0 0.000758133128576356 0.00021571180813859646 0
          0.0005243354838067567 0.0002031498438006727 0 0.0002944879215584768 0.0001873941321504847 0
          0.0014902984430233725 0.0006552810283166524 0 0.0012470776371986212 0.0006529477636116333 0
          0.001011513140757534 0.0006465170060637803 0 0.0007821931341262942 0.0006361139880195727 0
          0.0005578299418787902 0.0006218450223349334 0 0.00033723070657575455 0.0006038091380978562 0
          0.0014835398548103049 0.0010586823917165496 0 0.001251898794635626 0.0010564961877061103 0
          0.001027637872916029 0.0010496365366539206 0 0.0008094076843841893 0.0010382609073506677 0
          0.0005959743155723034 0.0010224848975777323 0 0.0003861819632064019 0.001002380955919475 0
          0.001475157370878693 0.0014406581720833142 0 0.0012566005228936577 0.0014386287238891664 0
          0.00104506762823803 0.0014314040129154858 0 0.0008393080375905903 0.001419179229104026 0
          0.0006382138568900725 0.001402073715580494 0 0.0004407670873927307 0.0013801172481220018 0
          0.0014650814502804668 0.0017983737602005243 0 0.0012610256972905697 0.0017965039636474505 0
          0.0010634872107152706 0.0017889773587507418 0 0.0008714100988504765 0.0017760463740039882 0
          0.000683899720695274 0.0017578323456533926 0 0.0005001632592208575 0.0017343321708985998 0
          0.001265060727900702 0.0021275375423942195 0 0.0014534209683044455 0.00212925051727191 0
          0.0010825410833623615 0.002119840937503396 0 0.0009051428477930373 0.0021064191367634413 0
          0.000732229956481206 0.0020873866034202475 0 0.0005632803646671813 0.0020627302024525717 0
          <InformationKey name="L2_NORM_RANGE" location="vtkDataArray" length="2">
            <Value index="0">
              0.00034905543501
            </Value>
            <Value index="1">
              0.0038071537625
            </Value>
          </InformationKey>
        </DataArray>
      </PointData>
      <CellData>
        <DataArray type="UInt8" Name="vtkGhostType" format="ascii" RangeMin="0" RangeMax="0">
          0 0 0 0 0 0
          0 0 0 0 0 0
          0 0 0 0 0 0
          0 0 0 0 0 0
          0 0 0 0 0 0
          0 0 0 0 0 0
          0 0 0 0 0 0
          0 0 0 0 0 0
          0 0 0 0 0 0
          0 0 0 0 0 0
          0 0 0 0 0
        </DataArray>
        <DataArray type="Float64" Name="Gauss Stress" NumberOfComponents="6" format="ascii" RangeMin="135.0992587160736" RangeMax="852.8091651579728">
          835.2391306857899 170.0283864851091 0 -27.37543676281503 0 0
          628.1975224827108 172.83858306826738 0 -52.01652352813322 0 0
          421.4229957322375 174.9110062359615 0 -59.7956234469005 0 0
          215.9857523308002 175.81589197221956 0 -50.4939122805542 0 0
          13.373633887668198 175.27022391808322 0 -23.982559687562123 0 0
          768.4781024261956 147.1959907429535 0 -22.407825364744873 0 0
          589.8581458948184 149.8472888426579 0 -47.710311884313 0 0
          412.29613152959297 152.1059070113322 0 -56.75755439581235 0 0
          236.30705221411688 153.24334284342044 0 -49.603441429039705 0 0
          63.116830314305524 152.621207947708 0 -26.315354488449934 0 0
          700.3483454710768 125.28668278720062 0 -16.929775045532473 0 0
          550.2720701824193 128.82395485603675 0 -42.83342219605026 0 0
          400.26566430179935 131.49088982131389 0 -53.386598296729204 0 0
          251.83087648787625 132.8714095936434 0 -48.88963210505038 0 0
          105.91775296126656 132.204576952714 0 -29.452987045270504 0 0
          632.8656487049482 107.61466798973115 0 -10.05371196721513 0 0
          508.941905475793 111.06668773584042 0 -36.65442270871711 0 0
          384.84760055641095 113.96345917168465 0 -48.9283267756418 0 0
          262.0142864305417 115.64186403537435 0 -47.11147158192305 0 0
          142.09862351568933 115.58308101270552 0 -31.39032146821539 0 0
          566.5282043209913 93.59382654596833 0 -4.5204609834018905 0 0
          466.53381645550616 96.72433230810253 0 -30.887709489239356 0 0
          366.33209133211164 99.57902126023953 0 -44.2761828175569 0 0
          267.1853781565004 101.36073743038608 0 -44.87033468138598 0 0
          170.47554780281217 101.31249331284147 0 -32.912817281339116 0 0
          501.3281634333776 82.45994341822806 0 1.9199228062991165 0 0
          423.62200185443845 85.55683356735615 0 -24.542245460469324 0 0
          345.101556815035 88.32626288274972 0 -39.12155106750448 0 0
          267.4327651749362 90.16459700196025 0 -42.098356434660346 0 0
          191.92184720620463 90.30692139183495 0 -33.67222965585001 0 0
          438.6329560397669 75.1594044745044 0 7.006705973679723 0 0
          380.50463771490644 77.49162657280911 0 -18.650507820539918 0 0
          321.55675911517693 80.07316202687717 0 -33.832569752682744 0 0
          263.18299495766325 81.93832731900233 0 -38.79164520919795 0 0
          207.09547117076198 82.27597189915454 0 -33.63827616242672 0 0
          378.77083128440427 69.59059029967264 0 11.645328537923639 0 0
          338.36787897492616 71.79800081175276 0 -12.807547469784058 0 0
          296.36051340051165 74.27016903578716 0 -28.27624334860421 0 0
          254.77233748012173 76.04615412373985 0 -35.0976031681236 0 0
          215.62044803745843 76.2072990168365 0 -33.343103598923214 0 0
          323.4696192278391 66.98914195689908 0 16.066761976969435 0 0
          297.5718563211856 69.21133360326007 0 -6.80977999456478 0 0
          269.54148564891165 71.3275559542989 0 -22.717362321316326 0 0
          241.89972410821295 72.59309781745586 0 -31.59872622660223 0 0
          216.80574388056976 72.13063263495724 0 -33.62440313323558 0 0
          274.1213122436519 68.30438763384075 0 20.80680882031814 0 0
          257.6062477556824 70.42887600061353 0 -0.765010685501907 0 0
          240.48511156483718 72.76950967759126 0 -17.720529766108967 0 0
          223.95850313865787 72.98969956318902 0 -29.390114383841176 0 0
          209.4779958829519 71.1808924451549 0 -35.31034050653996 0 0
          228.3557454364996 71.30312945527024 0 27.599346364398507 0 0
          217.83259970389423 76.42993502483158 0 7.381588634440563 0 0
          206.58573437214528 79.25228008259762 0 -12.641677812595349 0 0
          200.34449019996478 78.82854635200732 0 -29.0122145586599 0 0
          196.96871467381507 74.27998609112078 0 -37.88753927389443 0 0
          194.2204943532363 81.06260911176261 0 37.16365115813822 0 0
          174.8671794236684 81.28356628993532 0 16.05591149988514 0 0
          164.9959184518194 81.15304614291075 0 -7.235301103489917 0 0
          168.22749173044843 83.32860462716587 0 -28.374384120489733 0 0
          185.5391774546623 83.59146579309663 0 -43.11857842549841 0 0
          160.74974063060856 67.73516293020603 0 30.87877106184795 0 0
          133.17313419897107 48.823894134761005 0 11.493886480019606 0 0
          127.74829147513547 43.88633343603779 0 -2.484646525631276 0 0
          132.4099820850045 49.1912977777613 0 -15.491643460779322 0 0
          162.23233668710748 66.81989831291963 0 -33.17907823887104 0 0
          <InformationKey name="L2_NORM_RANGE" location="vtkDataArray" length="2">
            <Value index="0">
              135.09925872
            </Value>
            <Value index="1">
              852.80916516
            </Value>
          </InformationKey>
        </DataArray>
        <DataArray type="Float64" Name="Gauss Strain" NumberOfComponents="6" format="ascii" RangeMin="0.00006426437441747888" RangeMax="0.0004942869754840783">
          0.0004329377335715867 -0.00023213799398191792 0 -0.000054740156495453065 0 0
          0.00030768430723342177 -0.00014760038045250057 0 -0.00010401638900097351 0 0
          0.00018285305816720387 -0.00006362825306799325 0 -0.00011957670543549802 0 0
          0.000059259301311037627 0.000019093799742062045 0 -0.00010097935569760098 0 0
          -0.00006209092591227817 0.00009980065235948299 0 -0.00004796248773250318 0 0
          0.00040204042463240497 -0.00021912696153500444 0 -0.000044807720507800375 0 0
          0.0002938855231062326 -0.00014605927642430405 0 -0.0000954065468237732 0 0
          0.00018649755687905056 -0.0000736623534565717 0 -0.00011350209981357449 0 0
          0.00008047845567348 -0.0000025778980165952485 0 -0.0000991987262066012 0 0
          -0.00002318062144587852 0.000066320677302667 0 -0.000052627790680319764 0 0
          0.00036995172742822213 -0.00020501431519429072 0 -0.00003385421145514125 0 0
          0.00027855219039914225 -0.00014283799411834996 0 -0.00008565527742704693 0 0
          0.0001875248834901366 -0.00008122062856508183 0 -0.00010676172796326931 0 0
          0.00009793846409375527 -0.000021011218673983034 0 -0.00009777145341868097 0 0
          0.000010667728946728293 0.0000369538564658628 0 -0.0000589027184541912 0 0
          0.00033655543142467603 -0.00018861732614966487 0 -0.000020104707068853845 0 0
          0.00026086705020533785 -0.00013695835997043493 0 -0.00007329986313573392 0 0
          0.00018528605369171058 -0.00008557059457764414 0 -0.00009784684951045505 0 0
          0.0001109376667157852 -0.00003542326393915496 0 -0.00009421564435003696 0 0
          0.00003902377734181506 0.000012509972048865836 0 -0.0000627770980600051 0 0
          0.00030238408482037566 -0.0001704875801400441 0 -0.000009039938244067845 0 0
          0.0002411696226673754 -0.00012859789810323874 0 -0.00006176856590327961 0 0
          0.00017993278562998538 -0.00008679511949688523 0 -0.00008854411333975628 0 0
          0.0001197507964091904 -0.000046061334917607555 0 -0.00008973395051308171 0 0
          0.00006175590634145689 -0.000007403147215284677 0 -0.00006582186064461969 0 0
          0.0002677382913662957 -0.00015108087774437504 0 0.000003839209588669086 0 0
          0.00021990003165540947 -0.0001181305294707391 0 -0.00004907960164129864 0 0
          0.00017169889580942455 -0.00008505394943644772 0 -0.00007823634941020428 0 0
          0.00012437667574932698 -0.00005287863577838059 0 -0.00008419064600713339 0 0
          0.00007902340696794297 -0.000022585634797706033 0 -0.00006734054621411581 0 0
          0.00023305961609948467 -0.0001303765214459296 0 0.000014011832997109208 0 0
          0.00019726581046347613 -0.0001057193510087817 0 -0.00003729768941330351 0 0
          0.00016087734935572862 -0.00008058674359417982 0 -0.00006765974297182965 0 0
          0.0001251173474828421 -0.00005611470782099226 0 -0.00007757792336177684 0 0
          0.00009133778804112924 -0.00003347440636936039 0 -0.00006727260149451639 0 0
          0.00019938510886208238 -0.00010976739612766906 0 0.000023288473588054513 0 0
          0.00017427034618840154 -0.00009227762541799689 0 -0.000025613063167947205 0 0
          0.00014808526670244404 -0.00007398856293208689 0 -0.00005654833319024109 0 0
          0.00012242876421177107 -0.00005628554241801642 0 -0.00007019056801813514 0 0
          0.00009887873589969898 -0.00004052623783892817 0 -0.00006668229247256001 0 0
          0.000167257259073364 -0.00008920320624608569 0 0.000032130954749760106 0 0
          0.00015083554947079023 -0.00007750821708271682 0 -0.00001361861367373983 0 0
          0.00013317560010597806 -0.00006502479974510034 0 -0.00004543166250502641 0 0
          0.0001160882315754813 -0.00005320772537048545 0 -0.00006319349278505852 0 0
          0.00010122002284999876 -0.00004344671343184391 0 -0.00006724491828319656 0 0
          0.0001371316941558981 -0.00006867116235390047 0 0.000041610728493176485 0 0
          0.00012637640026502694 -0.00006078870731474062 0 -0.0000015299599981070841 0 0
          0.00011516996995858396 -0.00005253513257241771 0 -0.000035438870054327895 0 0
          0.00010516756323292187 -0.000045792276011757955 0 -0.000058776755210202095 0 0
          0.00009720395037890461 -0.00004108538875402523 0 -0.00007061672414523807 0 0
          0.0001084798981990792 -0.00004856333402761259 0 0.000055195358092533825 0 0
          0.0001001180541081309 -0.00004127631887157479 0 0.000014762269107767647 0 0
          0.00009224249278090568 -0.00003508371341620631 0 -0.000025281933677731457 0 0
          0.00008866707334415082 -0.00003284210677767518 0 -0.000058021192415176666 0 0
          0.00008846025875142159 -0.00003422181981954652 0 -0.00007577096678048328 0 0
          0.00008409922920939172 -0.00002905244001488727 0 0.00007432315644178176 0 0
          0.00007240207168206225 -0.00002117677071605817 0 0.000032110145564773826 0 0
          0.0000665325870417427 -0.0000173061767592686 0 -0.000014469897522045894 0 0
          0.00006760029796859524 -0.0000172943349771304 0 -0.00005674589821809362 0 0
          0.00007787937931448552 -0.000024062836466831605 0 -0.00008623247865650614 0 0
          0.00006935030306842727 -0.000023660010547849053 0 0.00006175474685400746 0 0
          0.00006037077488472986 -0.00002397544580601263 0 0.000022986944565912716 0 0
          0.00005909114359617384 -0.000024768011679637825 0 -0.000004969121170146851 0 0
          0.00005976587527745103 -0.000023449847742745833 0 -0.00003098217297610189 0 0
          0.00007060557798965748 -0.000024802469820478512 0 -0.00006635516751179415 0 0
          <InformationKey name="L2_NORM_RANGE" location="vtkDataArray" length="2">
            <Value index="0">
              6.4264374417e-05
            </Value>
            <Value index="1">
              0.00049428697548
            </Value>
          </InformationKey>
        </DataArray>
        <DataArray type="Float64" Name="Btraction" NumberOfComponents="3" format="ascii" RangeMin="0" RangeMax="86.84583655714901">
          -1.3389195024316074 84.43263987501493 0 0 0 0
          0 0 0 0 0 0
          1.2949539064682631 -86.83618152412716 0 1.2568372497427478 72.80203488766902 0
          0 0 0 0 0 0
          0 0 0 3.7184697691574273 -75.53759618533431 0
          4.009152645470129 62.0090320886093 0 0 0 0
          0 0 0 0 0 0
          6.038313947842067 -65.41031630198115 0 6.715694526162593 53.224550923300754 0
          0 0 0 0 0 0
          0 0 0 8.202041591563217 -57.047047839329906 0
          9.353242016961232 46.26628282091088 0 0 0 0
          0 0 0 0 0 0