<?xml version="1.0"?>
<VTKFile type="UnstructuredGrid" version="0.1" byte_order="LittleEndian" header_type="UInt32" compressor="vtkZLibDataCompressor">
  <UnstructuredGrid>
    <Piece NumberOfPoints="83" NumberOfCells="64">
      <PointData>
        <DataArray type="Float64" Name="sld_BC" NumberOfComponents="3" format="ascii" RangeMin="0" RangeMax="0">
          0 0 0 0 0 0
          0 0 0 0 0 0
          0 0 0 0 0 0
          0 0 0 0 0 0
          0 0 0 0 0 0
          0 0 0 0 0 0
          0 0 0 0 0 0
          0 0 0 0 0 0
          0 0 0 0 0 0
          0 0 0 0 0 0
          0 0 0 0 0 0
          0 0 0 0 0 0
          0 0 0 0 0 0
          0 0 0 0 0 0
          0 0 0 0 0 0
          0 0 0 0 0 0
          0 0 0 0 0 0
          0 0 0 0 0 0
          0 0 0 0 0 0
          0 0 0 0 0 0
          0 0 0 0 0 0
          0 0 0 0 0 0
          0 0 0 0 0 0
          0 0 0 0 0 0
          0 0 0 0 0 0
          0 0 0 0 0 0
          0 0 0 0 0 0
          0 0 0 0 0 0
          0 0 0 0 0 0
          0 0 0 0 0 0
          0 0 0 0 0 0
          0 0 0 0 0 0
          0 0 0 0 0 0
          0 0 0 0 0 0
          0 0 0 0 0 0
          0 0 0 0 0 0
          0 0 0 0 0 0
          0 0 0 0 0 0
          0 0 0 0 0 0
          0 0 0 0 0 0
          0 0 0 0 0 0
          0 0 0
          <InformationKey name="L2_NORM_RANGE" location="vtkDataArray" length="2">
            <Value index="0">
              0
            </Value>
            <Value index="1">
              0
            </Value>
          </InformationKey>
        </DataArray>
        <DataArray type="Float64" Name="sld_FIXNO" NumberOfComponents="3" format="ascii" RangeMin="1.4142135623730951" RangeMax="1.4142135623730951">
          -1 -1 0 -1 -1 0
          -1 -1 0 -1 -1 0
          -1 -1 0 -1 -1 0
          -1 -1 0 -1 -1 0
          -1 -1 0 -1 -1 0
          -1 -1 0 -1 -1 0
          -1 -1 0 -1 -1 0
          -1 -1 0 -1 -1 0
          -1 -1 0 -1 -1 0
          -1 -1 0 -1 -1 0
          -1 -1 0 -1 -1 0
          -1 -1 0 -1 -1 0
          -1 -1 0 -1 -1 0
          -1 -1 0 -1 -1 0
          -1 -1 0 -1 -1 0
          -1 -1 0 -1 -1 0
          -1 -1 0 -1 -1 0
          -1 -1 0 -1 -1 0
          -1 -1 0 -1 -1 0
          -1 -1 0 -1 -1 0
          -1 -1 0 -1 -1 0
          -1 -1 0 -1 -1 0
          -1 -1 0 -1 -1 0
          -1 -1 0 -1 -1 0
          -1 -1 0 -1 -1 0
          -1 -1 0 -1 -1 0
          -1 -1 0 -1 -1 0
          -1 -1 0 -1 -1 0
          -1 -1 0 -1 -1 0
          -1 -1 0 -1 -1 0
          -1 -1 0 -1 -1 0
          -1 -1 0 -1 -1 0
          -1 -1 0 -1 -1 0
          -1 -1 0 -1 -1 0
          -1 -1 0 -1 -1 0
          1 1 0 1 1 0
          1 1 0 1 1 0
          1 1 0 1 1 0
          -1 -1 0 -1 -1 0
          -1 -1 0 -1 -1 0
          -1 -1 0 -1 -1 0
          -1 -1 0
          <InformationKey name="L2_NORM_RANGE" location="vtkDataArray" length="2">
            <Value index="0">
              1.4142135624
            </Value>
            <Value index="1">
              1.4142135624
            </Value>
          </InformationKey>
        </DataArray>
      </PointData>
      <CellData>
        <DataArray type="UInt8" Name="vtkGhostType" format="ascii" RangeMin="0" RangeMax="1">
          1 1 0 1 1 1
          1 0 0 0 0 0
          0 0 0 0 0 0
          0 0 0 0 0 0
          0 0 0 0 0 0
          0 0 0 0 0 0
          0 0 0 0 0 0
          0 0 0 0 0 0
          0 0 0 0 0 0
          0 0 0 0 0 0
          0 0 0 0
        </DataArray>
      </CellData>
      <Points>
        <DataArray type="Float32" Name="Points" NumberOfComponents="3" format="ascii" RangeMin="0.31320268577451565" RangeMax="0.397753309761242">
          0.33323219418525696 0.20200000703334808 0 0.33323219418525696 0.1979999989271164 0
          0.33323219418525696 0.1940000057220459 0 0.33323219418525696 0.1899999976158142 0
          0.32621198892593384 0.20999999344348907 0 0.32621198892593384 0.20600000023841858 0
          0.32621198892593384 0.20200000703334808 0 0.32621198892593384 0.1979999989271164 0
          0.32621198892593384 0.1940000057220459 0 0.32621198892593384 0.1899999976158142 0
          0.3191918134689331 0.20999999344348907 0 0.3191918134689331 0.20600000023841858 0
          0.3191918134689331 0.20200000703334808 0 0.3191918134689331 0.1979999989271164 0
          0.3191918134689331 0.1940000057220459 0 0.3191918134689331 0.1899999976158142 0
          0.31217160820961 0.20999999344348907 0 0.31217160820961 0.20600000023841858 0
          0.31217160820961 0.20200000703334808 0 0.31217160820961 0.1979999989271164 0
          0.31217160820961 0.1940000057220459 0 0.31217160820961 0.1899999976158142 0
          0.30515140295028687 0.20999999344348907 0 0.30515140295028687 0.20600000023841858 0
          0.30515140295028687 0.20200000703334808 0 0.30515140295028687 0.1979999989271164 0
          0.30515140295028687 0.1940000057220459 0 0.30515140295028687 0.1899999976158142 0
          0.29813119769096375 0.20999999344348907 0 0.29813119769096375 0.20600000023841858 0
          0.29813119769096375 0.20200000703334808 0 0.29813119769096375 0.1979999989271164 0
          0.29813119769096375 0.1940000057220459 0 0.29813119769096375 0.1899999976158142 0
          0.2911109924316406 0.20999999344348907 0 0.2911109924316406 0.20600000023841858 0
          0.2911109924316406 0.20200000703334808 0 0.2911109924316406 0.1979999989271164 0
          0.2911109924316406 0.1940000057220459 0 0.2911109924316406 0.1899999976158142 0
          0.2840907871723175 0.20999999344348907 0 0.2840907871723175 0.20600000023841858 0
          0.2840907871723175 0.20200000703334808 0 0.2840907871723175 0.1979999989271164 0
          0.2840907871723175 0.1940000057220459 0 0.2840907871723175 0.1899999976158142 0
          0.2770706117153168 0.20999999344348907 0 0.2770706117153168 0.20600000023841858 0
          0.2770706117153168 0.20200000703334808 0 0.2770706117153168 0.1979999989271164 0
          0.2770706117153168 0.1940000057220459 0 0.2770706117153168 0.1899999976158142 0
          0.27005040645599365 0.20999999344348907 0 0.27005040645599365 0.20600000023841858 0
          0.27005040645599365 0.20200000703334808 0 0.27005040645599365 0.1979999989271164 0
          0.27005040645599365 0.1940000057220459 0 0.27005040645599365 0.1899999976158142 0
          0.26303020119667053 0.20999999344348907 0 0.26303020119667053 0.20600000023841858 0
          0.26303020119667053 0.20200000703334808 0 0.26303020119667053 0.1979999989271164 0
          0.26303020119667053 0.1940000057220459 0 0.26303020119667053 0.1899999976158142 0
          0.2560099959373474 0.20999999344348907 0 0.2560099959373474 0.20600000023841858 0
          0.2560099959373474 0.20200000703334808 0 0.2560099959373474 0.1979999989271164 0
          0.2560099959373474 0.1940000057220459 0 0.2560099959373474 0.1899999976158142 0
          0.24898980557918549 0.20999999344348907 0 0.24898980557918549 0.20600000023841858 0
          0.24898980557918549 0.20200000703334808 0 0.24898980557918549 0.1979999989271164 0
          0.24898980557918549 0.1940000057220459 0 0.24898980557918549 0.1899999976158142 0
          0.33323219418525696 0.20600000023841858 0 0.33323219418525696 0.20999999344348907 0
          0.3402523994445801 0.20200000703334808 0 0.3402523994445801 0.20600000023841858 0
          0.3402523994445801 0.1979999989271164 0 0.3402523994445801 0.1940000057220459 0
          0.3402523994445801 0.1899999976158142 0
          <InformationKey name="L2_NORM_RANGE" location="vtkDataArray" length="2">
            <Value index="0">
              0.31320268577
            </Value>
            <Value index="1">
              0.39775330976
            </Value>
          </InformationKey>
        </DataArray>
      </Points>
      <Cells>
        <DataArray type="Int64" Name="connectivity" format="ascii" RangeMin="0" RangeMax="82">
          5 76 77 4 6 0
          76 5 7 1 0 6
          0 78 79 76 1 80
          78 0 2 81 80 1
          3 82 81 2 71 65
          64 70 72 66 65 71
          73 67 66 72 74 68
          67 73 75 69 68 74
          65 59 58 64 66 60
          59 65 67 61 60 66
          68 62 61 67 69 63
          62 68 59 53 52 58
          60 54 53 59 61 55
          54 60 62 56 55 61
          63 57 56 62 53 47
          46 52 54 48 47 53
          55 49 48 54 56 50
          49 55 57 51 50 56
          47 41 40 46 48 42
          41 47 49 43 42 48
          50 44 43 49 51 45
          44 50 41 35 34 40
          42 36 35 41 43 37
          36 42 44 38 37 43
          45 39 38 44 35 29
          28 34 36 30 29 35
          37 31 30 36 38 32
          31 37 39 33 32 38
          29 23 22 28 30 24
          23 29 31 25 24 30
          32 26 25 31 33 27
          26 32 23 17 16 22
          24 18 17 23 25 19
          18 24 26 20 19 25
          27 21 20 26 17 11
          10 16 18 12 11 17
          19 13 12 18 20 14
          13 19 21 15 14 20
          11 5 4 10 12 6
          5 11 13 7 6 12
          14 8 7 13 15 9
          8 14 8 2 1 7
          9 3 2 8
        </DataArray>
        <DataArray type="Int64" Name="offsets" format="ascii" RangeMin="4" RangeMax="256">
          4 8 12 16 20 24
          28 32 36 40 44 48
          52 56 60 64 68 72
          76 80 84 88 92 96
          100 104 108 112 116 120
          124 128 132 136 140 144
          148 152 156 160 164 168
          172 176 180 184 188 192
          196 200 204 208 212 216
          220 224 228 232 236 240
          244 248 252 256
        </DataArray>
        <DataArray type="UInt8" Name="types" format="ascii" RangeMin="9" RangeMax="9">
          9 9 9 9 9 9
          9 9 9 9 9 9
          9 9 9 9 9 9
          9 9 9 9 9 9
          9 9 9 9 9 9
          9 9 9 9 9 9
          9 9 9 9 9 9
          9 9 9 9 9 9
          9 9 9 9 9 9
          9 9 9 9 9 9
          9 9 9 9
        </DataArray>
      </Cells>
    </Piece>
  </UnstructuredGrid>
</VTKFile>
