<?xml version="1.0"?>
<VTKFile type="UnstructuredGrid" version="0.1" byte_order="LittleEndian" header_type="UInt32" compressor="vtkZLibDataCompressor">
  <UnstructuredGrid>
    <Piece NumberOfPoints="87" NumberOfCells="67">
      <PointData>
        <DataArray type="Float64" Name="sld_BC" NumberOfComponents="3" format="ascii" RangeMin="0" RangeMax="0">
          0 0 0 0 0 0
          0 0 0 0 0 0
          0 0 0 0 0 0
          0 0 0 0 0 0
          0 0 0 0 0 0
          0 0 0 0 0 0
          0 0 0 0 0 0
          0 0 0 0 0 0
          0 0 0 0 0 0
          0 0 0 0 0 0
          0 0 0 0 0 0
          0 0 0 0 0 0
          0 0 0 0 0 0
          0 0 0 0 0 0
          0 0 0 0 0 0
          0 0 0 0 0 0
          0 0 0 0 0 0
          0 0 0 0 0 0
          0 0 0 0 0 0
          0 0 0 0 0 0
          0 0 0 0 0 0
          0 0 0 0 0 0
          0 0 0 0 0 0
          0 0 0 0 0 0
          0 0 0 0 0 0
          0 0 0 0 0 0
          0 0 0 0 0 0
          0 0 0 0 0 0
          0 0 0 0 0 0
          0 0 0 0 0 0
          0 0 0 0 0 0
          0 0 0 0 0 0
          0 0 0 0 0 0
          0 0 0 0 0 0
          0 0 0 0 0 0
          0 0 0 0 0 0
          0 0 0 0 0 0
          0 0 0 0 0 0
          0 0 0 0 0 0
          0 0 0 0 0 0
          0 0 0 0 0 0
          0 0 0 0 0 0
          0 0 0 0 0 0
          0 0 0
          <InformationKey name="L2_NORM_RANGE" location="vtkDataArray" length="2">
            <Value index="0">
              0
            </Value>
            <Value index="1">
              0
            </Value>
          </InformationKey>
        </DataArray>
        <DataArray type="Float64" Name="sld_FIXNO" NumberOfComponents="3" format="ascii" RangeMin="1.4142135623730951" RangeMax="1.4142135623730951">
          -1 -1 0 -1 -1 0
          -1 -1 0 -1 -1 0
          -1 -1 0 -1 -1 0
          -1 -1 0 -1 -1 0
          -1 -1 0 -1 -1 0
          -1 -1 0 -1 -1 0
          -1 -1 0 -1 -1 0
          -1 -1 0 -1 -1 0
          -1 -1 0 -1 -1 0
          -1 -1 0 -1 -1 0
          -1 -1 0 -1 -1 0
          -1 -1 0 -1 -1 0
          -1 -1 0 -1 -1 0
          -1 -1 0 -1 -1 0
          -1 -1 0 -1 -1 0
          -1 -1 0 -1 -1 0
          -1 -1 0 -1 -1 0
          -1 -1 0 -1 -1 0
          -1 -1 0 -1 -1 0
          -1 -1 0 -1 -1 0
          -1 -1 0 -1 -1 0
          -1 -1 0 -1 -1 0
          -1 -1 0 -1 -1 0
          -1 -1 0 -1 -1 0
          -1 -1 0 -1 -1 0
          -1 -1 0 -1 -1 0
          -1 -1 0 -1 -1 0
          -1 -1 0 -1 -1 0
          -1 -1 0 -1 -1 0
          -1 -1 0 -1 -1 0
          -1 -1 0 -1 -1 0
          -1 -1 0 -1 -1 0
          -1 -1 0 -1 -1 0
          -1 -1 0 -1 -1 0
          -1 -1 0 -1 -1 0
          -1 -1 0 -1 -1 0
          -1 -1 0 -1 -1 0
          -1 -1 0 -1 -1 0
          -1 -1 0 -1 -1 0
          -1 -1 0 -1 -1 0
          -1 -1 0 -1 -1 0
          -1 -1 0 -1 -1 0
          -1 -1 0 -1 -1 0
          -1 -1 0
          <InformationKey name="L2_NORM_RANGE" location="vtkDataArray" length="2">
            <Value index="0">
              1.4142135624
            </Value>
            <Value index="1">
              1.4142135624
            </Value>
          </InformationKey>
        </DataArray>
        <DataArray type="Float64" Name="Disp" NumberOfComponents="3" format="ascii" RangeMin="0.00000925997141954713" RangeMax="0.000032313867373064134">
          0.000028396835582430403 -0.000008808927543098268 0 0.0000275532192610663 -0.000008054647527616602 0
          0.000026768299390064137 -0.00000726756935442298 0 0.00002604158542596901 -0.000006448229177387013 0
          0.00002536950121767668 -0.0000055941901850388644 0 0.000024748088367835474 -0.000004699129510156649 0
          0.000026067977071318137 -0.000007441695347950203 0 0.000025127533170629078 -0.000006707194689693829 0
          0.000024253907993711075 -0.000005942261849282388 0 0.000023439407330671485 -0.000005150403881458361 0
          0.000022671023088329297 -0.000004329763778881977 0 0.000021934599242671177 -0.000003472952742914895 0
          0.000023739804379018326 -0.0000058521495565437986 0 0.000022708449452557007 -0.00000514183168539978 0
          0.000021759503619624315 -0.0000044095400982139235 0 0.00002086992130965792 -0.000003654977094007984 0
          0.000020021399937553517 -0.0000028756382389004943 0 0.000019187786045982543 -0.0000020689689178665857 0
          0.00002141054407570929 -0.000004032645328879024 0 0.000020321031813973392 -0.0000033781980180272587 0
          0.00001931024761096639 -0.000002705677494468482 0 0.000018354746504680646 -0.000002009389885492759 0
          0.00001743708799822948 -0.0000012854089721588258 0 0.000016541229986892283 -5.333752944672134e-7 0
          0.000019111616864073775 -0.0000021046282288359627 0 0.000017995509518531987 -0.0000015148572377719806 0
          0.000016939288612090862 -9.16594595207403e-7 0 0.00001592998711783382 -3.0272643065782837e-7 0
          0.000014955315768271365 3.3028864837404207e-7 0 0.000014011573057258242 9.834248319807949e-7 0
          0.000016877938000887257 -9.801640332571387e-8 0 0.000015750322646207525 4.173796076031921e-7 0
          0.000014668984953165085 9.346365137988003e-7 0 0.000013625586600406146 0.000001457812841580762 0
          0.00001261021775566865 0.0000019911084374475094 0 0.0000116147782824626 0.0000025414669745491696 0
          0.000014731354388695408 0.000001982510086611368 0 0.000013598652736767677 0.000002419878669650399 0
          0.000012509895039997548 0.0000028534964773815923 0 0.00001145400095790049 0.000003282600973329693 0
          0.000010413844055244294 0.0000037117057138566436 0 0.000009372137854067574 0.00000415054044418667 0
          0.000012674977829379703 0.000004142889672821982 0 0.000011544826171916991 0.000004501840538747464 0
          0.00001047247675721491 0.000004844984549238605 0 0.000009429472935575145 0.000005171431665126124 0
          0.000008388386295852477 0.000005486631428391952 0 0.000007319687390765707 0.000005800681992502116 0
          0.000010701313115469775 0.000006401342199610016 0 0.000009606997952459565 0.000006656240176809655 0
          0.000008579755370692635 0.000006885477837244119 0 0.000007577746242584399 0.000007090059258899728 0
          0.000006564943556454315 0.000007274532910836982 0 0.000005504652966659404 0.000007446198117662294 0
          0.000008809015228875002 0.000008620394360714432 0 0.000007802492970424548 0.00000877272225542457 0
          0.0000068561459110478714 0.000008881693059825957 0 0.000005928014662483253 0.000008952533991141856 0
          0.000004978548473520601 0.00000899002655344021 0 0.000003970228984353658 0.000008999061223221921 0
          0.000007005673635901041 0.000010708977294864909 0 0.000006136244761330022 0.000010754019823961848 0
          0.000005313951161382111 0.000010740164750029248 0 0.000004499685258494219 0.000010673092917880825 0
          0.000003653859232263341 0.00001055761264087213 0 0.0000027380550825795446 0.00001039948013977215 0
          0.000005308707214185877 0.000012573574627146452 0 0.000004616769677808913 0.000012508237500986964 0
          0.0000039599881530133805 0.000012370623787845227 0 0.00000330132256674458 0.000012165329761692507 0
          0.00000260246174292583 0.000011896231928586571 0 0.0000018214918758860334 0.000011565798103151657 0
          0.000003728868289769503 0.000014123600679588869 0 0.0000032523097926954735 0.000013946923805796552 0
          0.000029985787158061425 -0.00000919683934610293 0 0.000030736155883801844 -0.000009973702727202782 0
          0.00002929441971319351 -0.000008387218447913898 0 0.0000286643835254373 -0.000007542884649142251 0
          0.000028097153739495847 -0.000006660766063640515 0 0.0000020581022692910425 0.000014973505386203288 0
          0.0000022737675848464962 0.000015271064233776677 0 0.0000018368062622129 0.000014583579263385152 0
          0.0000027994019891750272 0.000013684205699444123 0 0.0000023327450900805164 0.00001334374257844487 0
          0.0000018206873257452707 0.000012929450752620956 0 0.0000012291770405764908 0.000012439494408837906 0
          0.00002759489800154408 -0.000005735977999406396 0
          <InformationKey name="L2_NORM_RANGE" location="vtkDataArray" length="2">
            <Value index="0">
              9.2599714195e-06
            </Value>
            <Value index="1">
              3.2313867373e-05
            </Value>
          </InformationKey>
        </DataArray>
        <DataArray type="Float64" Name="Sld_traction" NumberOfComponents="3" format="ascii" RangeMin="0" RangeMax="614.7241785081011">
          15.417708001889594 98.85620274463948 0 0 0 0
          0 0 0 0 0 0
          0 0 0 2.925961629651435 -135.9082034044131 0
          12.210914450829437 113.0311888660469 0 0 0 0
          0 0 0 0 0 0
          0 0 0 1.896246822562681 -150.80055012702243 0
          6.927732708941065 134.66505059118043 0 0 0 0
          0 0 0 0 0 0
          0 0 0 1.1131976109293094 -163.7347568787141 0
          2.186903277051274 169.56303851469747 0 0 0 0
          0 0 0 0 0 0
          0 0 0 -3.0807436714575394 -178.77409370043947 0
          -0.795595448660178 204.5799704018716 0 0 0 0
          0 0 0 0 0 0
          0 0 0 -8.647178459405806 -212.33934538554982 0
          -4.596264684301158 237.91631823123066 0 0 0 0
          0 0 0 0 0 0
          0 0 0 -11.636082151299147 -249.16690092882124 0
          -9.450176170941536 270.78388145418427 0 0 0 0
          0 0 0 0 0 0
          0 0 0 -13.856035399291315 -284.34513103828925 0
          -16.624966115422655 308.1282721321316 0 0 0 0
          0 0 0 0 0 0
          0 0 0 -15.598159533305331 -317.58393986852917 0
          -23.568650572232528 359.3945663282991 0 0 0 0
          0 0 0 0 0 0
          0 0 0 -17.837367772600118 -350.92141482086623 0
          -28.43301375567768 412.80116860144335 0 0 0 0
          0 0 0 0 0 0
          0 0 0 -20.1231531986596 -387.89860983865447 0
          -32.76510994997541 465.18577590079167 0 0 0 0
          0 0 0 0 0 0
          0 0 0 -22.274097931978798 -425.3156012723099 0
          -35.73606310114176 515.8089711491034 0 0 0 0
          0 0 0 0 0 0
          0 0 0 -23.902473323148453 -461.1276894333357 0
          -37.306947195166 565.8781314007633 0 0 0 0
          0 0 0 17.794467373025405 85.69731386398749 0
          0 0 0 0 0 0
          0 0 0 0 0 0
          -36.16355226292627 613.6595254130634 0 0 0 0
          0 0 0 0 0 0
          0 0 0 -24.962414233233666 -492.5485738176704 0
          4.479922932367493 -119.51708220786442 0
          <InformationKey name="L2_NORM_RANGE" location="vtkDataArray" length="2">
            <Value index="0">
              0
            </Value>
            <Value index="1">
              614.72417851
            </Value>
          </InformationKey>
        </DataArray>
        <DataArray type="Float64" Name="Fld_traction" NumberOfComponents="3" format="ascii" RangeMin="0" RangeMax="577.8126982077032">
          18.96967872936306 111.3684400717001 0 0 0 0
          0 0 0 0 0 0
          0 0 0 5.898129434765461 -119.1332981193295 0
          16.63541086451675 125.02459979358765 0 0 0 0
          0 0 0 0 0 0
          0 0 0 3.0947774648883213 -135.72986523465931 0
          13.61539600409504 143.2960125544642 0 0 0 0
          0 0 0 0 0 0
          0 0 0 0.29142549501118165 -152.32643234998906 0
          8.62391057655151 174.83592752518507 0 0 0 0
          0 0 0 0 0 0
          0 0 0 -2.511926474865981 -168.92299946531898 0
          3.6324251490080144 206.37584249590574 0 0 0 0
          0 0 0 0 0 0
          0 0 0 -6.553327501420459 -204.32310825863192 0
          -1.3590602785355204 237.91575746662662 0 0 0 0
          0 0 0 0 0 0
          0 0 0 -10.710093154016842 -241.4753798941553 0
          -6.3505457060790125 269.45567243734723 0 0 0 0
          0 0 0 0 0 0
          0 0 0 -14.866858806613202 -278.6276515296785 0
          -11.406239372622009 303.02730415168276 0 0 0 0
          0 0 0 0 0 0
          0 0 0 -19.023624459209586 -315.7799231652018 0
          -16.86599269900616 349.3844411081946 0 0 0 0
          0 0 0 0 0 0
          0 0 0 -22.88444704561184 -354.3222575508293 0
          -22.32574602539031 395.74157806470646 0 0 0 0
          0 0 0 0 0 0
          0 0 0 -25.77686294571562 -397.41325759329186 0
          -27.785499351774504 442.09871502121865 0 0 0 0
          0 0 0 0 0 0
          0 0 0 -28.669278845819424 -440.5042576357548 0
          -31.650936510654354 487.63831699713444 0 0 0 0
          0 0 0 0 0 0
          0 0 0 -31.561735947255077 -483.5958714926392 0
          -33.572755034608996 532.1798915474528 0 0 0 0
          0 0 0 21.303946594209393 97.71228034981243 0
          0 0 0 0 0 0
          0 0 0 0 0 0
          -35.49457355856361 576.7214660977706 0 0 0 0
          0 0 0 0 0 0
          0 0 0 -31.913264800844495 -521.4771439564406 0
          8.701481404642623 -102.5367310039996 0
          <InformationKey name="L2_NORM_RANGE" location="vtkDataArray" length="2">
            <Value index="0">
              0
            </Value>
            <Value index="1">
              577.81269821
            </Value>
          </InformationKey>
        </DataArray>
        <DataArray type="Float64" Name="Velocity" NumberOfComponents="3" format="ascii" RangeMin="0.00037039885678188516" RangeMax="0.0012925546949225657">
          0.0011358734232972162 -0.00035235710172393074 0 0.0011021287704426521 -0.0003221859011046641 0
          0.0010707319756025656 -0.00029070277417691924 0 0.0010416634170387605 -0.0002579291670954805 0
          0.0010147800487070673 -0.0002237676074015546 0 0.000989923534713419 -0.00018796518040626597 0
          0.0010427190828527254 -0.0002976678139180081 0 0.0010051013268251633 -0.0002682877875877532 0
          0.000970156319748443 -0.00023769047397129552 0 0.0009375762932268593 -0.00020601615525833443 0
          0.0009068409235331719 -0.0001731905511552791 0 0.0008773839697068472 -0.0001389181097165958 0
          0.0009495921751607331 -0.00023408598226175195 0 0.0009083379781022803 -0.00020567326741599123 0
          0.0008703801447849727 -0.00017638160392855696 0 0.000834796852386317 -0.00014619908376031936 0
          0.0008008559975021408 -0.0001150255295560198 0 0.0007675114418393018 -0.00008275875671466343 0
          0.0008564217630283717 -0.00016130581315516098 0 0.0008128412725589358 -0.00013512792072109035 0
          0.0007724099044386557 -0.00010822709977873929 0 0.0007341898601872258 -0.00008037559541971038 0
          0.0006974835199291793 -0.00005141635888635303 0 0.0006616491994756913 -0.000021335011778688537 0
          0.000764464674562951 -0.00008418512915343851 0 0.0007198203807412796 -0.00006059428951087923 0
          0.0006775715444836345 -0.000036663783808296125 0 0.0006371994847133528 -0.000012109057226313136 0
          0.0005982126307308546 0.000013211545934961684 0 0.0005604629222903298 0.0000393369932792318 0
          0.0006751175200354903 -0.000003920656133028555 0 0.000630012905848301 0.000016695184304127686 0
          0.0005867593981266035 0.00003738546055195201 0 0.0005450234640162458 0.000058312513663230474 0
          0.000504408710226746 0.00007964433749790038 0 0.000464591131298504 0.0001016586789819668 0
          0.0005892541755478163 0.00007930040346445473 0 0.0005439461094707071 0.00009679514678601596 0
          0.000500395801599902 0.0001141398590952637 0 0.0004581600383160196 0.00013130403893318773 0
          0.00041655376220977176 0.00014846822855426575 0 0.00037488551416270296 0.00016602161776746682 0
          0.0005069991131751881 0.0001657155869128793 0 0.0004617930468766797 0.00018007362154989857 0
          0.0004188990702885964 0.00019379938196954422 0 0.00037717891742300577 0.00020685726660504497 0
          0.0003355354518340991 0.0002194652571356781 0 0.0002927874956306283 0.00023202727970008465 0
          0.000428052524618791 0.00025605368798440063 0 0.00038427991809838265 0.0002662496070723862 0
          0.00034319021482770543 0.00027541911348976473 0 0.000303109849703376 0.00028360237035598914 0
          0.0002625977422581726 0.00029098131643347924 0 0.00022018611866637616 0.0002978479247064918 0
          0.00035236060915500006 0.0003448157744285773 0 0.00031209971881698194 0.0003509088902169828 0
          0.00027424583644191486 0.0003552677223930383 0 0.00023712058649933015 0.00035810135964567424 0
          0.00019914193894082405 0.0003596010621376084 0 0.00015880915937414633 0.00035996244892887684 0
          0.00028022694543604164 0.00042835909179459635 0 0.0002454497904532009 0.0004301607929584739 0
          0.00021255804645528445 0.0004296065900011699 0 0.00017998741033976878 0.00042692371671523307 0
          0.00014615436929053366 0.00042230450563488517 0 0.00010952220330318178 0.000415979205590886 0
          0.00021234828856743506 0.0005029429850858581 0 0.00018467078711235653 0.0005003295000394786 0
          0.00015839952612053523 0.0004948249515138091 0 0.0001320529026697832 0.0004866131904677003 0
          0.00010409846971703319 0.0004758492771434629 0 0.00007285967503544134 0.0004626319241260663 0
          0.00014915473159078012 0.0005649440271835547 0 0.00013009239170781896 0.0005578769522318621 0
          0.001199431486322457 -0.00036787357384411725 0 0.001229446235352074 -0.0003989481090881113 0
          0.0011717767885277405 -0.00033548873791655593 0 0.001146575341017492 -0.00030171538596569005 0
          0.001123886149579834 -0.0002664306425456206 0 0.00008232409077164172 0.0005989402154481316 0
          0.00009095070339385986 0.0006108425693510671 0 0.000073472250488516 0.0005833431705354061 0
          0.00011197607956700109 0.0005473682279777649 0 0.00009330980360322067 0.0005337497031377949 0
          0.00007282749302981084 0.0005171780301048383 0 0.00004916708162305963 0.0004975797763535163 0
          0.0011037959200617632 -0.00022943911997625588 0
          <InformationKey name="L2_NORM_RANGE" location="vtkDataArray" length="2">
            <Value index="0">
              0.00037039885678
            </Value>
            <Value index="1">
              0.0012925546949
            </Value>
          </InformationKey>
        </DataArray>
      </PointData>
      <CellData>
        <DataArray type="UInt8" Name="vtkGhostType" format="ascii" RangeMin="0" RangeMax="1">
          1 1 1 1 0 0
          0 0 0 0 0 0
          0 0 0 0 0 0
          0 0 0 0 0 0
          0 0 0 0 0 0
          0 0 0 0 0 0
          0 0 0 0 0 0
          0 0 0 0 0 0
          0 0 0 0 0 0
          0 0 0 0 0 0
          0 0 0 0 0 0
          1
        </DataArray>
        <DataArray type="Float64" Name="Gauss Stress" NumberOfComponents="6" format="ascii" RangeMin="645.6299096653709" RangeMax="881.9241450346958">
          636.7157316187017 105.4874633162851 0 17.419886534408523 0 0
          660.2166984476905 107.49480710390092 0 11.671707141341297 0 0
          684.0951941328503 109.45793473330855 0 5.894643279343231 0 0
          709.0103970224245 110.96417447730957 0 0.44617667402378913 0 0
          684.4733261301452 555.0851414090512 0 -34.16063814404865 0 0
          623.8643634445594 551.8450069247239 0 -26.449330810201104 0 0
          689.4933733569976 510.0766192435355 0 -33.413681742214195 0 0
          639.5052393252511 509.72966610270873 0 -28.66444004176261 0 0
          591.2890548552222 507.87811812276436 0 -18.415677284725525 0 0
          544.7727252738505 505.536020515897 0 -3.0798613313300245 0 0
          498.643527940323 503.3194130615659 0 17.870429809891668 0 0
          692.2508294025251 465.7464987784076 0 -31.30629187630511 0 0
          651.7622864392848 466.0764511358186 0 -28.10620514554912 0 0
          613.3852568255157 465.6728287025169 0 -19.15709284654251 0 0
          576.8026938376194 464.65576481366645 0 -4.277349333929843 0 0
          542.6029016512681 463.51284061870183 0 16.835605943425463 0 0
          691.9796815066463 420.2383385293411 0 -27.720229573174716 0 0
          661.7416870578926 421.3761010685756 0 -26.226861045768786 0 0
          633.7452262499023 421.7354228135105 0 -18.577996218968323 0 0
          607.7174543296371 421.4089199870052 0 -4.910936974828804 0 0
          583.5931855758013 420.13261294959034 0 14.542628005397722 0 0
          688.0991697670675 373.9449310444809 0 -23.135050174739376 0 0
          669.2984139267544 375.78243313432654 0 -23.147232039768795 0 0
          651.9203762945386 377.26986841968863 0 -16.813751344692406 0 0
          635.9672259014558 377.76319252485376 0 -4.806887257136232 0 0
          621.6517066301949 376.8080638295857 0 12.865613972613286 0 0
          682.3338433752801 327.06089985636726 0 -18.169980077868825 0 0
          675.3874927749248 331.0612226618829 0 -18.208496872532656 0 0
          667.3187203427761 334.2895939708692 0 -13.220443200526518 0 0
          660.3503115602028 336.1685623267085 0 -3.668892315911045 0 0
          655.999062661374 336.1673770937764 0 10.75072222370401 0 0
          679.1704587914627 286.93289915598484 0 -9.704328722387162 0 0
          679.9913130323578 291.5485170004446 0 -10.045985665610425 0 0
          679.0207581472673 295.3137858451227 0 -7.053925950898222 0 0
          679.2671710655176 297.8142655866977 0 -0.44386730892319193 0 0
          683.0798389788359 298.5608358210075 0 9.878685533744372 0 0
          680.2287568799079 255.0406289297467 0 -4.19349033585088 0 0
          683.3559289109496 257.5134365702338 0 -4.072826800420398 0 0
          687.243743767843 259.80634502089686 0 -2.1675540183228135 0 0
          692.6655230740652 261.30614048579616 0 2.158646898621657 0 0
          701.1346882493627 261.36344846804246 0 8.692059536659697 0 0
          680.7070789000969 223.6041171765679 0 -0.09982345944833448 0 0
          685.9244867430484 224.92016743127652 0 -1.1993782215791877 0 0
          693.1760862793404 225.26430962333217 0 -0.3869675919036962 0 0
          701.8224456770383 224.92511315014963 0 2.478772165215572 0 0
          712.2496912111178 224.1234095538793 0 6.512150864832512 0 0
          677.0381983827714 192.18414419332555 0 2.768813637953622 0 0
          685.7633327805553 192.46152267695277 0 -0.9444062518599289 0 0
          697.1012581071975 191.8118699894618 0 -1.751003007717399 0 0
          709.0477698068848 190.0118274898727 0 -0.10510393499244813 0 0
          719.3991595853225 186.87038428720615 0 3.361414927732862 0 0
          666.5918013423499 160.09928726783005 0 4.886921711835752 0 0
          682.1903607480822 162.15062366061719 0 -1.0635554606797064 0 0
          697.9539168662056 163.06362235528195 0 -4.023684491337258 0 0
          713.6726575908685 162.60718353350256 0 -4.907839617435511 0 0
          727.8821206551137 160.53771249071897 0 -3.2852617701054303 0 0
          653.085963835961 134.40530301309497 0 10.824376384029854 0 0
          675.4748466826463 138.41031085150289 0 3.5226759870162736 0 0
          695.2875773362475 141.366171583741 0 -1.3910376316566746 0 0
          715.0412129266493 143.37369964702833 0 -4.040006113718049 0 0
          737.0337610867047 144.80175446935672 0 -3.713132252371772 0 0
          643.6251644492061 118.92826283897958 0 14.773959823279613 0 0
          667.4348186857497 121.62576706029832 0 8.423075791068825 0 0
          690.3244454517494 124.55200382945385 0 2.858257783744266 0 0
          713.7636067353477 126.94959927345315 0 -1.2694829212813294 0 0
          739.590514661358 128.0818170752897 0 -3.882103651698025 0 0
          735.9248997857097 111.46787593421439 0 -4.721769984268727 0 0
          <InformationKey name="L2_NORM_RANGE" location="vtkDataArray" length="2">
            <Value index="0">
              645.62990967
            </Value>
            <Value index="1">
              881.92414503
            </Value>
          </InformationKey>
        </DataArray>
        <DataArray type="Float64" Name="Gauss Strain" NumberOfComponents="6" format="ascii" RangeMin="0.00014618297459965114" RangeMax="0.0004575151929155606">
          0.00033971440063919334 -0.00019143501014026731 0 0.000034834587581841525 0 0
          0.00035300255907369515 -0.00019963446564452703 0 0.000023339816025055923 0 0
          0.0003665342712322467 -0.0002080117877865106 0 0.000011787399073464196 0 0
          0.0003808696047385707 -0.00021707854175895267 0 8.921867160338345e-7 0 0
          0.00018863962084594843 0.00005928355482512358 0 -0.00006830411968879772 0 0
          0.00015358070063499485 0.0000815782868352072 0 -0.00005288601866483923 0 0
          0.00020964427219119505 0.000030270579991775737 0 -0.00006681116405383353 0 0
          0.00017980081041756024 0.0000500550569594721 0 -0.000057315526273216035 0 0
          0.0001516201244169263 0.00006822749292680065 0 -0.0000368230781799813 0 0
          0.0001246534029885754 0.00008542489027084377 0 -0.000006158241616876724 0 0
          0.00009786641123016303 0.00010254128744620337 0 0.000035733905252658396 0 0
          0.0002290197710492492 0.0000025678921141691897 0 -0.00006259794665449465 0 0
          0.0002046046958842085 0.000018960343506443933 0 -0.000056199700878937104 0 0
          0.00018174838230095025 0.000034067776086763035 0 -0.000038305768137889673 0 0
          0.00016021249602889145 0.00004808884171812744 0 -0.000008552760995658555 0 0
          0.0001401545303008067 0.00006108026139445277 0 0.00003366459612870649 0 0
          0.00024704904523475957 -0.000024631875503611234 0 -0.00005542802470291018 0 0
          0.00022845975209261069 -0.000011853814537249319 0 -0.000052442253665272805 0 0
          0.0002115256024514539 -4.3952086284382297e-7 0 -0.00003714804019477121 0 0
          0.0001960457731258608 0.000009775484604929163 0 -0.000009819742919399724 0 0
          0.00018208627320817627 0.00001865838564325817 0 0.00002907952352876434 0 0
          0.00026322694037632377 -0.00005086060847203644 0 -0.0000462602097232428 0 0
          0.00025121766002310364 -0.00004223703290445746 0 -0.0000462847203149772 0 0
          0.0002402015345189245 -0.00003439252119430414 0 -0.00003362051244072196 0 0
          0.0002304371034370922 -0.000027714683275253952 0 -0.000009611761087474068 0 0
          0.0002222331818520773 -0.00002256169838085742 0 0.00002572614763765249 0 0
          0.0002785099945894487 -0.00007669127975215573 0 -0.000036332598051245866 0 0
          0.00027274551079042864 -0.000071511512650807 0 -0.00003640962780638906 0 0
          0.0002666166064053399 -0.00006634587988688101 0 -0.00002643555515220408 0 0
          0.0002616868869645128 -0.0000624303375205415 0 -0.000007336296661418692 0 0
          0.00025907783982619115 -0.00006069048419185541 0 0.00002149718596660357 0 0
          0.0002926524378139006 -0.00009950936562194698 0 -0.000019404905927928993 0 0
          0.00029129982596377835 -0.00009706753472199514 0 -0.000020088057072268364 0 0
          0.0002892129440498076 -0.00009441931089057554 0 -0.000014105093626379446 0 0
          0.0002883613386785999 -0.00009301709197861996 0 -8.875618816686185e-7 0 0
          0.0002903490888535448 -0.0000940945020360684 0 0.000019753468884733055 0 0
          0.00030603399623770067 -0.00011907463202756596 0 -0.000008385414632101718 0 0
          0.0003069207963330711 -0.00011884160160957614 0 -0.00000814412512106657 0 0
          0.00030833560974678764 -0.00011902087557535967 0 -0.000004334295056173806 0 0
          0.0003109871862359004 -0.00012028995267118758 0 0.0000043164522775646395 0 0
          0.0003160424311251103 -0.00012364421601424036 0 0.000017380737118610568 0 0
          0.0003188851428545247 -0.00013813517835994937 0 -1.9961672043695258e-7 0 0
          0.0003214875326770089 -0.00013943284275924617 0 -0.000002398333522335384 0 0
          0.0003256980404420101 -0.0001421278312014329 0 -7.738143628696025e-7 0 0
          0.000331017883840809 -0.00014579110928455985 0 0.000004956597497694584 0 0
          0.0003375902503804651 -0.00015044467290459274 0 0.000013021826081962443 0 0
          0.0003292426442126073 -0.00015552714691197123 0 0.0000055366527855978045 0 0
          0.0003343632493006676 -0.00015885194597053953 0 -0.0000018885040429955446 0 0
          0.00034142083078854413 -0.00016377876265946667 0 -0.0000035014140549879144 0 0
          0.00034930293321645817 -0.0001696397251295667 0 -2.1020585276340778e-7 0 0
          0.0003567645872468578 -0.00017566772030494504 0 0.000006721578748458939 0 0
          0.0003358019827784386 -0.0001706068067311439 0 0.000009772205161840588 0 0
          0.0003443346379712192 -0.00017561730122422903 0 -0.0000021267772516643274 0 0
          0.00035342093543341835 -0.00018137726840333768 0 -0.000008046009832840075 0 0
          0.00036302745437603867 -0.00018794146002532042 0 -0.000009813985558680293 0 0
          0.000372373534425513 -0.00019487008583762844 0 -0.0000065693796517407415 0 0
          0.00033797271696185677 -0.00018062625047812753 0 0.000021645328326210417 0 0
          0.0003497958284886249 -0.00018718129133912798 0 0.0000070441883193072094 0 0
          0.00036049328756815324 -0.00019333543861510535 0 -0.000002781629108705354 0 0
          0.0003715340144714307 -0.00020003536320797877 0 -0.000008078648028813446 0 0
          0.00038414831323529963 -0.0002079792536856251 0 -0.000007424988542842443 0 0
          0.0003384855714564372 -0.00018613130407754694 0 0.00002954340059880702 0 0
          0.000351683036998729 -0.00019403987944482948 0 0.00001684347983582686 0 0
          0.00036423703446979155 -0.00020144320324194667 0 0.000005715567394014239 0 0
          0.0003773313352695567 -0.00020938400745187935 0 -0.0000025385611822356142 0 0
          0.0003923623357704742 -0.00021904024476224193 0 -0.000007762890492162786 0 0
          0.0003968035957594984 -0.00022754759381971024 0 -0.000009441964189477896 0 0
          <InformationKey name="L2_NORM_RANGE" location="vtkDataArray" length="2">
            <Value index="0">
              0.0001461829746
            </Value>
            <Value index="1">
              0.00045751519292
            </Value>
          </InformationKey>