<?xml version="1.0"?>
<VTKFile type="UnstructuredGrid" version="0.1" byte_order="LittleEndian" header_type="UInt32" compressor="vtkZLibDataCompressor">
  <UnstructuredGrid>
    <Piece NumberOfPoints="83" NumberOfCells="64">
      <PointData>
        <DataArray type="Float64" Name="sld_BC" NumberOfComponents="3" format="ascii" RangeMin="0" RangeMax="0">
          0 0 0 0 0 0
          0 0 0 0 0 0
          0 0 0 0 0 0
          0 0 0 0 0 0
          0 0 0 0 0 0
          0 0 0 0 0 0
          0 0 0 0 0 0
          0 0 0 0 0 0
          0 0 0 0 0 0
          0 0 0 0 0 0
          0 0 0 0 0 0
          0 0 0 0 0 0
          0 0 0 0 0 0
          0 0 0 0 0 0
          0 0 0 0 0 0
          0 0 0 0 0 0
          0 0 0 0 0 0
          0 0 0 0 0 0
          0 0 0 0 0 0
          0 0 0 0 0 0
          0 0 0 0 0 0
          0 0 0 0 0 0
          0 0 0 0 0 0
          0 0 0 0 0 0
          0 0 0 0 0 0
          0 0 0 0 0 0
          0 0 0 0 0 0
          0 0 0 0 0 0
          0 0 0 0 0 0
          0 0 0 0 0 0
          0 0 0 0 0 0
          0 0 0 0 0 0
          0 0 0 0 0 0
          0 0 0 0 0 0
          0 0 0 0 0 0
          0 0 0 0 0 0
          0 0 0 0 0 0
          0 0 0 0 0 0
          0 0 0 0 0 0
          0 0 0 0 0 0
          0 0 0 0 0 0
          0 0 0
          <InformationKey name="L2_NORM_RANGE" location="vtkDataArray" length="2">
            <Value index="0">
              0
            </Value>
            <Value index="1">
              0
            </Value>
          </InformationKey>
        </DataArray>
        <DataArray type="Float64" Name="sld_FIXNO" NumberOfComponents="3" format="ascii" RangeMin="1.4142135623730951" RangeMax="1.4142135623730951">
          -1 -1 0 -1 -1 0
          -1 -1 0 -1 -1 0
          -1 -1 0 -1 -1 0
          -1 -1 0 -1 -1 0
          -1 -1 0 -1 -1 0
          -1 -1 0 -1 -1 0
          -1 -1 0 -1 -1 0
          -1 -1 0 -1 -1 0
          -1 -1 0 -1 -1 0
          -1 -1 0 -1 -1 0
          -1 -1 0 -1 -1 0
          -1 -1 0 -1 -1 0
          -1 -1 0 -1 -1 0
          -1 -1 0 -1 -1 0
          -1 -1 0 -1 -1 0
          -1 -1 0 -1 -1 0
          -1 -1 0 -1 -1 0
          -1 -1 0 -1 -1 0
          -1 -1 0 -1 -1 0
          -1 -1 0 -1 -1 0
          -1 -1 0 -1 -1 0
          -1 -1 0 -1 -1 0
          -1 -1 0 -1 -1 0
          -1 -1 0 -1 -1 0
          -1 -1 0 -1 -1 0
          -1 -1 0 -1 -1 0
          -1 -1 0 -1 -1 0
          -1 -1 0 -1 -1 0
          -1 -1 0 -1 -1 0
          -1 -1 0 -1 -1 0
          -1 -1 0 -1 -1 0
          -1 -1 0 -1 -1 0
          -1 -1 0 -1 -1 0
          -1 -1 0 -1 -1 0
          -1 -1 0 -1 -1 0
          1 1 0 1 1 0
          1 1 0 1 1 0
          1 1 0 1 1 0
          -1 -1 0 -1 -1 0
          -1 -1 0 -1 -1 0
          -1 -1 0 -1 -1 0
          -1 -1 0
          <InformationKey name="L2_NORM_RANGE" location="vtkDataArray" length="2">
            <Value index="0">
              1.4142135624
            </Value>
            <Value index="1">
              1.4142135624
            </Value>
          </InformationKey>
        </DataArray>
        <DataArray type="Float64" Name="Disp" NumberOfComponents="3" format="ascii" RangeMin="0" RangeMax="0.000015961452589995644">
          0.0000027994019891750272 0.000013684205699444123 0 0.0000023327450900805164 0.00001334374257844487 0
          0.0000018206873257452707 0.000012929450752620956 0 0.0000012291770405764908 0.000012439494408837906 0
          0.0000022737675848464962 0.000015271064233776677 0 0.0000020581022692910425 0.000014973505386203288 0
          0.0000018368062622129 0.000014583579263385152 0 0.0000015890777267001814 0.000014110722846772394 0
          0.0000012941461913748413 0.000013556894592327637 0 9.33615793783391e-7 0.000012918026789036273 0
          9.739409615354848e-7 0.000015887714917054436 0 0.0000010379325208363723 0.00001548327574169676 0
          0.0000010669164737935448 0.00001498158683422144 0 0.0000010564321854914173 0.00001439154845635128 0
          0.0000010004002666643924 0.000013714550341619357 0 8.908533564222976e-7 0.000012944678946849527 0
          -1.5382690249846923e-7 0.000015960711327091484 0 1.9025198423034468e-7 0.00001545144095710016 0
          4.7398931032419636e-7 0.00001484855973997736 0 7.057996314591932e-7 0.000014160424093664163 0
          8.943479244844095e-7 0.00001338830764589681 0 0.0000010471457034022004 0.000012526272150990017 0
          -0.000001094502410538324 0.000015474668857152587 0 -4.81621180392507e-7 0.000014867187652438596 0
          4.316820824656594e-8 0.000014174403702904614 0 5.055981092263697e-7 0.000013404092018168912 0
          9.297774800217379e-7 0.000012555427630500495 0 0.0000013384262238388516 0.000011619523445952675 0
          -0.0000018294224751925608 0.000014456344751102652 0 -9.794472585217363e-7 0.000013758498407064522 0
          -2.4328860118751246e-7 0.000012990445708373142 0 4.2182149817815007e-7 0.000012159313021701839 0
          0.0000010569583832271545 0.00001126384706087295 0 0.0000017002949857736119 0.000010294528692154482 0
          -0.000002341858024034279 0.000012978169449048206 0 -0.000001303903541249275 0.000012194913017878471 0
          -4.0428762194372533e-7 0.000011362418350413879 0 4.1796418756743e-7 0.000010486993011084223 0
          0.0000012205366256880527 0.00000956620002799565 0 0.000002059594004069998 0.000008589336815909228 0
          -0.000002604484856584469 0.000011164624884782785 0 -0.000001449792567666257 0.000010292532284775493 0
          -4.52672324460209e-7 0.000009400358524522302 0 4.6324970321710477e-7 0.000008492292465302369 0
          0.000001372238299485783 0.000007565913408352463 0 0.0000023465514634269693 0.000006609606387912066 0
          -0.0000025901129164775998 0.000009164952229063321 0 -0.0000014056578979743547 0.000008199988078677252 0
          -3.932357539925837e-7 0.000007246582420337374 0 5.334671326118099e-7 0.00000631150622222721 0
          0.0000014631742774021867 0.000005394365486015764 0 0.000002489002426595774 0.0000044881879542180515 0
          -0.0000022797821360203976 0.000007157222069541494 0 -0.0000011608316020503246 0.000006094203032655664 0
          -2.126755526904832e-7 0.000005073693033637341 0 6.241996210667966e-7 0.0000040972118200231736 0
          0.0000014477510559577558 0.0000031973751504242372 0 0.0000024036877818332233 0.000002367734488130835 0
          -0.0000017455364742944414 0.00000526147921283998 0 -7.058293819716718e-7 0.000004144455583078458 0
          1.2073961216437625e-7 0.0000030370267086756136 0 7.324727134915097e-7 0.000002047506266794643 0
          0.000001282938348631424 0.000001177467008393489 0 0.000001974031764962431 4.669270572768372e-7 0
          -9.800635888397207e-7 0.0000035602015230378314 0 2.415204226143816e-8 0.0000022317904283203495 0
          4.1611909892599384e-7 0.0000012691167188461323 0 6.982728302364345e-7 4.962566198518711e-7 0
          9.477603947814295e-7 -1.8424245734417652e-7 0 0.0000011219345318009813 -8.097461749630062e-7 0
          0 0 0 0 0 0
          0 0 0 0 0 0
          0 0 0 0 0 0
          0.0000032523097926954735 0.000013946923805796552 0 0.000003728868289769503 0.000014123600679588869 0
          0.0000039599881530133805 0.000012370623787845227 0 0.000004616769677808913 0.000012508237500986964 0
          0.00000330132256674458 0.000012165329761692507 0 0.00000260246174292583 0.000011896231928586571 0
          0.0000018214918758860334 0.000011565798103151657 0
          <InformationKey name="L2_NORM_RANGE" location="vtkDataArray" length="2">
            <Value index="0">
              0
            </Value>
            <Value index="1">
              1.596145259e-05
            </Value>
          </InformationKey>
        </DataArray>
        <DataArray type="Float64" Name="Sld_traction" NumberOfComponents="3" format="ascii" RangeMin="0" RangeMax="720.3257728825353">
          0 0 0 0 0 0
          0 0 0 -24.962414233233666 -492.5485738176704 0
          -36.16355226292627 613.6595254130634 0 0 0 0
          0 0 0 0 0 0
          0 0 0 -26.675442766959723 -525.0053448105683 0
          -32.5277620580831 648.6623555085245 0 0 0 0
          0 0 0 0 0 0
          0 0 0 -27.39546524115363 -556.2566506223776 0
          -28.081157308053445 675.560505031419 0 0 0 0
          0 0 0 0 0 0
          0 0 0 -28.18432559635526 -580.3655607140959 0
          -22.44604153661386 693.1415106447283 0 0 0 0
          0 0 0 0 0 0
          0 0 0 -28.763135634082875 -603.7335468732435 0
          -16.434344377687058 700.3339134884507 0 0 0 0
          0 0 0 0 0 0
          0 0 0 -28.203166930982384 -620.9653152353155 0
          -11.18293677091491 698.2284208818755 0 0 0 0
          0 0 0 0 0 0
          0 0 0 -27.47498118380038 -637.0576760216153 0
          -6.8897296621662765 689.9432519122824 0 0 0 0
          0 0 0 0 0 0
          0 0 0 -25.852859946358596 -652.3770391267593 0
          -3.5182904227017304 678.1485894645039 0 0 0 0
          0 0 0 0 0 0
          0 0 0 -25.193184480689233 -668.209595761627 0
          -0.715831258787494 671.4699606333614 0 0 0 0
          0 0 0 0 0 0
          0 0 0 -27.59872445887376 -690.241270467964 0
          -2.9037200277446296 672.2885986816694 0 0 0 0
          0 0 0 0 0 0
          0 0 0 -31.866320024292833 -719.6205644135881 0
          81.91903128295718 555.22373915773 0 0 0 0
          0 0 0 0 0 0
          0 0 0 12.309378426409404 -682.5581572816675 0
          235.01443641034723 -46.86107818724671 0 33.26364242327457 -163.2919328898008 0
          -170.00564701608852 -92.6419862742476 0 -296.04822630875276 -36.440268311981676 0
          -399.59647418694686 12.470211062966229 0 -123.65651588332653 -287.61911180298557 0
          0 0 0 -37.306947195166 565.8781314007633 0
          0 0 0 0 0 0
          0 0 0 0 0 0
          -23.902473323148453 -461.1276894333357 0
          <InformationKey name="L2_NORM_RANGE" location="vtkDataArray" length="2">
            <Value index="0">
              0
            </Value>
            <Value index="1">
              720.32577288
            </Value>
          </InformationKey>
        </DataArray>
        <DataArray type="Float64" Name="Fld_traction" NumberOfComponents="3" format="ascii" RangeMin="0" RangeMax="682.144868702788">
          0 0 0 0 0 0
          0 0 0 -31.913264800844495 -521.4771439564406 0
          -35.49457355856361 576.7214660977706 0 0 0 0
          0 0 0 0 0 0
          0 0 0 -31.695929089382698 -558.1920405212674 0
          -34.61410096348567 610.3774664182242 0 0 0 0
          0 0 0 0 0 0
          0 0 0 -31.272269512534372 -592.2287270134296 0
          -32.315318317366156 638.5240037008382 0 0 0 0
          0 0 0 0 0 0
          0 0 0 -30.06115349247118 -616.043746835808 0
          -29.428299178783867 659.3622296412478 0 0 0 0
          0 0 0 0 0 0
          0 0 0 -28.61028646809869 -638.2505401948896 0
          -25.90231361308419 672.2618702568363 0 0 0 0
          0 0 0 0 0 0
          0 0 0 -25.75599950158204 -651.0433288177815 0
          -23.232547354595518 678.3481671992247 0 0 0 0
          0 0 0 0 0 0
          0 0 0 -22.201664417584986 -660.4690730112263 0
          -20.96455098581458 681.0592232160833 0 0 0 0
          0 0 0 0 0 0
          0 0 0 -17.872551579841033 -665.7032975795661 0
          -18.759801368471265 681.8131836599802 0 0 0 0
          0 0 0 0 0 0
          0 0 0 -13.599357572372504 -666.2627861688072 0
          -13.95660767955471 682.0020784423042 0 0 0 0
          0 0 0 0 0 0
          0 0 0 -10.962482054373174 -664.5381829583081 0
          -9.264663321047422 679.7819804029365 0 0 0 0
          0 0 0 0 0 0
          0 0 0 -8.833201104077661 -662.9262167715683 0
          -4.3990894435042565 675.1470767189472 0 0 0 0
          0 0 0 0 0 0
          0 0 0 -4.166152739424382 -659.7534716586189 0
          316.28462817644726 420.0434359568271 0 0 0 0
          0 0 0 0 0 0
          0 0 0 309.9259757791832 -409.9826469060981 0
          0 0 0 -33.572755034608996 532.1798915474528 0
          0 0 0 0 0 0
          0 0 0 0 0 0
          -31.561735947255077 -483.5958714926392 0
          <InformationKey name="L2_NORM_RANGE" location="vtkDataArray" length="2">
            <Value index="0">
              0
            </Value>
            <Value index="1">
              682.1448687
            </Value>
          </InformationKey>
        </DataArray>
        <DataArray type="Float64" Name="Velocity" NumberOfComponents="3" format="ascii" RangeMin="0" RangeMax="0.0006384581035998258">
          0.00011197607956700109 0.0005473682279777649 0 0.00009330980360322067 0.0005337497031377949 0
          0.00007282749302981084 0.0005171780301048383 0 0.00004916708162305963 0.0004975797763535163 0
          0.00009095070339385986 0.0006108425693510671 0 0.00008232409077164172 0.0005989402154481316 0
          0.000073472250488516 0.0005833431705354061 0 0.00006356310906800726 0.0005644289138708958 0
          0.00005176584765499365 0.0005422757836931056 0 0.00003734463175133564 0.0005167210715614509 0
          0.000038957638461419394 0.0006355085966821775 0 0.00004151730083345489 0.0006193310296678705 0
          0.000042676658951741794 0.0005992634733688576 0 0.0000422572874196567 0.0005756619382540512 0
          0.0000400160106665757 0.0005485820136647743 0 0.000035634134256891904 0.0005177871578739812 0
          -0.000006153076099938769 0.0006384284530836595 0 0.000007610079369213787 0.0006180576382840065 0
          0.000018959572412967858 0.0005939423895990944 0 0.000028231985258367728 0.0005664169637465665 0
          0.00003577391697937639 0.0005355323058358724 0 0.00004188582813608802 0.0005010508860396007 0
          -0.00004378009642153297 0.0006189867542861035 0 -0.000019264847215700278 0.000594687506097544 0
          0.0000017267283298626375 0.0005669761481161845 0 0.000020223924369054786 0.0005361636807267565 0
          0.00003719109920086952 0.0005022171052200198 0 0.000053537048953554066 0.000464780937838107 0
          -0.00007317689900770243 0.0005782537900441061 0 -0.00003917789034086945 0.0005503399362825809 0
          -0.000009731544047500498 0.0005196178283349257 0 0.000016872859927126 0.0004863725208680736 0
          0.00004227833532908618 0.000450553882434918 0 0.00006801179943094448 0.0004117811476861793 0
          -0.00009367432096137117 0.0005191267779619282 0 -0.000052156141649971 0.0004877965207151389 0
          -0.00001617150487774901 0.0004544967340165552 0 0.0000167185675026972 0.0004194797204433689 0
          0.00004882146502752211 0.000382648001119826 0 0.00008238376016279992 0.00034357347263636913 0
          -0.00010417939426337877 0.00044658499539131145 0 -0.00005799170270665028 0.00041170129139101976 0
          -0.00001810689297840836 0.0003760143409808921 0 0.000018529988128684194 0.0003396916986120948 0
          0.00005488953197943132 0.00030263653633409856 0 0.00009386205853707878 0.00026438425551648264 0
          -0.000103604516659104 0.00036659808916253287 0 -0.000056226315918974195 0.0003279995231470901 0
          -0.000015729430159703347 0.00028986329681349496 0 0.0000213386853044724 0.00025246024888908846 0
          0.000058526971096087476 0.00021577461944063058 0 0.00009956009706383097 0.00017952751816872209 0
          -0.00009119128544081591 0.0002862888827816598 0 -0.000046433264082012986 0.00024376812130622657 0
          -0.000008507022107619327 0.00020294772134549365 0 0.000024967984842671864 0.00016388847280092694 0
          0.00005791004223831023 0.0001278950060169695 0 0.00009614751127332894 0.0000947093795252334 0
          -0.00006982145897177765 0.0002104591685135992 0 -0.000028233175278866873 0.00016577822332313835 0
          0.00000482958448657505 0.00012148106834702454 0 0.000029298908539660388 0.00008190025067178572 0
          0.00005131753394525696 0.00004709868033573957 0 0.00007896127059849726 0.00001867708229107349 0
          -0.00003920254355358883 0.00014240806092151326 0 9.660816904575266e-7 0.00008927161713281399 0
          0.000016644763957039755 0.00005076466875384529 0 0.000027930913209457383 0.000019850264794074845 0
          0.000037910415791257186 -0.000007369698293767062 0 0.000044877381272039254 -0.00003238984699852025 0
          0 0 0 0 0 0
          0 0 0 0 0 0
          0 0 0 0 0 0
          0.00013009239170781896 0.0005578769522318621 0 0.00014915473159078012 0.0005649440271835547 0
          0.00015839952612053523 0.0004948249515138091 0 0.00018467078711235653 0.0005003295000394786 0
          0.0001320529026697832 0.0004866131904677003 0 0.00010409846971703319 0.0004758492771434629 0
          0.00007285967503544134 0.0004626319241260663 0
          <InformationKey name="L2_NORM_RANGE" location="vtkDataArray" length="2">
            <Value index="0">
              0
            </Value>
            <Value index="1">
              0.0006384581036
            </Value>
          </InformationKey>
        </DataArray>
      </PointData>
      <CellData>
        <DataArray type="UInt8" Name="vtkGhostType" format="ascii" RangeMin="0" RangeMax="1">
          1 1 0 1 1 1
          1 0 0 0 0 0
          0 0 0 0 0 0
          0 0 0 0 0 0
          0 0 0 0 0 0
          0 0 0 0 0 0
          0 0 0 0 0 0
          0 0 0 0 0 0
          0 0 0 0 0 0
          0 0 0 0 0 0
          0 0 0 0
        </DataArray>
        <DataArray type="Float64" Name="Gauss Stress" NumberOfComponents="6" format="ascii" RangeMin="409.9319759027004" RangeMax="901.5801815578434">
          684.4733261301452 555.0851414090512 0 -34.16063814404865 0 0
          623.8643634445594 551.8450069247239 0 -26.449330810201104 0 0
          567.7859189636376 547.9307695004152 0 -14.691697759591351 0 0
          639.5052393252511 509.72966610270873 0 -28.66444004176261 0 0
          591.2890548552222 507.87811812276436 0 -18.415677284725525 0 0
          544.7727252738505 505.536020515897 0 -3.0798613313300245 0 0
          498.643527940323 503.3194130615659 0 17.870429809891668 0 0
          127.8920789745068 362.0872430874634 0 143.45964379012963 0 0
          334.6856755601259 423.6836724100041 0 100.16045451079123 0 0
          431.2376942954884 448.47939790784085 0 45.22834824311629 0 0
          521.7060311662726 489.53501303583334 0 -4.480791089329463 0 0
          598.4447899603823 529.2321199587166 0 -46.278958923507766 0 0
          291.8324720250978 703.9819725550086 0 0.8998954027900035 0 0
          298.40312181192184 630.1868402329258 0 54.87290424185721 0 0
          384.7207827795277 623.6176856554138 0 62.30532185002197 0 0
          466.46424487437923 633.9711832014281 0 53.71904226779208 0 0
          587.5611648551753 670.0062236805479 0 39.86648211692745 0 0
          333.67888654795036 676.6078902609077 0 1.98084293865975 0 0
          363.5260344379564 685.6537278371607 0 30.99796109862054 0 0
          397.10088164506817 674.3056260774625 0 54.945296533250705 0 0
          454.5124301405748 671.7226464210396 0 59.01735443069396 0 0
          512.042209934663 662.2249173017781 0 36.66074208282389 0 0
          388.437660573926 681.4456132678798 0 2.4828684191135713 0 0
          402.61773400137764 679.6409025880715 0 29.792666205874365 0 0
          419.9349351587489 678.1980285415495 0 45.9712036218727 0 0
          438.16595282741474 670.6514110074497 0 47.477635900729425 0 0
          455.5127725476964 665.3082378904401 0 29.85796931391504 0 0
          446.8226322780105 680.5950851882208 0 -0.5007056189970525 0 0
          439.29689625322874 677.3585618323898 0 25.585719900206886 0 0
          433.1022744663768 672.7240230358726 0 39.15967950355365 0 0
          426.4687417685607 668.3816832618783 0 40.037725593634 0 0
          415.7933672599618 665.2149668896534 0 27.832565939177506 0 0
          501.14536854335574 678.9446867800854 0 -4.734059620080423 0 0
          472.68086698447496 674.4142498522297 0 19.044573236138632 0 0
          446.53167302582483 669.2385906803559 0 32.23900627521403 0 0
          419.7030538922041 664.6205893347346 0 35.2606603536177 0 0
          389.5778864046031 662.4525369508002 0 28.36101777549464 0 0
          549.0530224007786 674.5650689438129 0 -9.686898766697443 0 0
          503.81847613394126 669.2967497420948 0 11.403072818437114 0 0
          461.8192441307788 663.385034451769 0 24.546294666112672 0 0
          419.8974292282613 658.2924995946411 0 30.12455619030745 0 0
          374.7924097104881 655.2892464526 0 28.49772117029024 0 0
          589.6249972189132 664.9761972195249 0 -15.68667722822281 0 0
          532.6879030010275 659.4191790566698 0 2.824898483232569 0 0
          479.37800106757425 653.1746569927966 0 16.004315920830976 0 0
          426.67560329451277 647.7669879784416 0 24.096463099478576 0 0
          371.7353696053809 644.7006617652688 0 27.406666306793817 0 0
          623.5799954355933 648.3157806816394 0 -21.693598036976827 0 0
          559.387059278775 642.7967276882925 0 -5.7223372517265725 0 0
          499.3153293015017 636.6636072556378 0 7.544508275532889 0 0
          440.2864013555375 631.1313573908434 0 18.287766552162978 0 0
          379.5693647182803 627.5612178755781 0 26.845680492530924 0 0
          650.331563649569 623.8497337408262 0 -26.966475677787123 0 0
          583.7923883579231 619.2540965762237 0 -13.672902963048855 0 0
          521.0085150451694 613.5664040765556 0 -0.8660318144590082 0 0
          459.7276483713606 608.3251363207404 0 11.563089995986687 0 0
          397.12101283713 604.6680806591122 0 23.80950379421334 0 0
          671.0227681096471 593.5480022834164 0 -30.63200320477272 0 0
          605.2220378584118 589.1840159031012 0 -20.30577898984653 0 0
          543.8938438110571 583.9811666975329 0 -8.034266199191531 0 0
          484.15581971623067 579.1402980272258 0 6.321338794289515 0 0
          423.9729251583261 576.0811801359832 0 22.816798254052603 0 0
          513.3317128604293 543.8751064835119 0 0.780713819686687 0 0
          457.77620894134634 540.314243536354 0 20.119119853663893 0 0
          <InformationKey name="L2_NORM_RANGE" location="vtkDataArray" length="2">
            <Value index="0">
              409.9319759
            </Value>
            <Value index="1">
              901.58018156
            </Value>
          </InformationKey>
        </DataArray>
        <DataArray type="Float64" Name="Gauss Strain" NumberOfComponents="6" format="ascii" RangeMin="0.00014509554135619325" RangeMax="0.00033841040367438594">
          0.00018863962084594843 0.00005928355482512358 0 -0.00006830411968879772 0 0
          0.00015358070063499485 0.0000815782868352072 0 -0.00005288601866483923 0 0
          0.0001215065161445511 0.00010165578737630909 0 -0.000029376638375596377 0 0
          0.00017980081041756024 0.0000500550569594721 0 -0.000057315526273216035 0 0
          0.0001516201244169263 0.00006822749292680065 0 -0.0000368230781799813 0 0
          0.0001246534029885754 0.00008542489027084377 0 -0.000006158241616876724 0 0
          0.00009786641123016303 0.00010254128744620337 0 0.000035733905252658396 0 0
          -0.0000681272221791096 0.0001660375103623435 0 0.000286900380037904 0 0
          0.000031335938688661906 0.00012031587094757379 0 0.0002002931282927789 0 0
          0.00007935675910343554 0.00009659245358276114 0 0.00009044228446583073 0 0
          0.00011721477737856867 0.00008504796055910925 0 -0.000008958598678117648 0 0
          0.00014737292788653822 0.0000781738834420842 0 -0.0000925362898125205 0 0
          -0.00010649521547931307 0.00030557197018726834 0 0.000001799380657046224 0 0
          -0.00007303224034518885 0.0002586900696156941 0 0.00010972586064402382 0 0
          -0.000018604361537527536 0.00022024430066122644 0 0.00012458600524407464 0 0
          0.000026306142638113366 0.00019377617837432193 0 0.00010741483066482687 0 0
          0.00008455261123288538 0.0001669773460132029 0 0.00007971321173976003 0 0
          -0.00007042830181894222 0.0002724314044362658 0 0.0000039608558669022615 0 0
          -0.000056135568436394 0.00026592451445833776 0 0.00006198283994091674 0 0
          -0.0000314496365848016 0.00024569579024061317 0 0.00010986702434195132 0 0
          0.000004034492255236554 0.0002211959009478376 0 0.00011800817642840814 0 0
          0.000042355493859169695 0.0001925029721287219 0 0.00007330448056325296 0 0
          -0.000039500895227473354 0.0002534443149639354 0 0.000004964629957425756 0 0
          -0.000030270453080794013 0.00024669273393970736 0 0.000059572404694613803 0 0
          -0.000019302799102144386 0.00023890357451371297 0 0.00009192218752566327 0 0
          -0.0000053443199070080105 0.00022708959587408595 0 0.00009493422560356581 0 0
          0.000007203661616259072 0.00021695207287154847 0 0.00005970258843726383 0 0
          -0.00000412430715471257 0.0002295953870397327 0 -0.0000010011663499384361 0 0
          -0.00000734650362052558 0.00023066197292800902 0 0.000051160017374964875 0 0
          -0.000009211021630123328 0.00023035772416579722 0 0.00007830203845989275 0 0
          -0.00001145482707007317 0.00023040513993766165 0 0.00008005791472345949 0 0
          -0.000016593244111462457 0.00023277441852395664 0 0.000055653078503442154 0 0
          0.000029131942141394362 0.00020688927509579513 0 -0.000009465812877635419 0 0
          0.000013863831047566944 0.00021555092657379868 0 0.000038080447597302336 0 0
          2.422350590114417e-7 0.00022289946080900067 0 0.00006446364417810949 0 0
          -0.000014009950057958243 0.00023085448737472647 0 0.00007050603036353202 0 0
          -0.00003122006451580783 0.0002415971975605058 0 0.00005671008117180469 0 0
          0.00005962820910668242 0.00018510955884000477 0 -0.000019368945127974583 0 0
          0.000034594380533659035 0.00020003384948991118 0 0.000022800867015718696 0 0
          0.000011757375680820914 0.000213277833778433 0 0.000049081588733264965 0 0
          -0.000011361742206755787 0.0002269819621883995 0 0.000060236148898513416 0 0
          -0.00003722754069834799 0.00024321157111778513 0 0.00005698371006803823 0 0
          0.00008780443949878147 0.00016313678301724252 0 -0.00003136533370394378 0 0
          0.00005586661808130999 0.00018256772203571747 0 0.0000056485595549353125 0 0
          0.000026377419305084748 0.00020013475561761473 0 0.000032001466031739106 0 0
          -0.0000030839091726270196 0.00021796002639058731 0 0.000048182637570146994 0 0
          -0.000034826420760136756 0.00023808346595818874 0 0.000054802243406166325 0 0
          0.00011483685784639819 0.0001395664221011117 0 -0.00004337597610419755 0 0
          0.00007853287487903649 0.000161922542808543 0 -0.000011441773063531995 0 0
          0.000044943831540925065 0.00018226095672090048 0 0.000015085718821006785 0 0
          0.000011737472436379459 0.00020254159410805492 0 0.000036567819452102885 0 0
          -0.000023269246918589115 0.00022467273403682653 0 0.00005368067599269184 0 0
          0.0001406673945796577 0.00011419238925486352 0 -0.000053919003438875375 0 0
          0.0001025888901835248 0.00013804212155740792 0 -0.000027339047872520896 0 0
          0.00006719664376526879 0.00015973357733513327 0 -0.0000017315066477151325 0 0
          0.000032524611115400386 0.00018109040871804039 0 0.000023121400073723558 0 0
          -0.0000035795661160603603 0.00020392598776956816 0 0.00004760963296746483 0 0
          0.00016519434895176377 0.00008773925219911216 0 -0.00006124830428790926 0 0
          0.00012746840298906437 0.00011143425342263757 0 -0.000040601662850362055 0 0
          0.00009275785794968239 0.00013283616098003215 0 -0.000016064715711015783 0 0
          0.00005885364277036231 0.00015381793762105078 0 0.00001264019170820358 0 0
          0.000023966798376753862 0.00017604464515044715 0 0.000045624695435637796 0 0
          0.00009046078675915836 0.00012099770002306498 0 0.0000015613063761043477 0 0
          0.00005855360623029104 0.0001410751382338593 0 0.000040230444010644 0 0
          <InformationKey name="L2_NORM_RANGE" location="vtkDataArray" length="2">
            <Value index="0">
              0.00014509554136
            </Value>
            <Value index="1">
              0.00033841040367
            </Value>
          </InformationKey>
        </DataArray>
        <DataArray type="Float64" Name="Btraction" NumberOfComponents="3" format="ascii" RangeMin="0" RangeMax="341.0519051922412">
          -17.266832148293147 277.22533941130587 0 0 0 0
          0 0 0 0 0 0
          0 0 0 0 0 0
          -15.868750187024892 -251.26825386226994 0 77.97138468323574 273.79762816894356 0
          0 0 0 0 0 0
          0 0 0 76.43995575993968 -267.4340296411792 0
          -3.41593819113792 338.7322642804709 0 0 0 0
          0 0 0 0 0 0
          -3.2498384608755106 -330.66992210754677 0 -5.805317750150532 340.4460147113101 0
          0 0 0 0 0 0
          0 0 0 -4.948920789612709 -331.8660999324692 0
          -8.179102262006495 340.95381552557103 0 0 0 0
          0 0 0 0 0 0
          -6.140459906686419 -332.70024228177874 0 -9.93108808857146 340.71810171901586 0
          0 0 0 0 0 0
          0 0 0 -7.867977288053382 -332.9915209370933 0
          -11.049274585102525 339.85184760382697 0 0 0 0
          0 0 0 0 0 0
          -10.018553999356504 -331.5430926476981 0 -12.283715241919928 337.65250936401526 0
          0 0 0 0 0 0
          0 0 0 -11.989415979791756 -327.87810045725195 0
          -13.832653197967012 332.9060249745211 0 0 0 0
          0 0 0 0 0 0
          -13.59157149242018 -322.32346725316773 0 -15.435904374037504 324.4715583355214 0
          0 0 0 0 0 0
          0 0 0 -14.667859990142468 -313.57357175767436 0
          -16.732354820212954 312.22536752976555 0 0 0 0
          0 0 0 0 0 0
          -15.333355751251386 -302.06811846230937 0 -17.52716863051232 296.7747331289987 0
          0 0 0 0 0 0
          0 0 0 -15.742049650479265 -287.6051918836742 0
          0 0 0 -15.902298472556797 -269.91729611942696 0
          <InformationKey name="L2_NORM_RANGE" location="vtkDataArray" length="2">