<?xml version="1.0"?>
<VTKFile type="UnstructuredGrid" version="0.1" byte_order="LittleEndian" header_type="UInt32" compressor="vtkZLibDataCompressor">
  <UnstructuredGrid>
    <Piece NumberOfPoints="16" NumberOfCells="18">
      <PointData>
        <DataArray type="Float64" Name="tem_BC" format="ascii" RangeMin="0" RangeMax="0">
          0 0 0 0 0 0
          0 0 0 0 0 0
          0 0 0 0
        </DataArray>
        <DataArray type="Float64" Name="tem_FIXNO" format="ascii" RangeMin="-1" RangeMax="1">
          1 1 1 -1 -1 1
          1 -1 -1 1 1 1
          1 1 1 1
        </DataArray>
        <DataArray type="Float64" Name="Temperature" format="ascii" RangeMin="0" RangeMax="0.05246091873184756">
          0 0 0 0.05246091873184756 0.049410123749304244 0
          0 0.05246091873184756 0.04941012374930424 0 0 0
          0 0 0 0
        </DataArray>
      </PointData>
      <CellData>
        <DataArray type="UInt8" Name="vtkGhostType" format="ascii" RangeMin="0" RangeMax="0">
          0 0 0 0 0 0
          0 0 0 0 0 0
          0 0 0 0 0 0
        </DataArray>
      </CellData>
      <Points>
        <DataArray type="Float32" Name="Points" NumberOfComponents="3" format="ascii" RangeMin="0" RangeMax="1.4142135623730951">
          0 1 0 0 0.6666666865348816 0
          0.3333333134651184 1 0 0.26011690497398376 0.5 0
          0.5 0.7398831248283386 0 0 0.3333333134651184 0
          0.6666666865348816 1 0 0.7398831248283386 0.5 0
          0.5 0.26011690497398376 0 0 0 0
          1 1 0 0.3333333134651184 0 0
          1 0.6666666865348816 0 0.6666666865348816 0 0
          1 0.3333333134651184 0 1 0 0
          <InformationKey name="L2_NORM_RANGE" location="vtkDataArray" length="2">
            <Value index="0">
              0
            </Value>
            <Value index="1">
              1.4142135624
            </Value>
          </InformationKey>
        </DataArray>
      </Points>
      <Cells>
        <DataArray type="Int64" Name="connectivity" format="ascii" RangeMin="0" RangeMax="15">
          9 11 5 11 13 8
          8 13 14 14 13 15
          11 3 5 14 12 7
          7 12 6 6 12 10
          14 7 8 6 2 4
          4 2 1 1 2 0
          6 4 7 1 5 3
          3 11 8 1 3 4
          8 7 3 3 7 4
        </DataArray>
        <DataArray type="Int64" Name="offsets" format="ascii" RangeMin="3" RangeMax="54">
          3 6 9 12 15 18
          21 24 27 30 33 36
          39 42 45 48 51 54
        </DataArray>
        <DataArray type="UInt8" Name="types" format="ascii" RangeMin="5" RangeMax="5">
          5 5 5 5 5 5
          5 5 5 5 5 5
          5 5 5 5 5 5
        </DataArray>
      </Cells>
    </Piece>
  </UnstructuredGrid>
</VTKFile>
