<?xml version="1.0"?>
<VTKFile type="UnstructuredGrid" version="0.1" byte_order="LittleEndian" header_type="UInt32" compressor="vtkZLibDataCompressor">
  <UnstructuredGrid>
    <Piece NumberOfPoints="15" NumberOfCells="12">
      <PointData>
        <DataArray type="Float64" Name="Velocity" NumberOfComponents="3" format="ascii" RangeMin="0" RangeMax="0.17355104666740598">
          0.017301842767222433 0.0793839187831992 0 0 0 0
          0 0 0 0.07575670470834737 0.06822549170147957 0
          0 0 0 0.013690688450216721 -0.03705383342489915 0
          0.05924039459663147 -0.042989105167983786 0 0.00809626818371148 0.02649947780613826 0
          0.05911058662510779 0.011298396093305518 0 0 0 0
          0 0 0 0 0 0
          0.00111044060020965 -0.17354749413640502 0 0.06413272517652904 -0.06701065350992626 0
          0 0 0
          <InformationKey name="L2_NORM_RANGE" location="vtkDataArray" length="2">
            <Value index="0">
              0
            </Value>
            <Value index="1">
              0.17355104667
            </Value>
          </InformationKey>
        </DataArray>
        <DataArray type="Float64" Name="Pressure" format="ascii" RangeMin="-0.2954208773766976" RangeMax="0.7866562344739592">
          0.19129450575245574 0.1615657320684309 0.40966160687252956 -0.0484419365164752 -0.05599456568103646 0.3447272765412358
          0.09297735560173 0.5795464127401074 0.3082400404165163 -0.2954208773766976 -0.26394567443058786 -0.17601880744437426
          0.7866562344739592 0.4908190897018534 0.520319303699779
        </DataArray>
        <DataArray type="Float64" Name="Temperature" format="ascii" RangeMin="240.00000000026415" RangeMax="960.000000001057">
          663.4143308568327 960.0000000010565 960.0000000010565 670.1238639819319 960.0000000010566 594.3000404091565
          589.0897610127597 596.3408188361292 598.2123137243331 697.1514015016288 960.000000001057 577.9281037549372
          557.4135927218307 576.528874263179 240.00000000026415
        </DataArray>
        <DataArray type="Float64" Name="Density" format="ascii" RangeMin="0.3654094667694653" RangeMax="1.4616378670778618">
          0.5287692348249489 0.3654094667694655 0.3654094667694655 0.5234749976140697 0.36540946676946545 0.590262601795489
          0.5954832545315191 0.5882426240479586 0.5864023191283299 0.5031806395906002 0.3654094667694653 0.6069839584195443
          0.6293228092737437 0.6084571020790536 1.4616378670778618
        </DataArray>
        <DataArray type="Float64" Name="stream" format="ascii" RangeMin="-0.0152952935502755" RangeMax="0.011658332060807478">
          -0.011221223857961132 -0.0030274993123153016 -0.0030274993123153016 -0.004101620960445443 -0.00006276010839056471 -0.0152952935502755
          -0.008374698740475537 -0.013385565177449177 -0.005575079887123611 -0.0018348622979820317 0 -0.0019897266844348684
          -0.0024371132202565997 0.0015869185172174675 0.011658332060807478
        </DataArray>
      </PointData>
      <CellData>
        <DataArray type="UInt8" Name="vtkGhostType" format="ascii" RangeMin="0" RangeMax="0">
          0 0 0 0 0 0
          0 0 0 0 0 0
        </DataArray>
        <DataArray type="Float64" Name="blocks" format="ascii" RangeMin="0" RangeMax="0.3333333333333334">
          0 0 0 0.3333333333333333 0.3333333333333334 0.3333333333333333
          0 0 0.3333333333333334 0 0.3333333333333333 0.3333333333333333
        </DataArray>
      </CellData>
      <Points>
        <DataArray type="Float32" Name="Points" NumberOfComponents="3" format="ascii" RangeMin="0.4000000059604645" RangeMax="1.280624854933515">
          0.20000000298023224 0.6000000238418579 0 0 0.6000000238418579 0
          0 0.4000000059604645 0 0.20000000298023224 0.800000011920929 0
          0 0.800000011920929 0 0.4000000059604645 0.6000000238418579 0
          0.4000000059604645 0.800000011920929 0 0.6000000238418579 0.6000000238418579 0
          0.6000000238418579 0.800000011920929 0 0.20000000298023224 1 0
          0 1 0 0.4000000059604645 1 0
          0.800000011920929 0.6000000238418579 0 0.800000011920929 0.800000011920929 0
          1 0.800000011920929 0
          <InformationKey name="L2_NORM_RANGE" location="vtkDataArray" length="2">
            <Value index="0">
              0.40000000596
            </Value>
            <Value index="1">
              1.2806248549
            </Value>
          </InformationKey>
        </DataArray>
      </Points>
      <Cells>
        <DataArray type="Int64" Name="connectivity" format="ascii" RangeMin="0" RangeMax="14">
          0 1 2 0 3 1
          3 4 1 5 6 0
          6 3 0 7 8 5
          3 9 4 9 10 4
          6 11 3 11 9 3
          12 13 7 14 13 12
        </DataArray>
        <DataArray type="Int64" Name="offsets" format="ascii" RangeMin="3" RangeMax="36">
          3 6 9 12 15 18
          21 24 27 30 33 36
        </DataArray>
        <DataArray type="UInt8" Name="types" format="ascii" RangeMin="5" RangeMax="5">
          5 5 5 5 5 5
          5 5 5 5 5 5
        </DataArray>
      </Cells>
    </Piece>
  </UnstructuredGrid>
</VTKFile>
