<?xml version="1.0"?>
<VTKFile type="UnstructuredGrid" version="0.1" byte_order="LittleEndian" header_type="UInt32" compressor="vtkZLibDataCompressor">
  <UnstructuredGrid>
    <Piece NumberOfPoints="8" NumberOfCells="4">
      <PointData>
        <DataArray type="Float64" Name="Velocity" NumberOfComponents="3" format="ascii" RangeMin="0" RangeMax="0.19104965836521196">
          0 0 0 0.00111044060020965 -0.17354749413640502 0
          -0.015402989576011855 -0.19042772874134029 0 0 0 0
          0 0 0 -0.08479861201929689 0.05073429710227159 0
          0 0 0 -0.056786982202061576 -0.1515002000846224 0
          <InformationKey name="L2_NORM_RANGE" location="vtkDataArray" length="2">
            <Value index="0">
              0
            </Value>
            <Value index="1">
              0.19104965837
            </Value>
          </InformationKey>
        </DataArray>
        <DataArray type="Float64" Name="Pressure" format="ascii" RangeMin="0.520319303699779" RangeMax="1.3887520123429997">
          0.8300003174703842 0.7866562344739592 1.0643486941945037 0.520319303699779 1.3887520123429997 1.11246018035814
          1.152053538817294 1.334195736574941
        </DataArray>
        <DataArray type="Float64" Name="Temperature" format="ascii" RangeMin="240.00000000026415" RangeMax="613.5027894267652">
          240.00000000026415 557.4135927218307 552.0673213578949 240.00000000026415 613.5027894267652 601.5465338702621
          600.8624265719336 548.6398457007131
        </DataArray>
        <DataArray type="Float64" Name="Density" format="ascii" RangeMin="0.5717872748823869" RangeMax="1.4616378670778618">
          1.4616378670778618 0.6293228092737437 0.6354172299788422 1.4616378670778618 0.5717872748823869 0.5831520395307104
          0.5838159828039721 0.6393868233377148
        </DataArray>
        <DataArray type="Float64" Name="stream" format="ascii" RangeMin="-0.007760726953611247" RangeMax="0.01232927384302561">
          0.01232927384302561 -0.005044539846126761 -0.004935302835760191 0.011307366721430456 0.0002232164746659316 -0.007760726953611247
          0.002714226543248833 0.00023675669080788601
        </DataArray>
      </PointData>
      <CellData>
        <DataArray type="UInt8" Name="vtkGhostType" format="ascii" RangeMin="0" RangeMax="0">
          0 0 0 0
        </DataArray>
        <DataArray type="Float64" Name="blocks" format="ascii" RangeMin="2.3333333333333335" RangeMax="2.3333333333333335">
          2.3333333333333335 2.3333333333333335 2.3333333333333335 2.3333333333333335
        </DataArray>
      </CellData>
      <Points>
        <DataArray type="Float32" Name="Points" NumberOfComponents="3" format="ascii" RangeMin="0.4000000059604645" RangeMax="1.280624854933515">
          1 0.6000000238418579 0 0.800000011920929 0.6000000238418579 0
          0.800000011920929 0.4000000059604645 0 1 0.800000011920929 0
          0.6000000238418579 0 0 0.6000000238418579 0.20000000298023224 0
          0.4000000059604645 0 0 0.800000011920929 0.20000000298023224 0
          <InformationKey name="L2_NORM_RANGE" location="vtkDataArray" length="2">
            <Value index="0">
              0.40000000596
            </Value>
            <Value index="1">
              1.2806248549
            </Value>
          </InformationKey>
        </DataArray>
      </Points>
      <Cells>
        <DataArray type="Int64" Name="connectivity" format="ascii" RangeMin="0" RangeMax="7">
          0 1 2 0 3 1
          4 5 6 7 2 5
        </DataArray>
        <DataArray type="Int64" Name="offsets" format="ascii" RangeMin="3" RangeMax="12">
          3 6 9 12
        </DataArray>
        <DataArray type="UInt8" Name="types" format="ascii" RangeMin="5" RangeMax="5">
          5 5 5 5
        </DataArray>
      </Cells>
    </Piece>
  </UnstructuredGrid>
</VTKFile>
