<?xml version="1.0"?>
<VTKFile type="UnstructuredGrid" version="0.1" byte_order="LittleEndian" header_type="UInt32" compressor="vtkZLibDataCompressor">
  <UnstructuredGrid>
    <Piece NumberOfPoints="6" NumberOfCells="3">
      <PointData>
        <DataArray type="Float64" Name="Velocity" NumberOfComponents="3" format="ascii" RangeMin="0" RangeMax="0.08212018971299319">
          0 0 0 -0.07029559255254089 -0.0037712826144709055 0
          0 0 0 -0.07848959404019673 -0.024147653838480998 0
          -0.026412544615914246 0.05119285537925311 0 -0.023862269027704316 -0.02995101536039097 0
          <InformationKey name="L2_NORM_RANGE" location="vtkDataArray" length="2">
            <Value index="0">
              0
            </Value>
            <Value index="1">
              0.082120189713
            </Value>
          </InformationKey>
        </DataArray>
        <DataArray type="Float64" Name="Pressure" format="ascii" RangeMin="0.602359158233515" RangeMax="0.9688719175365289">
          0.9688719175365289 0.7053777534586249 0.8978351328907822 0.8705801460685962 0.8451027686160218 0.602359158233515
        </DataArray>
        <DataArray type="Float64" Name="Temperature" format="ascii" RangeMin="597.6398460684584" RangeMax="960.0000000010568">
          651.322130097351 647.2121995250877 960.0000000010568 597.8105037889413 600.7300602874712 597.6398460684584
        </DataArray>
        <DataArray type="Float64" Name="Density" format="ascii" RangeMin="0.36540946676946534" RangeMax="0.5869640225743755">
          0.5385861648008813 0.5420062977126796 0.36540946676946534 0.5867964612126009 0.5839446222005366 0.5869640225743755
        </DataArray>
        <DataArray type="Float64" Name="stream" format="ascii" RangeMin="-0.016595657488182276" RangeMax="0.00007190736972926236">
          0.00007190736972926236 -0.006498998672289236 -0.0017693476227728273 -0.00546241435507164 -0.016595657488182276 -0.013198447743289118
        </DataArray>
      </PointData>
      <CellData>
        <DataArray type="UInt8" Name="vtkGhostType" format="ascii" RangeMin="0" RangeMax="0">
          0 0 0
        </DataArray>
        <DataArray type="Float64" Name="blocks" format="ascii" RangeMin="1.666666666666667" RangeMax="1.666666666666667">
          1.666666666666667 1.666666666666667 1.666666666666667
        </DataArray>
      </CellData>
      <Points>
        <DataArray type="Float32" Name="Points" NumberOfComponents="3" format="ascii" RangeMin="0" RangeMax="0.7211102782366936">
          0.20000000298023224 0 0 0.20000000298023224 0.20000000298023224 0
          0 0 0 0.4000000059604645 0.20000000298023224 0
          0.6000000238418579 0.4000000059604645 0 0.4000000059604645 0.4000000059604645 0
          <InformationKey name="L2_NORM_RANGE" location="vtkDataArray" length="2">
            <Value index="0">
              0
            </Value>
            <Value index="1">
              0.72111027824
            </Value>
          </InformationKey>
        </DataArray>
      </Points>
      <Cells>
        <DataArray type="Int64" Name="connectivity" format="ascii" RangeMin="0" RangeMax="5">
          0 1 2 3 1 0
          4 5 3
        </DataArray>
        <DataArray type="Int64" Name="offsets" format="ascii" RangeMin="3" RangeMax="9">
          3 6 9
        </DataArray>
        <DataArray type="UInt8" Name="types" format="ascii" RangeMin="5" RangeMax="5">
          5 5 5
        </DataArray>
      </Cells>
    </Piece>
  </UnstructuredGrid>
</VTKFile>
