<?xml version="1.0"?>
<VTKFile type="UnstructuredGrid" version="0.1" byte_order="LittleEndian" header_type="UInt32" compressor="vtkZLibDataCompressor">
  <UnstructuredGrid>
    <Piece NumberOfPoints="10" NumberOfCells="8">
      <PointData>
        <DataArray type="Float64" Name="Velocity" NumberOfComponents="3" format="ascii" RangeMin="0" RangeMax="0.0927546986540067">
          0.05911058662510779 0.011298396093305518 0 0.05924039459663147 -0.042989105167983786 0
          0.013690688450216721 -0.03705383342489915 0 0.06413272517652904 -0.06701065350992626 0
          0.00809626818371148 0.02649947780613826 0 0 0 0
          0 0 0 0 0 0
          0 0 0 0 0 0
          <InformationKey name="L2_NORM_RANGE" location="vtkDataArray" length="2">
            <Value index="0">
              0
            </Value>
            <Value index="1">
              0.092754698654
            </Value>
          </InformationKey>
        </DataArray>
        <DataArray type="Float64" Name="Pressure" format="ascii" RangeMin="-0.17601880744437426" RangeMax="0.5795464127401074">
          0.3082400404165163 0.09297735560173 0.3447272765412358 0.4908190897018534 0.5795464127401074 0.02236133565509168
          -0.17601880744437426 0.17502288245089845 0.520319303699779 0.13768678030052597
        </DataArray>
        <DataArray type="Float64" Name="Temperature" format="ascii" RangeMin="240.00000000026415" RangeMax="598.2123137243331">
          598.2123137243331 589.0897610127597 594.3000404091565 576.528874263179 596.3408188361292 592.5008262836614
          577.9281037549372 556.981672336697 240.00000000026415 240.0000000002642
        </DataArray>
        <DataArray type="Float64" Name="Density" format="ascii" RangeMin="0.5864023191283299" RangeMax="1.4616378670778618">
          0.5864023191283299 0.5954832545315191 0.590262601795489 0.6084571020790536 0.5882426240479586 0.5920550192298463
          0.6069839584195443 0.6298108277555989 1.4616378670778618 1.4616378670778614
        </DataArray>
        <DataArray type="Float64" Name="stream" format="ascii" RangeMin="-0.0152952935502755" RangeMax="0.012984819343205414">
          -0.005575079887123611 -0.008374698740475537 -0.0152952935502755 0.0015869185172174675 -0.013385565177449177 0.0006881748784759752
          -0.0019897266844348684 0.004965400174298949 0.011658332060807478 0.012984819343205414
        </DataArray>
      </PointData>
      <CellData>
        <DataArray type="UInt8" Name="vtkGhostType" format="ascii" RangeMin="0" RangeMax="0">
          0 0 0 0 0 0
          0 0
        </DataArray>
        <DataArray type="Float64" Name="blocks" format="ascii" RangeMin="0.6666666666666667" RangeMax="1.3333333333333335">
          0.6666666666666667 0.6666666666666667 1 0.6666666666666667 1 1
          1 1.3333333333333335
        </DataArray>
      </CellData>
      <Points>
        <DataArray type="Float32" Name="Points" NumberOfComponents="3" format="ascii" RangeMin="0.7211102782366936" RangeMax="1.4142135623730951">
          0.6000000238418579 0.800000011920929 0 0.4000000059604645 0.800000011920929 0
          0.4000000059604645 0.6000000238418579 0 0.800000011920929 0.800000011920929 0
          0.6000000238418579 0.6000000238418579 0 0.6000000238418579 1 0
          0.4000000059604645 1 0 0.800000011920929 1 0
          1 0.800000011920929 0 1 1 0
          <InformationKey name="L2_NORM_RANGE" location="vtkDataArray" length="2">
            <Value index="0">
              0.72111027824
            </Value>
            <Value index="1">
              1.4142135624
            </Value>
          </InformationKey>
        </DataArray>
      </Points>
      <Cells>
        <DataArray type="Int64" Name="connectivity" format="ascii" RangeMin="0" RangeMax="9">
          0 1 2 3 0 4
          0 5 1 5 6 1
          3 7 0 7 5 0
          8 9 3 9 7 3
        </DataArray>
        <DataArray type="Int64" Name="offsets" format="ascii" RangeMin="3" RangeMax="24">
          3 6 9 12 15 18
          21 24
        </DataArray>
        <DataArray type="UInt8" Name="types" format="ascii" RangeMin="5" RangeMax="5">
          5 5 5 5 5 5
          5 5
        </DataArray>
      </Cells>
    </Piece>
  </UnstructuredGrid>
</VTKFile>
