<?xml version="1.0"?>
<VTKFile type="UnstructuredGrid" version="0.1" byte_order="LittleEndian" header_type="UInt32" compressor="vtkZLibDataCompressor">
  <UnstructuredGrid>
    <Piece NumberOfPoints="10" NumberOfCells="7">
      <PointData>
        <DataArray type="Float64" Name="Velocity" NumberOfComponents="3" format="ascii" RangeMin="0" RangeMax="0.17355104666740598">
          0.017301842767222433 0.0793839187831992 0 0 0 0
          0 0 0 0.07575670470834737 0.06822549170147957 0
          0.013690688450216721 -0.03705383342489915 0 0.05924039459663147 -0.042989105167983786 0
          0.05911058662510779 0.011298396093305518 0 0.06413272517652904 -0.06701065350992626 0
          0.00809626818371148 0.02649947780613826 0 0.00111044060020965 -0.17354749413640502 0
          <InformationKey name="L2_NORM_RANGE" location="vtkDataArray" length="2">
            <Value index="0">
              0
            </Value>
            <Value index="1">
              0.17355104667
            </Value>
          </InformationKey>
        </DataArray>
        <DataArray type="Float64" Name="Pressure" format="ascii" RangeMin="-0.0484419365164752" RangeMax="0.7866562344739592">
          0.19129450575245574 0.1615657320684309 0.40966160687252956 -0.0484419365164752 0.3447272765412358 0.09297735560173
          0.3082400404165163 0.4908190897018534 0.5795464127401074 0.7866562344739592
        </DataArray>
        <DataArray type="Float64" Name="Temperature" format="ascii" RangeMin="557.4135927218307" RangeMax="960.0000000010565">
          663.4143308568327 960.0000000010565 960.0000000010565 670.1238639819319 594.3000404091565 589.0897610127597
          598.2123137243331 576.528874263179 596.3408188361292 557.4135927218307
        </DataArray>
        <DataArray type="Float64" Name="Density" format="ascii" RangeMin="0.3654094667694655" RangeMax="0.6293228092737437">
          0.5287692348249489 0.3654094667694655 0.3654094667694655 0.5234749976140697 0.590262601795489 0.5954832545315191
          0.5864023191283299 0.6084571020790536 0.5882426240479586 0.6293228092737437
        </DataArray>
        <DataArray type="Float64" Name="stream" format="ascii" RangeMin="-0.015064892662167297" RangeMax="-0.0009267316049701609">
          -0.010192707061343228 -0.002045414078513764 -0.004079038864734401 -0.0020604956008314357 -0.014930408164236658 -0.007446955551180386
          -0.007012383547646666 -0.0009267316049701609 -0.015064892662167297 -0.0038395122845675082
        </DataArray>
      </PointData>
      <CellData>
        <DataArray type="UInt8" Name="vtkGhostType" format="ascii" RangeMin="1" RangeMax="1">
          1 1 1 1 1 1
          1
        </DataArray>
        <DataArray type="Float64" Name="blocks" format="ascii" RangeMin="0" RangeMax="0.3333333333333334">
          0.3333333333333333 0 0.3333333333333334 0 0.3333333333333333 0.3333333333333333
          0.3333333333333333
        </DataArray>
      </CellData>
      <Points>
        <DataArray type="Float32" Name="Points" NumberOfComponents="3" format="ascii" RangeMin="0.4000000059604645" RangeMax="1.1313708667572155">
          0.20000000298023224 0.6000000238418579 0 0 0.6000000238418579 0
          0 0.4000000059604645 0 0.20000000298023224 0.800000011920929 0
          0.4000000059604645 0.6000000238418579 0 0.4000000059604645 0.800000011920929 0
          0.6000000238418579 0.800000011920929 0 0.800000011920929 0.800000011920929 0
          0.6000000238418579 0.6000000238418579 0 0.800000011920929 0.6000000238418579 0
          <InformationKey name="L2_NORM_RANGE" location="vtkDataArray" length="2">
            <Value index="0">
              0.40000000596
            </Value>
            <Value index="1">
              1.1313708668
            </Value>
          </InformationKey>
        </DataArray>
      </Points>
      <Cells>
        <DataArray type="Int64" Name="connectivity" format="ascii" RangeMin="0" RangeMax="9">
          0 1 2 0 3 1
          4 5 0 5 3 0
          6 5 4 7 6 8
          9 7 8
        </DataArray>
        <DataArray type="Int64" Name="offsets" format="ascii" RangeMin="3" RangeMax="21">
          3 6 9 12 15 18
          21
        </DataArray>
        <DataArray type="UInt8" Name="types" format="ascii" RangeMin="5" RangeMax="5">
          5 5 5 5 5 5
          5
        </DataArray>
      </Cells>
    </Piece>
  </UnstructuredGrid>
</VTKFile>
