<?xml version="1.0"?>
<VTKFile type="UnstructuredGrid" version="0.1" byte_order="LittleEndian" header_type="UInt32" compressor="vtkZLibDataCompressor">
  <UnstructuredGrid>
    <Piece NumberOfPoints="9" NumberOfCells="7">
      <PointData>
        <DataArray type="Float64" Name="Velocity" NumberOfComponents="3" format="ascii" RangeMin="0" RangeMax="0.19104965836521196">
          0 0 0 -0.056786982202061576 -0.1515002000846224 0
          0 0 0 -0.08479861201929689 0.05073429710227159 0
          0 0 0 0 0 0
          0 0 0 -0.015402989576011855 -0.19042772874134029 0
          0 0 0
          <InformationKey name="L2_NORM_RANGE" location="vtkDataArray" length="2">
            <Value index="0">
              0
            </Value>
            <Value index="1">
              0.19104965837
            </Value>
          </InformationKey>
        </DataArray>
        <DataArray type="Float64" Name="Pressure" format="ascii" RangeMin="0.8300003174703842" RangeMax="1.7267701337103203">
          1.6132303729898831 1.334195736574941 1.3887520123429997 1.11246018035814 1.7267701337103203 1.4079511993295082
          1.1157870413654218 1.0643486941945037 0.8300003174703842
        </DataArray>
        <DataArray type="Float64" Name="Temperature" format="ascii" RangeMin="240.00000000026412" RangeMax="613.5027894267652">
          537.7052223368242 548.6398457007131 613.5027894267652 601.5465338702621 240.00000000026412 240.0000000002642
          240.00000000026424 552.0673213578949 240.00000000026415
        </DataArray>
        <DataArray type="Float64" Name="Density" format="ascii" RangeMin="0.5717872748823869" RangeMax="1.461637867077862">
          0.6523892153670258 0.6393868233377148 0.5717872748823869 0.5831520395307104 1.461637867077862 1.4616378670778614
          1.4616378670778611 0.6354172299788422 1.4616378670778618
        </DataArray>
        <DataArray type="Float64" Name="stream" format="ascii" RangeMin="-0.007760726953611247" RangeMax="0.01232927384302561">
          0.006218276660002332 0.00023675669080788601 0.0002232164746659316 -0.007760726953611247 0.006218276660002332 0.008663210003807077
          0.010188350851715013 -0.004935302835760191 0.01232927384302561
        </DataArray>
      </PointData>
      <CellData>
        <DataArray type="UInt8" Name="vtkGhostType" format="ascii" RangeMin="0" RangeMax="0">
          0 0 0 0 0 0
          0
        </DataArray>
        <DataArray type="Float64" Name="blocks" format="ascii" RangeMin="2.6666666666666665" RangeMax="3">
          3 2.666666666666667 3 3 3 2.666666666666667
          2.6666666666666665
        </DataArray>
      </CellData>
      <Points>
        <DataArray type="Float32" Name="Points" NumberOfComponents="3" format="ascii" RangeMin="0.6000000238418579" RangeMax="1.1661903912355949">
          0.800000011920929 0 0 0.800000011920929 0.20000000298023224 0
          0.6000000238418579 0 0 0.6000000238418579 0.20000000298023224 0
          1 0 0 1 0.20000000298023224 0
          1 0.4000000059604645 0 0.800000011920929 0.4000000059604645 0
          1 0.6000000238418579 0
          <InformationKey name="L2_NORM_RANGE" location="vtkDataArray" length="2">
            <Value index="0">
              0.60000002384
            </Value>
            <Value index="1">
              1.1661903912
            </Value>
          </InformationKey>
        </DataArray>
      </Points>
      <Cells>
        <DataArray type="Int64" Name="connectivity" format="ascii" RangeMin="0" RangeMax="8">
          0 1 2 1 3 2
          4 5 0 5 1 0
          5 6 1 6 7 1
          6 8 7
        </DataArray>
        <DataArray type="Int64" Name="offsets" format="ascii" RangeMin="3" RangeMax="21">
          3 6 9 12 15 18
          21
        </DataArray>
        <DataArray type="UInt8" Name="types" format="ascii" RangeMin="5" RangeMax="5">
          5 5 5 5 5 5
          5
        </DataArray>
      </Cells>
    </Piece>
  </UnstructuredGrid>
</VTKFile>
