<?xml version="1.0"?>
<VTKFile type="UnstructuredGrid" version="0.1" byte_order="LittleEndian" header_type="UInt32" compressor="vtkZLibDataCompressor">
  <UnstructuredGrid>
    <Piece NumberOfPoints="11" NumberOfCells="9">
      <PointData>
        <DataArray type="Float64" Name="Velocity" NumberOfComponents="3" format="ascii" RangeMin="0" RangeMax="0.19104965836521196">
          0 0 0 -0.07848959404019673 -0.024147653838480998 0
          0 0 0 -0.08479861201929689 0.05073429710227159 0
          -0.026412544615914246 0.05119285537925311 0 -0.015402989576011855 -0.19042772874134029 0
          0.00111044060020965 -0.17354749413640502 0 0.00809626818371148 0.02649947780613826 0
          0.06413272517652904 -0.06701065350992626 0 0 0 0
          0 0 0
          <InformationKey name="L2_NORM_RANGE" location="vtkDataArray" length="2">
            <Value index="0">
              0
            </Value>
            <Value index="1">
              0.19104965837
            </Value>
          </InformationKey>
        </DataArray>
        <DataArray type="Float64" Name="Pressure" format="ascii" RangeMin="0.13768678030052597" RangeMax="1.152053538817294">
          1.152053538817294 0.8705801460685962 0.9688719175365289 1.11246018035814 0.8451027686160218 1.0643486941945037
          0.7866562344739592 0.5795464127401074 0.4908190897018534 0.520319303699779 0.13768678030052597
        </DataArray>
        <DataArray type="Float64" Name="Temperature" format="ascii" RangeMin="240.00000000026415" RangeMax="651.322130097351">
          600.8624265719336 597.8105037889413 651.322130097351 601.5465338702621 600.7300602874712 552.0673213578949
          557.4135927218307 596.3408188361292 576.528874263179 240.00000000026415 240.0000000002642
        </DataArray>
        <DataArray type="Float64" Name="Density" format="ascii" RangeMin="0.5385861648008813" RangeMax="1.4616378670778618">
          0.5838159828039721 0.5867964612126009 0.5385861648008813 0.5831520395307104 0.5839446222005366 0.6354172299788422
          0.6293228092737437 0.5882426240479586 0.6084571020790536 1.4616378670778618 1.4616378670778614
        </DataArray>
        <DataArray type="Float64" Name="stream" format="ascii" RangeMin="-0.018527631328094873" RangeMax="0.012649296952875866">
          0.002714226543248833 -0.004852230862801243 0.0005819631573703299 -0.007760726953611247 -0.018527631328094873 -0.004935302835760191
          -0.005044539846126761 -0.016147081136050786 0.001922440907547016 0.011307366721430456 0.012649296952875866
        </DataArray>
      </PointData>
      <CellData>
        <DataArray type="UInt8" Name="vtkGhostType" format="ascii" RangeMin="1" RangeMax="1">
          1 1 1 1 1 1
          1 1 1
        </DataArray>
        <DataArray type="Float64" Name="blocks" format="ascii" RangeMin="0.6666666666666669" RangeMax="1.3333333333333335">
          0.6666666666666669 1.3333333333333335 0.6666666666666669 1.3333333333333335 1.3333333333333335 0.6666666666666669
          0.6666666666666669 1.3333333333333335 0.6666666666666669
        </DataArray>
      </CellData>
      <Points>
        <DataArray type="Float32" Name="Points" NumberOfComponents="3" format="ascii" RangeMin="0.20000000298023224" RangeMax="1.4142135623730951">
          0.4000000059604645 0 0 0.4000000059604645 0.20000000298023224 0
          0.20000000298023224 0 0 0.6000000238418579 0.20000000298023224 0
          0.6000000238418579 0.4000000059604645 0 0.800000011920929 0.4000000059604645 0
          0.800000011920929 0.6000000238418579 0 0.6000000238418579 0.6000000238418579 0
          0.800000011920929 0.800000011920929 0 1 0.800000011920929 0
          1 1 0
          <InformationKey name="L2_NORM_RANGE" location="vtkDataArray" length="2">
            <Value index="0">
              0.20000000298
            </Value>
            <Value index="1">
              1.4142135624
            </Value>
          </InformationKey>
        </DataArray>
      </Points>
      <Cells>
        <DataArray type="Int64" Name="connectivity" format="ascii" RangeMin="0" RangeMax="10">
          0 1 2 3 1 0
          3 4 1 5 4 3
          5 6 4 6 7 4
          6 8 7 9 8 6
          9 10 8
        </DataArray>
        <DataArray type="Int64" Name="offsets" format="ascii" RangeMin="3" RangeMax="27">
          3 6 9 12 15 18
          21 24 27
        </DataArray>
        <DataArray type="UInt8" Name="types" format="ascii" RangeMin="5" RangeMax="5">
          5 5 5 5 5 5
          5 5 5
        </DataArray>
      </Cells>
    </Piece>
  </UnstructuredGrid>
</VTKFile>
