<?xml version="1.0"?>
<VTKFile type="UnstructuredGrid" version="0.1" byte_order="LittleEndian" header_type="UInt32" compressor="vtkZLibDataCompressor">
  <UnstructuredGrid>
    <Piece NumberOfPoints="9" NumberOfCells="4">
      <PointData>
        <DataArray type="Float64" Name="Temperature" format="ascii" RangeMin="0.37499999409130347" RangeMax="0.49999999225842856">
          0.46874999244207666 0.49999999225842856 0.4999999921736923 0.46874999252312755 0.4687499925027424 0.4999999921648351
          0.37499999422515334 0.37499999409130347 0.3749999941670346
        </DataArray>
      </PointData>
      <CellData>
        <DataArray type="UInt8" Name="vtkGhostType" format="ascii" RangeMin="0" RangeMax="0">
          0 0 0 0
        </DataArray>
      </CellData>
      <Points>
        <DataArray type="Float32" Name="Points" NumberOfComponents="3" format="ascii" RangeMin="0.5" RangeMax="1.118033988749895">
          0.25 0.75 0 0 1 0
          0.25 1 0 0 0.75 0
          0.5 0.75 0 0.5 1 0
          0 0.5 0 0.5 0.5 0
          0.25 0.5 0
          <InformationKey name="L2_NORM_RANGE" location="vtkDataArray" length="2">
            <Value index="0">
              0.5
            </Value>
            <Value index="1">
              1.1180339887
            </Value>
          </InformationKey>
        </DataArray>
      </Points>
      <Cells>
        <DataArray type="Int64" Name="connectivity" format="ascii" RangeMin="0" RangeMax="8">
          1 3 0 2 6 8
          0 3 7 4 0 8
          5 2 0 4
        </DataArray>
        <DataArray type="Int64" Name="offsets" format="ascii" RangeMin="4" RangeMax="16">
          4 8 12 16
        </DataArray>
        <DataArray type="UInt8" Name="types" format="ascii" RangeMin="9" RangeMax="9">
          9 9 9 9
        </DataArray>
      </Cells>
    </Piece>
  </UnstructuredGrid>
</VTKFile>
