<?xml version="1.0"?>
<VTKFile type="UnstructuredGrid" version="0.1" byte_order="LittleEndian" header_type="UInt32" compressor="vtkZLibDataCompressor">
  <UnstructuredGrid>
    <Piece NumberOfPoints="14" NumberOfCells="7">
      <PointData>
        <DataArray type="Float64" Name="Temperature" format="ascii" RangeMin="0" RangeMax="0.5068069629437405">
          0.3769448457068786 0 0.4624536420927882 0.37760358435911295 0.5033250593243153 0
          0 0.3727257820333779 0.36850671835987725 0.49278524193931567 0.49007186648964146 0.4624118173535156
          0.44187590432530954 0.5068069629437405
        </DataArray>
      </PointData>
      <CellData>
        <DataArray type="UInt8" Name="vtkGhostType" format="ascii" RangeMin="0" RangeMax="1">
          1 1 1 0 0 1
          1
        </DataArray>
      </CellData>
      <Points>
        <DataArray type="Float32" Name="Points" NumberOfComponents="3" format="ascii" RangeMin="0" RangeMax="1.4142135623730951">
          0.5 0.5 0 0 0 0
          0.75 0.75 0 0 0.5 0
          0 1 0 0.5 0 0
          1 0 0 0.75 0.5 0
          1 0.5 0 1 1 0
          0.75 1 0 1 0.75 0
          0.5 0.75 0 0.5 1 0
          <InformationKey name="L2_NORM_RANGE" location="vtkDataArray" length="2">
            <Value index="0">
              0
            </Value>
            <Value index="1">
              1.4142135624
            </Value>
          </InformationKey>
        </DataArray>
      </Points>
      <Cells>
        <DataArray type="Int64" Name="connectivity" format="ascii" RangeMin="0" RangeMax="13">
          6 8 0 5 4 3
          0 13 1 5 0 3
          9 10 2 11 13 12
          2 10 0 7 2 12
          8 11 2 7
        </DataArray>
        <DataArray type="Int64" Name="offsets" format="ascii" RangeMin="4" RangeMax="28">
          4 8 12 16 20 24
          28
        </DataArray>
        <DataArray type="UInt8" Name="types" format="ascii" RangeMin="9" RangeMax="9">
          9 9 9 9 9 9
          9
        </DataArray>
      </Cells>
    </Piece>
  </UnstructuredGrid>
</VTKFile>
