<?xml version="1.0"?>
<VTKFile type="UnstructuredGrid" version="0.1" byte_order="LittleEndian" header_type="UInt32" compressor="vtkZLibDataCompressor">
  <UnstructuredGrid>
    <Piece NumberOfPoints="18" NumberOfCells="19">
      <PointData>
        <DataArray type="Float64" Name="Velocity" NumberOfComponents="3" format="ascii" RangeMin="2.6611227767876375" RangeMax="2.8220963244661372">
          2.619300000259754 -0.5063000000502095 0 2.7083176530600235 0 0
          2.6193000002597544 -0.5063000000502094 0 2.7441395000209625 0 0
          2.619300000259754 -0.5063000000502095 0 2.6621553383116554 -0.3478620602855527 0
          2.7718685154826983 0 0 2.6193000002597535 -0.5063000000502095 0
          2.679054434853939 -0.3438232304352847 0 2.7927239395285284 0 0
          2.6193000002597544 -0.5063000000502094 0 2.700057538794274 -0.2929036542982147 0
          2.8220953364212003 -0.002361506933096461 0 2.634026128650578 -0.382224038627642 0
          2.6693774015652343 0 0 2.648112170360034 -0.3626404772406898 0
          2.6288150264992822 -0.41340777640185444 0 2.619300000259754 -0.5063000000502093 0
          <InformationKey name="L2_NORM_RANGE" location="vtkDataArray" length="2">
            <Value index="0">
              2.6611227768
            </Value>
            <Value index="1">
              2.8220963245
            </Value>
          </InformationKey>
        </DataArray>
        <DataArray type="Float64" Name="Pressure" format="ascii" RangeMin="1.3769646709585264" RangeMax="1.923300940080296">
          1.5459880001533144 1.7594537192674395 1.5459880001533142 1.8252655348765192 1.5459880001533142 1.6742445306402922
          1.8757803969718159 1.5459880001533146 1.722969840071118 1.923300940080296 1.5459880001533144 1.7672780097083847
          1.882467756030837 1.5102281441560326 1.6634892840383648 1.6030983352501138 1.3769646709585264 1.5459880001533142
        </DataArray>
        <DataArray type="Float64" Name="Temperature" format="ascii" RangeMin="0.003114000000308813" RangeMax="0.0035268259394062563">
          0.003114000000308813 0.003519600642926676 0.003114000000308813 0.0035016154217229947 0.003114000000308813 0.003364742570737034
          0.003489338540465084 0.003114000000308813 0.0033864030169010505 0.003488208513319451 0.003114000000308813 0.0033927144613082926
          0.0034161946981582066 0.0032802517248959055 0.0035268259394062563 0.0033296227290234947 0.0031900861945594206 0.003114000000308813
        </DataArray>
      </PointData>
      <CellData>
        <DataArray type="UInt8" Name="vtkGhostType" format="ascii" RangeMin="0" RangeMax="1">
          1 1 1 1 1 1
          1 0 1 0 0 0
          0 1 1 0 0 0
          0
        </DataArray>
      </CellData>
      <Points>
        <DataArray type="Float32" Name="Points" NumberOfComponents="3" format="ascii" RangeMin="1.537500023841858" RangeMax="4.2201894765504395">
          2.049999952316284 1 0 2.049999952316284 0 0
          2.5625 1 0 2.5625 0 0
          3.075000047683716 1 0 3.075000047683716 0.5 0
          3.075000047683716 0 0 3.5875000953674316 1 0
          3.5875000953674316 0.5 0 3.5875000953674316 0 0
          4.099999904632568 1 0 4.099999904632568 0.5 0
          4.099999904632568 0 0 2.049999952316284 0.5 0
          1.537500023841858 0 0 2.5625 0.5 0
          1.537500023841858 0.5 0 1.537500023841858 1 0
          <InformationKey name="L2_NORM_RANGE" location="vtkDataArray" length="2">
            <Value index="0">
              1.5375000238
            </Value>
            <Value index="1">
              4.2201894766
            </Value>
          </InformationKey>
        </DataArray>
      </Points>
      <Cells>
        <DataArray type="Int64" Name="connectivity" format="ascii" RangeMin="0" RangeMax="17">
          1 13 14 15 13 1
          13 0 16 0 17 16
          15 2 13 2 0 13
          3 15 1 6 5 3
          5 15 3 9 8 6
          8 5 6 12 11 9
          11 8 9 5 4 15
          4 2 15 8 7 5
          7 4 5 11 10 8
          10 7 8
        </DataArray>
        <DataArray type="Int64" Name="offsets" format="ascii" RangeMin="3" RangeMax="57">
          3 6 9 12 15 18
          21 24 27 30 33 36
          39 42 45 48 51 54
          57
        </DataArray>
        <DataArray type="UInt8" Name="types" format="ascii" RangeMin="5" RangeMax="5">
          5 5 5 5 5 5
          5 5 5 5 5 5
          5 5 5 5 5 5
          5
        </DataArray>
      </Cells>
    </Piece>
  </UnstructuredGrid>
</VTKFile>
