<?xml version="1.0"?>
<VTKFile type="UnstructuredGrid" version="0.1" byte_order="LittleEndian" header_type="UInt32" compressor="vtkZLibDataCompressor">
  <UnstructuredGrid>
    <Piece NumberOfPoints="418" NumberOfCells="757">
      <PointData>
        <DataArray type="Float64" Name="nsi_BC" NumberOfComponents="3" format="ascii" RangeMin="0" RangeMax="1">
          0 0 0 0 0 0
          0 0 0 0 0 0
          0 0 0 1 0 0
          0 0 0 0 0 0
          0 0 0 0 0 0
          0 0 0 0 0 0
          0 0 0 0 0 0
          0 0 0 0 0 0
          0 0 0 0 0 0
          0 0 0 0 0 0
          0 0 0 0 0 0
          0 0 0 0 0 0
          0 0 0 0 0 0
          0 0 0 0 0 0
          0 0 0 0 0 0
          0 0 0 0 0 0
          0 0 0 0 0 0
          0 0 0 0 0 0
          0 0 0 0 0 0
          0 0 0 0 0 0
          0 0 0 0 0 0
          0 0 0 0 0 0
          0 0 0 0 0 0
          0 0 0 0 0 0
          0 0 0 0 0 0
          0 0 0 0 0 0
          0 0 0 0 0 0
          0 0 0 0 0 0
          0 0 0 0 0 0
          0 0 0 0 0 0
          0 0 0 0 0 0
          0 0 0 0 0 0
          0 0 0 0 0 0
          0 0 0 0 0 0
          0 0 0 0 0 0
          0 0 0 0 0 0
          0 0 0 0 0 0
          0 0 0 0 0 0
          0 0 0 0 0 0
          0 0 0 0 0 0
          0 0 0 0 0 0
          0 0 0 0 0 0
          0 0 0 0 0 0
          0 0 0 0 0 0
          0 0 0 0 0 0
          0 0 0 0 0 0
          0 0 0 0 0 0
          0 0 0 0 0 0
          0 0 0 0 0 0
          0 0 0 0 0 0
          0 0 0 0 0 0
          0 0 0 0 0 0
          0 0 0 0 0 0
          0 0 0 0 0 0
          0 0 0 0 0 0
          0 0 0 0 0 0
          0 0 0 0 0 0
          0 0 0 0 0 0
          0 0 0 0 0 0
          0 0 0 0 0 0
          0 0 0 0 0 0
          0 0 0 0 0 0
          0 0 0 0 0 0
          0 0 0 0 0 0
          0 0 0 0 0 0
          0 0 0 0 0 0
          0 0 0 0 0 0
          0 0 0 0 0 0
          0 0 0 0 0 0
          0 0 0 0 0 0
          0 0 0 0 0 0
          0 0 0 0 0 0
          0 0 0 0 0 0
          0 0 0 0 0 0
          0 0 0 0 0 0
          0 0 0 0 0 0
          0 0 0 0 0 0
          0 0 0 0 0 0
          0 0 0 0 0 0
          0 0 0 0 0 0
          0 0 0 0 0 0
          0 0 0 0 0 0
          0 0 0 0 0 0
          0 0 0 0 0 0
          0 0 0 0 0 0
          0 0 0 0 0 0
          0 0 0 0 0 0
          0 0 0 0 0 0
          0 0 0 0 0 0
          0 0 0 0 0 0
          0 0 0 0 0 0
          0 0 0 0 0 0
          0 0 0 0 0 0
          0 0 0 0 0 0
          0 0 0 0 0 0
          0 0 0 0 0 0
          0 0 0 0 0 0
          0 0 0 0 0 0
          0 0 0 0 0 0
          0 0 0 0 0 0
          0 0 0 0 0 0
          0 0 0 0 0 0
          0 0 0 0 0 0
          0 0 0 0 0 0
          0 0 0 0 0 0
          0 0 0 0 0 0
          0 0 0 0 0 0
          0 0 0 0 0 0
          0 0 0 0 0 0
          0 0 0 0 0 0
          0 0 0 0 0 0
          0 0 0 0 0 0
          0 0 0 0 0 0
          0 0 0 0 0 0
          0 0 0 0 0 0
          0 0 0 0 0 0
          0 0 0 0 0 0
          0 0 0 0 0 0
          0 0 0 0 0 0
          0 0 0 0 0 0
          0 0 0 0 0 0
          0 0 0 0 0 0
          0 0 0 0 0 0
          0 0 0 0 0 0
          0 0 0 0 0 0
          0 0 0 0 0 0
          0 0 0 0 0 0
          0 0 0 0 0 0
          0 0 0 0 0 0
          0 0 0 0 0 0
          0 0 0 0 0 0
          0 0 0 0 0 0
          0 0 0 0 0 0
          0 0 0 0 0 0
          0 0 0 0 0 0
          0 0 0 0 0 0
          0 0 0 0 0 0
          0 0 0 0 0 0
          0 0 0 0 0 0
          0 0 0 0 0 0
          0 0 0 0 0 0
          0 0 0 0 0 0
          0 0 0 0 0 0
          0 0 0 0 0 0
          0 0 0 0 0 0
          0 0 0 0 0 0
          0 0 0 0 0 0
          0 0 0 0 0 0
          0 0 0 0 0 0
          0 0 0 0 0 0
          0 0 0 0 0 0
          0 0 0 0 0 0
          0 0 0 0 0 0
          0 0 0 0 0 0
          0 0 0 0 0 0
          0 0 0 0 0 0
          0 0 0 0 0 0
          0 0 0 0 0 0
          0 0 0 0 0 0
          0 0 0 0 0 0
          0 0 0 0 0 0
          0 0 0 0 0 0
          0 0 0 0 0 0
          0 0 0 0 0 0
          0 0 0 0 0 0
          0 0 0 0 0 0
          0 0 0 0 0 0
          0 0 0 0 0 0
          0 0 0 0 0 0
          0 0 0 0 0 0
          0 0 0 0 0 0
          0 0 0 0 0 0
          0 0 0 0 0 0
          0 0 0 0 0 0
          0 0 0 0 0 0
          0 0 0 0 0 0
          0 0 0 0 0 0
          0 0 0 0 0 0
          0 0 0 0 0 0
          0 0 0 0 0 0
          0 0 0 0 0 0
          0 0 0 0 0 0
          0 0 0 0 0 0
          0 0 0 0 0 0
          0 0 0 0 0 0
          0 0 0 0 0 0
          0 0 0 0 0 0
          0 0 0 0 0 0
          0 0 0 0 0 0
          0 0 0 0 0 0
          0 0 0 0 0 0
          0 0 0 0 0 0
          0 0 0 0 0 0
          0 0 0 0 0 0
          0 0 0 0 0 0
          0 0 0 0 0 0
          0 0 0 0 0 0
          0 0 0 0 0 0
          0 0 0 0 0 0
          0 0 0 0 0 0
          0 0 0 0 0 0
          0 0 0 0 0 0
          0 0 0 0 0 0
          0 0 0 0 0 0
          0 0 0 0 0 0
          0 0 0 0 0 0
          0 0 0 0 0 0
          0 0 0 0 0 0
          0 0 0 0 0 0
          <InformationKey name="L2_NORM_RANGE" location="vtkDataArray" length="2">
            <Value index="0">
              0
            </Value>
            <Value index="1">
              1
            </Value>
          </InformationKey>
        </DataArray>
        <DataArray type="Float64" Name="nsi_FIXNO" NumberOfComponents="3" format="ascii" RangeMin="1.4142135623730951" RangeMax="1.4142135623730951">
          1 1 0 -1 -1 0
          -1 -1 0 -1 -1 0
          1 1 0 1 1 0
          -1 -1 0 -1 -1 0
          -1 -1 0 -1 -1 0
          -1 -1 0 -1 -1 0
          -1 -1 0 -1 -1 0
          -1 -1 0 1 1 0
          -1 -1 0 -1 -1 0
          -1 -1 0 -1 -1 0
          -1 -1 0 -1 -1 0
          -1 -1 0 -1 -1 0
          -1 -1 0 -1 -1 0
          -1 -1 0 -1 -1 0
          -1 -1 0 -1 -1 0
          -1 -1 0 -1 -1 0
          1 1 0 -1 -1 0
          -1 -1 0 -1 -1 0
          1 1 0 -1 -1 0
          -1 -1 0 -1 -1 0
          -1 -1 0 -1 -1 0
          1 1 0 -1 -1 0
          -1 -1 0 -1 -1 0
          -1 -1 0 -1 -1 0
          -1 -1 0 -1 -1 0
          -1 -1 0 -1 -1 0
          -1 -1 0 -1 -1 0
          -1 -1 0 -1 -1 0
          -1 -1 0 -1 -1 0
          -1 -1 0 -1 -1 0
          1 1 0 -1 -1 0
          -1 -1 0 -1 -1 0
          -1 -1 0 -1 -1 0
          -1 -1 0 -1 -1 0
          -1 -1 0 1 1 0
          -1 -1 0 -1 -1 0
          -1 -1 0 -1 -1 0
          -1 -1 0 -1 -1 0
          -1 -1 0 -1 -1 0
          -1 -1 0 -1 -1 0
          -1 -1 0 -1 -1 0
          -1 -1 0 -1 -1 0
          -1 -1 0 -1 -1 0
          -1 -1 0 -1 -1 0
          1 1 0 -1 -1 0
          -1 -1 0 -1 -1 0
          -1 -1 0 -1 -1 0
          -1 -1 0 -1 -1 0
          -1 -1 0 -1 -1 0
          -1 -1 0 -1 -1 0
          -1 -1 0 -1 -1 0
          -1 -1 0 -1 -1 0
          -1 -1 0 -1 -1 0
          -1 -1 0 -1 -1 0
          -1 -1 0 -1 -1 0
          -1 -1 0 -1 -1 0
          -1 -1 0 -1 -1 0
          -1 -1 0 -1 -1 0
          -1 -1 0 -1 -1 0
          -1 -1 0 -1 -1 0
          -1 -1 0 1 1 0
          -1 -1 0 -1 -1 0
          -1 -1 0 -1 -1 0
          -1 -1 0 -1 -1 0
          -1 -1 0 -1 -1 0
          -1 -1 0 -1 -1 0
          -1 -1 0 -1 -1 0
          -1 -1 0 -1 -1 0
          -1 -1 0 -1 -1 0
          -1 -1 0 -1 -1 0
          -1 -1 0 -1 -1 0
          -1 -1 0 -1 -1 0
          -1 -1 0 -1 -1 0
          -1 -1 0 -1 -1 0
          1 1 0 -1 -1 0
          -1 -1 0 -1 -1 0
          -1 -1 0 -1 -1 0
          -1 -1 0 -1 -1 0
          -1 -1 0 -1 -1 0
          -1 -1 0 1 1 0
          -1 -1 0 -1 -1 0
          1 1 0 -1 -1 0
          1 1 0 -1 -1 0
          -1 -1 0 -1 -1 0
          -1 -1 0 1 1 0
          -1 -1 0 -1 -1 0
          -1 -1 0 -1 -1 0
          1 1 0 -1 -1 0
          1 1 0 -1 -1 0
          -1 -1 0 -1 -1 0
          -1 -1 0 -1 -1 0
          -1 -1 0 -1 -1 0
          1 1 0 -1 -1 0
          -1 -1 0 1 1 0
          1 1 0 -1 -1 0
          -1 -1 0 -1 -1 0
          -1 -1 0 -1 -1 0
          -1 -1 0 1 1 0
          -1 -1 0 -1 -1 0
          -1 -1 0 -1 -1 0
          -1 -1 0 -1 -1 0
          1 1 0 1 1 0
          -1 -1 0 1 1 0
          -1 -1 0 -1 -1 0
          -1 -1 0 -1 -1 0
          1 1 0 -1 -1 0
          -1 -1 0 -1 -1 0
          -1 -1 0 -1 -1 0
          1 1 0 -1 -1 0
          -1 -1 0 -1 -1 0
          1 1 0 -1 -1 0
          -1 -1 0 1 1 0
          1 1 0 -1 -1 0
          -1 -1 0 -1 -1 0
          -1 -1 0 -1 -1 0
          -1 -1 0 -1 -1 0
          -1 -1 0 1 1 0
          1 1 0 -1 -1 0
          1 1 0 1 1 0
          -1 -1 0 -1 -1 0
          1 1 0 -1 -1 0
          -1 -1 0 -1 -1 0
          -1 -1 0 1 1 0
          -1 -1 0 -1 -1 0
          -1 -1 0 1 1 0
          -1 -1 0 1 1 0
          -1 -1 0 -1 -1 0
          -1 -1 0 -1 -1 0
          -1 -1 0 -1 -1 0
          -1 -1 0 1 1 0
          1 1 0 -1 -1 0
          1 1 0 -1 -1 0
          1 1 0 -1 -1 0
          -1 -1 0 -1 -1 0
          1 1 0 -1 -1 0
          -1 -1 0 -1 -1 0
          -1 -1 0 -1 -1 0
          1 1 0 1 1 0
          -1 -1 0 -1 -1 0
          -1 -1 0 -1 -1 0
          -1 -1 0 -1 -1 0
          1 1 0 -1 -1 0
          -1 -1 0 -1 -1 0
          1 1 0 -1 -1 0
          1 1 0 1 1 0
          -1 -1 0 -1 -1 0
          -1 -1 0 -1 -1 0
          -1 -1 0 1 1 0
          1 1 0 -1 -1 0
          -1 -1 0 -1 -1 0
          -1 -1 0 1 1 0
          -1 -1 0 1 1 0
          -1 -1 0 -1 -1 0
          1 1 0 -1 -1 0
          -1 -1 0 1 1 0
          -1 -1 0 -1 -1 0
          1 1 0 -1 -1 0
          1 1 0 -1 -1 0
          -1 -1 0 1 1 0
          -1 -1 0 -1 -1 0
          -1 -1 0 -1 -1 0
          -1 -1 0 1 1 0
          -1 -1 0 -1 -1 0
          -1 -1 0 -1 -1 0
          -1 -1 0 -1 -1 0
          1 1 0 -1 -1 0
          -1 -1 0 -1 -1 0
          -1 -1 0 -1 -1 0
          -1 -1 0 1 1 0
          -1 -1 0 -1 -1 0
          -1 -1 0 -1 -1 0
          1 1 0 -1 -1 0
          -1 -1 0 -1 -1 0
          -1 -1 0 -1 -1 0
          -1 -1 0 1 1 0
          -1 -1 0 -1 -1 0
          -1 -1 0 -1 -1 0
          -1 -1 0 -1 -1 0
          1 1 0 -1 -1 0
          -1 -1 0 -1 -1 0
          -1 -1 0 -1 -1 0
          -1 -1 0 -1 -1 0
          -1 -1 0 -1 -1 0
          1 1 0 -1 -1 0
          -1 -1 0 -1 -1 0
          -1 -1 0 -1 -1 0
          -1 -1 0 -1 -1 0
          1 1 0 -1 -1 0
          -1 -1 0 -1 -1 0
          -1 -1 0 -1 -1 0
          -1 -1 0 -1 -1 0
          -1 -1 0 -1 -1 0
          1 1 0 -1 -1 0
          -1 -1 0 -1 -1 0
          -1 -1 0 -1 -1 0
          -1 -1 0 -1 -1 0
          -1 -1 0 -1 -1 0
          1 1 0 -1 -1 0
          -1 -1 0 -1 -1 0
          1 1 0 -1 -1 0
          -1 -1 0 -1 -1 0
          -1 -1 0 -1 -1 0
          -1 -1 0 -1 -1 0
          1 1 0 -1 -1 0
          -1 -1 0 -1 -1 0
          -1 -1 0 -1 -1 0
          -1 -1 0 -1 -1 0
          1 1 0 -1 -1 0
          -1 -1 0 1 1 0
          <InformationKey name="L2_NORM_RANGE" location="vtkDataArray" length="2">
            <Value index="0">
              1.4142135624
            </Value>
            <Value index="1">
              1.4142135624
            </Value>
          </InformationKey>
        </DataArray>
        <DataArray type="Float64" Name="Velocity" NumberOfComponents="3" format="ascii" RangeMin="0" RangeMax="1.4149911425598432">
          0 0 0 0.31853382682736436 0.02433746902394801 0
          0.7322384692443329 0.10039496772110544 0 0.5148741771520481 0.0366928282267562 0
          0 0 0 1 0 0
          0.7173917693469332 0.026501162734483767 0 0.3695778639808057 0.021720289941991607 0
          0.6437671837491528 0.038187683203106663 0 0.3116415524133124 0.0048511265587054455 0
          0.6663678887199308 0.028908931942012394 0 0.5620717404888474 0.03285184953292232 0
          0.7022488957792403 -0.09766113716354985 0 0.7198250666882614 0.03350393495206204 0
          0.6861665706943791 0.04765844337658657 0 0 0 0
          0.5052731760314709 0.0266907045449827 0 0.7274953685010236 0.06133763137361187 0
          0.605409775360616 -0.004500597975691235 0 0.6491395030161806 0.04401102144680072 0
          0.6612529064170308 0.05770593832047429 0 0.6874710485584018 0.06470525529643045 0
          0.4235921826979544 0.0364307510028045 0 0.3487383019015992 -0.028470595367398176 0
          0.7343119464578358 0.09949012049155743 0 0.6428415252032077 0.0801393273422807 0
          0.7444033964245867 0.11941545218992422 0 0.7156421756810504 0.10153807971002099 0
          0.3204333195141606 0.012134244409579047 0 0.5695455537332692 0.05053577228761768 0
          0.44452515876247767 0.003936969557959053 0 0.6010264057729003 0.09032462845431002 0
          0 0 0 0.6201303624671424 0.08464300307211359 0
          0.7370330891058766 0.1584193035625759 0 0.7590368333468075 0.15534528985341792 0
          0 0 0 0.7806401658616737 0.191587733784334 0
          0.6535122330940388 0.1399235259457998 0 0.3207463471938529 0.01050208427359428 0
          0.5645772819449272 0.08523373997381836 0 0.20032326778771073 0.0053903230929795145 0
          0 0 0 0.46315927396106066 0.05389824409625444 0
          0.7664332617839923 0.18320920791993162 0 0.7596322313946035 0.22667089010967448 0
          0.8295808641044935 0.2462992793343151 0 0.680374241891647 0.21054045888329492 0
          0.5146555518001913 0.09822162436554256 0 0.815235457294452 0.28440475006181565 0
          0.30525729777097904 0.026703039124153016 0 0.4604363855899692 0.024711268813142524 0
          0.7952301519436814 0.15329198166193292 0 0.8787125459610644 0.27571847586673004 0
          0.5538640038326742 0.16841650085219625 0 0.6938178744528548 0.29119465859587845 0
          0.8730338737695498 0.34247235239130114 0 0.3444077753771523 0.04987162272042687 0
          0.801959391022553 0.3702165293884808 0 0.5903065211983954 0.25457762376583637 0
          0 0 0 0.9504605878585088 0.3635662564866212 0
          0.7084735336041713 0.37228521053500263 0 0.18207841355674556 0.01153699411167961 0
          0.9841837341570693 0.237168172032041 0 0.366079936981324 0.09376266530635917 0
          0.4548712023436943 0.19076047577945582 0 0.8762615978174407 0.42296861646282286 0
          0.5927188618231564 0.332054531271789 0 0 0 0
          0.7474249383763285 0.10269540982513978 0 0.46768171482217813 0.26635456686258685 0
          0.7450571890577133 0.46191945025795916 0 1.0549183500501065 0.35826443861630886 0
          0.9668468403726324 0.4617769135060592 0 0.3220530525857649 0.12555343997187815 0
          0.2096155036258206 0.036499601184781856 0 0.5678160863019756 0.41050730194429286 0
          0.8524155718780041 0.5110912688707274 0 1.1170755045869543 0.28624916592187305 0
          0.46433760262557816 0.3404454960734138 0 0.7284195645163121 0.511737810706107 0
          0.33805059319701974 0.18856725060392476 0 0.2395719946021085 0.06439098929708162 0
          1.035038374493215 0.19323852239524852 0 0.6091012861005104 0.49323541896025835 0
          0.9628016897725169 0.521470768616087 0 0.3398388020815012 0.25824195214285445 0
          0 0 0 0.8326409908342038 0.08445214574436133 0
          1.1911915344255661 0.382119341556843 0 0.7911586557248926 0.5620002447079607 0
          0.4385335033314748 0.41880845753917695 0 0.6422484360745055 0.5513615026455969 0
          1.2246726247564357 0.2760759892824216 0 0.22819561637173247 0.11889599097076109 0
          0.3120150242453158 0.3047991194231854 0 0.11901039097172172 0.016227912084658114 0
          0.239757514109822 0.18233676744001287 0 0.477335439190066 0.010992323306622151 0
          0.9337828074323318 0.5619530320280698 0 0.4222889746063021 0.4759503624993913 0
          1.1487022045974447 0.4714605891942985 0 0.24308278371756448 0.24420557163672502 0
          0.6972624677297237 0.5849858559657676 0 0.2782978132325641 0.34461159386522405 0
          1.1689834008843756 0.14225016889071246 0 1.2948491833846298 0.33089364022925793 0
          0.1365498695192826 0.043543668557923965 0 0.5219887271620909 0.5560241377905304 0
          0.8063856395511639 0.5695754408229186 0 0.20052040968080062 0.26559084471415567 0
          0.3255160333155151 0.45293557256332106 0 1.0820588533376083 0.48465421907118883 0
          0.9178601665047863 0.029079148754577615 0 0.13225534866407673 0.0702791886851857 0
          0.5572589037745106 0.5560983688124362 0 0.2164351850407826 0.34537001621462976 0
          1.2711384179206915 0.35773673013219853 0 1.3481330651324228 0.1959835305400687 0
          0.13839574924931497 0.12215462887532642 0 0 0 0
          0.15072565455892567 0.19004917636328336 0 0.32679501726539323 0.4789970937302771 0
          1.3563737362724615 0.25959702678665525 0 0.1670378822980128 0.27703302019747483 0
          0.05733068781752881 0.008080150897133417 0 0.6567175629417078 0.5060737315486287 0
          0.15545577783905926 0.3260986037050903 0 0.9883641627529709 0.4230469132102074 0
          0.3640378893739938 0.45440468005791873 0 0.10892045059090451 0.19409060948254875 0
          1.1810828921996954 0.3397353745402374 0 0.0758003941810064 0.030402832495656836 0
          0.10037558663724712 0.1272472516240419 0 1.2501893740893848 0.059933022294053194 0
          1.3158832923726185 0.25599634277294525 0 0.1626791396122485 0.3416206778330931 0
          0.08342102434583408 0.18864977146235834 0 1.4027427503077814 0.1567189845090649 0
          0.42927208446501186 0.3575938354857204 0 0.08369523964864867 0.09290294222857291 0
          0.07388983516567867 0.23919231144618375 0 0.0682200598893824 0.042866455795868834 0
          0.7665399198333557 0.3080451183706852 0 0.07658747486029266 0.12576372606134387 0
          0.06771952854006025 0.20409183491503796 0 0.07084893178334749 0.20576659064820674 0
          0 0 0 0.08466054168412829 0.21590448493633954 0
          0.9965000480692902 0.25466157632870107 0 1.400154353264652 0.08355691722522918 0
          1.1958157980448427 0.21232491294116196 0 0.04103439684107359 0.15382763108214442 0
          0.056958755785829956 0.05534781265355744 0 0.04638222228407553 0.11747077562834853 0
          0.925707240149889 0.00789730847215958 0 0.0320966415963898 0.13551040311828688 0
          0.021614514414285534 0.12027308670245716 0 0 0 0
          0.052858136244671707 0.08291468866276072 0 0.4024619374205591 0.07075506076028955 0
          0 0 0 0.7078876582414927 0.11322734529905831 0
          0 0 0 0.017513786572505356 0.09095418008291804 0
          0.028902486248578944 0.10505718894249817 0 0.037194978965023315 0.01334765080362124 0
          1.32992249248706 0.07359889420878091 0 0 0 0
          0.011038072097369879 0.0672381606110163 0 0.03989910680496133 0.05360589925125261 0
          0.9291981112815125 0.07729990883546974 0 0.03154819489913404 0.07250015806297165 0
          0 0 0 0.018367844939082622 0.07436690741587051 0
          0 0 0 1.4148979691989696 0.01623792719045602 0
          0.3550906389545154 0.028128621835963964 0 0.006589225871715439 0.0540213919286652 0
          1.1313501191391404 0.0327396050595956 0 0.017720352386767283 0.06479215472589701 0
          0.6751019831436207 0.04067796328176192 0 0.030134765092045615 0.021477055037777294 0
          0 0 0 0.006770252200438429 0.04184835180467647 0
          1.4067532327283876 -0.020746839237076903 0 0 0 0
          0 0 0 0.01322860272244225 0.044753700893059516 0
          0.02349604155037196 0.024782540959388987 0 0.004767369883300599 0.03334174841309635 0
          0.018104509875137495 0.038221742324525666 0 0.33600210514327594 0.00044317603658595815 0
          0.01223407900109854 0.037918626553499896 0 0 0 0
          1.2550994898263097 -0.04086662160747863 0 0.6599667747662152 -0.021000580056161948 0
          0.9413574235519422 -0.051049646849309245 0 0.004295274716606672 0.025452892635832534 0
          1.1537766369915654 -0.0872598062525902 0 0.016216781435825053 0.00554004270779516 0
          0 0 0 0 0 0
          0.013779161908249422 0.021897824908752937 0 0 0 0
          1.3146408644776657 -0.10573523321698851 0 0.007814234059687085 0.024570534082508193 0
          0.0035889320253590434 0.019168902743415504 0 0.34153745741594627 -0.025705616733115135 0
          0 0 0 1.3933952834964412 -0.11461924681732662 0
          0.007411083464641292 0.01882459827921464 0 0.6735093279778229 -0.11837107089548961 0
          0.010880861479669776 0.009392709076039927 0 0.002803226439255931 0.013625108552139569 0
          0 0 0 0.9255800296388373 -0.16143287799476339 0
          0.0046143425418447665 0.014257362617436504 0 1.3757964965276925 -0.114705555669098 0
          0 0 0 0.0024278942101734866 0.00975441448383166 0
          1.1290068133670192 -0.1865963013672157 0 0 0 0
          0 0 0 0.3888180311286265 -0.16584070924654637 0
          0.0058235722285539014 0.007430476607188805 0 0.0045450874722539215 0.00916443849074497 0
          0.9463630258462864 -0.04475727582623025 0 0.0014230178686177968 0.00632163311245321 0
          1.280086673718083 -0.1944468517459554 0 1.212796015182446 -0.08874951574763744 0
          0.005778808092012164 0.001939407584097459 0 0 0 0
          0 0 0 0.6680793205450919 -0.228827841391126 0
          0 0 0 0 0 0
          0.0008398643893775335 0.004314320733883984 0 0.04562474613402124 -0.07134853186535615 0
          0 0 0 0.00252866029160632 0.005018298890020623 0
          1.3575519092831438 -0.19488017330327675 0 0.8974010039520639 -0.25961934828793354 0
          0.003179568371059224 0.0024150615634891638 0 0 0 0
          0.02569826744991196 -0.030876226993475035 0 0.0009791951492036763 0.0024291160277795294 0
          0.0021329318732012863 0.0029633057552414482 0 0 0 0
          0.014745306904720031 -0.005947192925004928 0 0 0 0
          0.30752169319288447 -0.20235907126116862 0 1.3253651639974355 -0.16956494124027044 0
          0.0009405927292078736 0.001648766948576026 0 1.0563062588820553 -0.2901916871189817 0
          0.0061545530933262305 0.010931743865903088 0 0.0017799844428954405 0.00041768737154627153 0
          0.0007192843230732462 0.001301833318402324 0 0 0 0
          0 0 0 0.10081740068037953 -0.10186622493052831 0
          0 0 0 0.0020675667914803316 0.016363964598866642 0
          0 0 0 1.2267886981354377 -0.2809797081501638 0
          0.06352367776103955 -0.053218605954238406 0 0.0009317897323142564 0.0006580721456234498 0
          0 0 0 0.0003209925025577269 0.00041008833755339097 0
          0.2564922545859022 -0.007528198744706489 0 0.5359796851617858 -0.2730089551770214 0
          0.0011914297003808067 0.019493398626119915 0 1.1663932501115206 -0.13849804795522916 0
          0 0 0 0 0 0
          0.0009292445337452012 0.0205836897826867 0 0.00017647637161141968 0.00010960366327743585 0
          0.28818948660771243 -0.20257412954384643 0 0.01650403433345068 0.0007191224522886479 0
          0.05138346326133267 -0.03233496851708368 0 0.7694498646332539 -0.3156046744213081 0
          0 0 0 1.292910225270941 -0.2526922674601521 0
          0.13758722489710137 -0.11152024689765831 0 -0.000010632544176930907 0.02155395473214035 0
          0 0 0 0.00997542469808579 0.015200962965343831 0
          0 0 0 0 0 0
          0.004214757183986623 0.023977678541909207 0 0.00009344969991444851 -0.000155393801184089 0
          -0.0006447790402672203 0.0209310997581494 0 0.003671971114465302 0.028533564680009418 0
          0.7979237136260376 -0.08966368587904426 0 0 0 0
          0 0 0 0.4777590630402455 -0.27207861943927436 0
          -0.0005601521218024121 0.020063848626760607 0 0.93870880287308 -0.33176888326608983 0
          1.2508354244016624 -0.22057032972702023 0 0 0 0
          0.033386252812755694 -0.0063398443209436986 0 0 0 0
          0.30429610964987197 -0.20540240757478861 0 -0.00034795815765362203 0.033001751406054436 0
          0 0 0 -0.0009086931748967385 0.01865375073054024 0
          0.012314924117544705 0.025793503310202963 0 0 0 0
          -0.0008931178858986564 0.03382035209615053 0 0.15680021842384814 -0.1097589866358165 0
          0 0 0 -0.001212378646769811 0.016913034380278635 0
          0 0 0 -0.0020797659428989173 0.030385640864365404 0
          0.6567781941860223 -0.31482422095797075 0 0 0 0
          -0.0014844569833890853 0.014444089271170578 0 -0.0027732338285019332 0.02828269680890416 0
          1.0973928396621029 -0.15951582272657716 0 0.46563269154914566 -0.2643363125905604 0
          0.002718578426457907 0.036099851233646674 0 0 0 0
          -0.0016799395425016214 0.011795334605734752 0 1.2171240335699238 -0.2957483779850056 0
          0.049687705295501546 -0.01256451507681736 0 -0.0049526414639572795 0.027147237968081488 0
          1.0440729148069707 -0.35266970791725877 0 0.29731316906279975 -0.1904537762438028 0
          0 0 0 -0.0014526795658903276 0.009279310915159005 0
          -0.004635401785048422 0.03748782525934315 0 0.13372261476684263 -0.0847731694625996 0
          -0.005439045180090003 0.0229396674004407 0 0.02714228137398528 0.010394699178375535 0
          0.8177823259193128 -0.34560520970988867 0 0 0 0
          -0.0013818633685133898 0.006766960052514438 0 -0.004799022360559701 0.017485513570729454 0
          0.6249916567171979 -0.3020146530317748 0 0.716806417499547 -0.08058062645046465 0
          0 0 0 -0.00135313500691225 0.004441875236837585 0
          -0.010990576129871346 0.030171301955553707 0 -0.005152114556038543 0.014283423690717192 0
          0.0031724651126309477 0.029810720505246805 0 0.4514684945844692 -0.24585859732392426 0
          0.0718170913853313 -0.037669375799357516 0 0 0 0
          -0.0011538631927513548 0.0023362856049028097 0 1.1136254627967943 -0.34368603776027745 0
          -0.004817917906467385 0.01013888690354183 0 -0.011291402816326967 0.02293996015972877 0
          0.29512311577352185 -0.17800524799909598 0 1.162672796337643 -0.2887294795915123 0
          0 0 0 0.9587700741561989 -0.34850761016903425 0
          -0.00436693617637023 0.006629962640360301 0 -0.0004662311618000022 0.0005780322688800909 0
          0.04032275996505115 -0.005606974807602786 0 -0.010754382646564751 0.015615513708462894 0
          0.15043480079115407 -0.09648120516179094 0 -0.003171328433502085 0.003445960180439567 0
          0.6736808657563383 -0.30380118169569514 0 -0.01368633300633737 0.023541919018252526 0
          0 0 0 1.0265025065047515 -0.20233905754040807 0
          0.3240475545763545 -0.017512818322407406 0 -0.008223712198747197 0.007318362374341278 0
          -0.01950871438262296 0.02088636956095169 0 -0.017241468068946806 0.01708509278657624 0
          0.09684510424886703 -0.05563960671061339 0 0.42403248668353 -0.2327245617743451 0
          0 0 0 -0.0036974408228139487 0.0016958188110874452 0
          1.052166686872952 -0.31128840642495953 0 -0.003132475547423398 -0.0045420120953103245 0
          -0.01621050169788433 0.009245831786544277 0 -0.021194816836193703 0.00908325633607348 0
          0.826996280580117 -0.31314151342321506 0 0.19521337860148724 -0.12827107476299004 0
          0.5661167000184539 -0.07255621498247196 0 -0.024151404941631163 0.010849346624649635 0
          0 0 0 -0.009494845644197218 0.0026552106072539393 0
          0.5634995920274778 -0.27159383266233383 0 1.1042535246802019 -0.2593592035496007 0
          0.04029824987739275 -0.049340417120504014 0 0.33951727513174224 -0.2037558292104157 0
          -0.009468409534508207 -0.015023165842992903 0 -0.023717630514051038 -0.0008497556959299027 0
          -0.016762898594914387 0.002276909176810382 0 0.9874311376719517 -0.30290816784069363 0
          0 0 0 -0.022973790285538014 0.0033243470960489328 0
          0.7488854196353995 -0.3187122228487985 0 0.48168721592813496 -0.2672701015965765 0
          0 0 0 0.12248870985733505 -0.11410057554976395 0
          0.023041521360469445 -0.053248158548196915 0 0.9912917383479709 -0.09023733642859319 0
          -0.009775998091828695 -0.02390266182755109 0 -0.016639760930640537 0.0011686189954814594 0
          -0.019224050001183702 -0.006636819841044606 0 0.2676689255982445 -0.20652652908731492 0
          0 0 0 1.0055039027385395 -0.37108874856755547 0
          -0.013929654298969524 -0.00000899883172624836 0 0.08881830206491538 -0.12420566168289908 0
          0.018280865748197997 -0.05432632115221692 0 0.5602556249133942 -0.40824985357023 0
          -0.0030533851250977738 -0.01615970626708349 0 0.23127891321612484 -0.2774920525296847 0
          0 0 0 0.022042575209126707 -0.03499110929120217 0
          0.08434183813486025 -0.10716538910307322 0 0 0 0
          <InformationKey name="L2_NORM_RANGE" location="vtkDataArray" length="2">
            <Value index="0">
              0
            </Value>
            <Value index="1">
              1.4149911426
            </Value>
          </InformationKey>
        </DataArray>
        <DataArray type="Float64" Name="Pressure" format="ascii" RangeMin="-8.284151170393502" RangeMax="36.94394825536212">
          36.28448893407558 36.442522535360744 36.76867274538901 36.21921491639937 36.036900609717165 36.81007756993882
          36.081682685935526 35.53018593133543 35.3901524407326 34.62686848954474 36.13244736037356 34.41360272956242
          36.94394825536212 35.340728181829896 34.42359358645445 33.62481092847329 33.47328544611601 34.53455483182024
          36.51834244657233 35.57447393065173 33.338517510479186 34.79144067847547 32.41039708324581 36.90872563144372
          33.53578552400592 32.246016060617585 32.36418643935209 33.9612689081406 31.484922434658067 34.95916986452948
          35.93359394001212 30.930053699107017 36.72901542937279 34.22973698008944 33.12902969798224 31.212201330505497
          30.404497589045494 31.626260627115947 33.580554859336004 35.21484489704872 29.555652422043835 35.62544123371649
          36.74932527393047 34.3943636009235 29.718176789690784 32.195294430640345 30.21014867342964 32.8629121070643
          33.9039825085994 30.83452778061405 34.508237019141085 27.60372496638582 27.930820366817674 28.577041383569068
          33.461024430241494 32.13928928650798 29.416517449292755 34.030028464066916 30.295370190519364 32.847396852012224
          34.73817764874183 27.591389249515686 31.24621210044932 34.11676216175649 25.923348138626896 33.80431322445035