<?xml version="1.0"?>
<VTKFile type="UnstructuredGrid" version="0.1" byte_order="LittleEndian" header_type="UInt32" compressor="vtkZLibDataCompressor">
  <UnstructuredGrid>
    <Piece NumberOfPoints="418" NumberOfCells="757">
      <PointData>
        <DataArray type="Float64" Name="nsi_BC" NumberOfComponents="3" format="ascii" RangeMin="0" RangeMax="1">
          0 0 0 0 0 0
          0 0 0 0 0 0
          0 0 0 1 0 0
          0 0 0 0 0 0
          0 0 0 0 0 0
          0 0 0 0 0 0
          0 0 0 0 0 0
          0 0 0 0 0 0
          0 0 0 0 0 0
          0 0 0 0 0 0
          0 0 0 0 0 0
          0 0 0 0 0 0
          0 0 0 0 0 0
          0 0 0 0 0 0
          0 0 0 0 0 0
          0 0 0 0 0 0
          0 0 0 0 0 0
          0 0 0 0 0 0
          0 0 0 0 0 0
          0 0 0 0 0 0
          0 0 0 0 0 0
          0 0 0 0 0 0
          0 0 0 0 0 0
          0 0 0 0 0 0
          0 0 0 0 0 0
          0 0 0 0 0 0
          0 0 0 0 0 0
          0 0 0 0 0 0
          0 0 0 0 0 0
          0 0 0 0 0 0
          0 0 0 0 0 0
          0 0 0 0 0 0
          0 0 0 0 0 0
          0 0 0 0 0 0
          0 0 0 0 0 0
          0 0 0 0 0 0
          0 0 0 0 0 0
          0 0 0 0 0 0
          0 0 0 0 0 0
          0 0 0 0 0 0
          0 0 0 0 0 0
          0 0 0 0 0 0
          0 0 0 0 0 0
          0 0 0 0 0 0
          0 0 0 0 0 0
          0 0 0 0 0 0
          0 0 0 0 0 0
          0 0 0 0 0 0
          0 0 0 0 0 0
          0 0 0 0 0 0
          0 0 0 0 0 0
          0 0 0 0 0 0
          0 0 0 0 0 0
          0 0 0 0 0 0
          0 0 0 0 0 0
          0 0 0 0 0 0
          0 0 0 0 0 0
          0 0 0 0 0 0
          0 0 0 0 0 0
          0 0 0 0 0 0
          0 0 0 0 0 0
          0 0 0 0 0 0
          0 0 0 0 0 0
          0 0 0 0 0 0
          0 0 0 0 0 0
          0 0 0 0 0 0
          0 0 0 0 0 0
          0 0 0 0 0 0
          0 0 0 0 0 0
          0 0 0 0 0 0
          0 0 0 0 0 0
          0 0 0 0 0 0
          0 0 0 0 0 0
          0 0 0 0 0 0
          0 0 0 0 0 0
          0 0 0 0 0 0
          0 0 0 0 0 0
          0 0 0 0 0 0
          0 0 0 0 0 0
          0 0 0 0 0 0
          0 0 0 0 0 0
          0 0 0 0 0 0
          0 0 0 0 0 0
          0 0 0 0 0 0
          0 0 0 0 0 0
          0 0 0 0 0 0
          0 0 0 0 0 0
          0 0 0 0 0 0
          0 0 0 0 0 0
          0 0 0 0 0 0
          0 0 0 0 0 0
          0 0 0 0 0 0
          0 0 0 0 0 0
          0 0 0 0 0 0
          0 0 0 0 0 0
          0 0 0 0 0 0
          0 0 0 0 0 0
          0 0 0 0 0 0
          0 0 0 0 0 0
          0 0 0 0 0 0
          0 0 0 0 0 0
          0 0 0 0 0 0
          0 0 0 0 0 0
          0 0 0 0 0 0
          0 0 0 0 0 0
          0 0 0 0 0 0
          0 0 0 0 0 0
          0 0 0 0 0 0
          0 0 0 0 0 0
          0 0 0 0 0 0
          0 0 0 0 0 0
          0 0 0 0 0 0
          0 0 0 0 0 0
          0 0 0 0 0 0
          0 0 0 0 0 0
          0 0 0 0 0 0
          0 0 0 0 0 0
          0 0 0 0 0 0
          0 0 0 0 0 0
          0 0 0 0 0 0
          0 0 0 0 0 0
          0 0 0 0 0 0
          0 0 0 0 0 0
          0 0 0 0 0 0
          0 0 0 0 0 0
          0 0 0 0 0 0
          0 0 0 0 0 0
          0 0 0 0 0 0
          0 0 0 0 0 0
          0 0 0 0 0 0
          0 0 0 0 0 0
          0 0 0 0 0 0
          0 0 0 0 0 0
          0 0 0 0 0 0
          0 0 0 0 0 0
          0 0 0 0 0 0
          0 0 0 0 0 0
          0 0 0 0 0 0
          0 0 0 0 0 0
          0 0 0 0 0 0
          0 0 0 0 0 0
          0 0 0 0 0 0
          0 0 0 0 0 0
          0 0 0 0 0 0
          0 0 0 0 0 0
          0 0 0 0 0 0
          0 0 0 0 0 0
          0 0 0 0 0 0
          0 0 0 0 0 0
          0 0 0 0 0 0
          0 0 0 0 0 0
          0 0 0 0 0 0
          0 0 0 0 0 0
          0 0 0 0 0 0
          0 0 0 0 0 0
          0 0 0 0 0 0
          0 0 0 0 0 0
          0 0 0 0 0 0
          0 0 0 0 0 0
          0 0 0 0 0 0
          0 0 0 0 0 0
          0 0 0 0 0 0
          0 0 0 0 0 0
          0 0 0 0 0 0
          0 0 0 0 0 0
          0 0 0 0 0 0
          0 0 0 0 0 0
          0 0 0 0 0 0
          0 0 0 0 0 0
          0 0 0 0 0 0
          0 0 0 0 0 0
          0 0 0 0 0 0
          0 0 0 0 0 0
          0 0 0 0 0 0
          0 0 0 0 0 0
          0 0 0 0 0 0
          0 0 0 0 0 0
          0 0 0 0 0 0
          0 0 0 0 0 0
          0 0 0 0 0 0
          0 0 0 0 0 0
          0 0 0 0 0 0
          0 0 0 0 0 0
          0 0 0 0 0 0
          0 0 0 0 0 0
          0 0 0 0 0 0
          0 0 0 0 0 0
          0 0 0 0 0 0
          0 0 0 0 0 0
          0 0 0 0 0 0
          0 0 0 0 0 0
          0 0 0 0 0 0
          0 0 0 0 0 0
          0 0 0 0 0 0
          0 0 0 0 0 0
          0 0 0 0 0 0
          0 0 0 0 0 0
          0 0 0 0 0 0
          0 0 0 0 0 0
          0 0 0 0 0 0
          0 0 0 0 0 0
          0 0 0 0 0 0
          0 0 0 0 0 0
          0 0 0 0 0 0
          0 0 0 0 0 0
          0 0 0 0 0 0
          0 0 0 0 0 0
          0 0 0 0 0 0
          0 0 0 0 0 0
          <InformationKey name="L2_NORM_RANGE" location="vtkDataArray" length="2">
            <Value index="0">
              0
            </Value>
            <Value index="1">
              1
            </Value>
          </InformationKey>
        </DataArray>
        <DataArray type="Float64" Name="nsi_FIXNO" NumberOfComponents="3" format="ascii" RangeMin="1.4142135623730951" RangeMax="1.4142135623730951">
          1 1 0 -1 -1 0
          -1 -1 0 -1 -1 0
          1 1 0 1 1 0
          -1 -1 0 -1 -1 0
          -1 -1 0 -1 -1 0
          -1 -1 0 -1 -1 0
          -1 -1 0 -1 -1 0
          -1 -1 0 1 1 0
          -1 -1 0 -1 -1 0
          -1 -1 0 -1 -1 0
          -1 -1 0 -1 -1 0
          -1 -1 0 -1 -1 0
          -1 -1 0 -1 -1 0
          -1 -1 0 -1 -1 0
          -1 -1 0 -1 -1 0
          -1 -1 0 -1 -1 0
          1 1 0 -1 -1 0
          -1 -1 0 -1 -1 0
          1 1 0 -1 -1 0
          -1 -1 0 -1 -1 0
          -1 -1 0 -1 -1 0
          1 1 0 -1 -1 0
          -1 -1 0 -1 -1 0
          -1 -1 0 -1 -1 0
          -1 -1 0 -1 -1 0
          -1 -1 0 -1 -1 0
          -1 -1 0 -1 -1 0
          -1 -1 0 -1 -1 0
          -1 -1 0 -1 -1 0
          -1 -1 0 -1 -1 0
          1 1 0 -1 -1 0
          -1 -1 0 -1 -1 0
          -1 -1 0 -1 -1 0
          -1 -1 0 -1 -1 0
          -1 -1 0 1 1 0
          -1 -1 0 -1 -1 0
          -1 -1 0 -1 -1 0
          -1 -1 0 -1 -1 0
          -1 -1 0 -1 -1 0
          -1 -1 0 -1 -1 0
          -1 -1 0 -1 -1 0
          -1 -1 0 -1 -1 0
          -1 -1 0 -1 -1 0
          -1 -1 0 -1 -1 0
          1 1 0 -1 -1 0
          -1 -1 0 -1 -1 0
          -1 -1 0 -1 -1 0
          -1 -1 0 -1 -1 0
          -1 -1 0 -1 -1 0
          -1 -1 0 -1 -1 0
          -1 -1 0 -1 -1 0
          -1 -1 0 -1 -1 0
          -1 -1 0 -1 -1 0
          -1 -1 0 -1 -1 0
          -1 -1 0 -1 -1 0
          -1 -1 0 -1 -1 0
          -1 -1 0 -1 -1 0
          -1 -1 0 -1 -1 0
          -1 -1 0 -1 -1 0
          -1 -1 0 -1 -1 0
          -1 -1 0 1 1 0
          -1 -1 0 -1 -1 0
          -1 -1 0 -1 -1 0
          -1 -1 0 -1 -1 0
          -1 -1 0 -1 -1 0
          -1 -1 0 -1 -1 0
          -1 -1 0 -1 -1 0
          -1 -1 0 -1 -1 0
          -1 -1 0 -1 -1 0
          -1 -1 0 -1 -1 0
          -1 -1 0 -1 -1 0
          -1 -1 0 -1 -1 0
          -1 -1 0 -1 -1 0
          -1 -1 0 -1 -1 0
          1 1 0 -1 -1 0
          -1 -1 0 -1 -1 0
          -1 -1 0 -1 -1 0
          -1 -1 0 -1 -1 0
          -1 -1 0 -1 -1 0
          -1 -1 0 1 1 0
          -1 -1 0 -1 -1 0
          1 1 0 -1 -1 0
          1 1 0 -1 -1 0
          -1 -1 0 -1 -1 0
          -1 -1 0 1 1 0
          -1 -1 0 -1 -1 0
          -1 -1 0 -1 -1 0
          1 1 0 -1 -1 0
          1 1 0 -1 -1 0
          -1 -1 0 -1 -1 0
          -1 -1 0 -1 -1 0
          -1 -1 0 -1 -1 0
          1 1 0 -1 -1 0
          -1 -1 0 1 1 0
          1 1 0 -1 -1 0
          -1 -1 0 -1 -1 0
          -1 -1 0 -1 -1 0
          -1 -1 0 1 1 0
          -1 -1 0 -1 -1 0
          -1 -1 0 -1 -1 0
          -1 -1 0 -1 -1 0
          1 1 0 1 1 0
          -1 -1 0 1 1 0
          -1 -1 0 -1 -1 0
          -1 -1 0 -1 -1 0
          1 1 0 -1 -1 0
          -1 -1 0 -1 -1 0
          -1 -1 0 -1 -1 0
          1 1 0 -1 -1 0
          -1 -1 0 -1 -1 0
          1 1 0 -1 -1 0
          -1 -1 0 1 1 0
          1 1 0 -1 -1 0
          -1 -1 0 -1 -1 0
          -1 -1 0 -1 -1 0
          -1 -1 0 -1 -1 0
          -1 -1 0 1 1 0
          1 1 0 -1 -1 0
          1 1 0 1 1 0
          -1 -1 0 -1 -1 0
          1 1 0 -1 -1 0
          -1 -1 0 -1 -1 0
          -1 -1 0 1 1 0
          -1 -1 0 -1 -1 0
          -1 -1 0 1 1 0
          -1 -1 0 1 1 0
          -1 -1 0 -1 -1 0
          -1 -1 0 -1 -1 0
          -1 -1 0 -1 -1 0
          -1 -1 0 1 1 0
          1 1 0 -1 -1 0
          1 1 0 -1 -1 0
          1 1 0 -1 -1 0
          -1 -1 0 -1 -1 0
          1 1 0 -1 -1 0
          -1 -1 0 -1 -1 0
          -1 -1 0 -1 -1 0
          1 1 0 1 1 0
          -1 -1 0 -1 -1 0
          -1 -1 0 -1 -1 0
          -1 -1 0 -1 -1 0
          1 1 0 -1 -1 0
          -1 -1 0 -1 -1 0
          1 1 0 -1 -1 0
          1 1 0 1 1 0
          -1 -1 0 -1 -1 0
          -1 -1 0 -1 -1 0
          -1 -1 0 1 1 0
          1 1 0 -1 -1 0
          -1 -1 0 -1 -1 0
          -1 -1 0 1 1 0
          -1 -1 0 1 1 0
          -1 -1 0 -1 -1 0
          1 1 0 -1 -1 0
          -1 -1 0 1 1 0
          -1 -1 0 -1 -1 0
          1 1 0 -1 -1 0
          1 1 0 -1 -1 0
          -1 -1 0 1 1 0
          -1 -1 0 -1 -1 0
          -1 -1 0 -1 -1 0
          -1 -1 0 1 1 0
          -1 -1 0 -1 -1 0
          -1 -1 0 -1 -1 0
          -1 -1 0 -1 -1 0
          1 1 0 -1 -1 0
          -1 -1 0 -1 -1 0
          -1 -1 0 -1 -1 0
          -1 -1 0 1 1 0
          -1 -1 0 -1 -1 0
          -1 -1 0 -1 -1 0
          1 1 0 -1 -1 0
          -1 -1 0 -1 -1 0
          -1 -1 0 -1 -1 0
          -1 -1 0 1 1 0
          -1 -1 0 -1 -1 0
          -1 -1 0 -1 -1 0
          -1 -1 0 -1 -1 0
          1 1 0 -1 -1 0
          -1 -1 0 -1 -1 0
          -1 -1 0 -1 -1 0
          -1 -1 0 -1 -1 0
          -1 -1 0 -1 -1 0
          1 1 0 -1 -1 0
          -1 -1 0 -1 -1 0
          -1 -1 0 -1 -1 0
          -1 -1 0 -1 -1 0
          1 1 0 -1 -1 0
          -1 -1 0 -1 -1 0
          -1 -1 0 -1 -1 0
          -1 -1 0 -1 -1 0
          -1 -1 0 -1 -1 0
          1 1 0 -1 -1 0
          -1 -1 0 -1 -1 0
          -1 -1 0 -1 -1 0
          -1 -1 0 -1 -1 0
          -1 -1 0 -1 -1 0
          1 1 0 -1 -1 0
          -1 -1 0 -1 -1 0
          1 1 0 -1 -1 0
          -1 -1 0 -1 -1 0
          -1 -1 0 -1 -1 0
          -1 -1 0 -1 -1 0
          1 1 0 -1 -1 0
          -1 -1 0 -1 -1 0
          -1 -1 0 -1 -1 0
          -1 -1 0 -1 -1 0
          1 1 0 -1 -1 0
          -1 -1 0 1 1 0
          <InformationKey name="L2_NORM_RANGE" location="vtkDataArray" length="2">
            <Value index="0">
              1.4142135624
            </Value>
            <Value index="1">
              1.4142135624
            </Value>
          </InformationKey>
        </DataArray>
        <DataArray type="Float64" Name="Velocity" NumberOfComponents="3" format="ascii" RangeMin="0" RangeMax="1.4145246860445488">
          0 0 0 0.3184853836560595 0.02437730058083669 0
          0.7323663710898523 0.10034899610104843 0 0.5148157607056701 0.036772675003353496 0
          0 0 0 1 0 0
          0.7175097399416568 0.026440061165798803 0 0.3695487955314865 0.021861947268995725 0
          0.6434009535088703 0.03813667632592261 0 0.31177135335138806 0.004938408639774589 0
          0.6665937191862397 0.028691899631209924 0 0.5616350841917807 0.03307750037575141 0
          0.7022800629155013 -0.09742664859696441 0 0.7194797280463542 0.03240458605021039 0
          0.684704934614508 0.04714894721920422 0 0 0 0
          0.5053472318249563 0.026842910172361022 0 0.7255319450712494 0.059282052973124125 0
          0.6052480201822321 -0.004796215307013325 0 0.6490643004764631 0.04241979601753591 0
          0.6595031295938671 0.057518415398723766 0 0.6865018988859117 0.061128962890905 0
          0.4238651409038961 0.03651008850766272 0 0.3485448776753684 -0.02846301689081961 0
          0.7305199320222052 0.09761705963672242 0 0.6415244499775388 0.07995452883834196 0
          0.7404545650027758 0.11857520070495567 0 0.7123881837970175 0.0977813153918199 0
          0.32088557199871987 0.01210923249944834 0 0.5702341108662653 0.04697781560120947 0
          0.4447782388521301 0.0028100595790260027 0 0.6005720516831065 0.09032649857602734 0
          0 0 0 0.6200311152370234 0.08021965293322343 0
          0.73165398254959 0.1557654623338954 0 0.7557320006419468 0.1549975667191358 0
          0 0 0 0.7752139996073399 0.19097724636353863 0
          0.6512102791357628 0.1365434409920162 0 0.3225239455114274 0.009338896324821115 0
          0.5649187422401886 0.08530391313960392 0 0.200939143032515 0.005175457371406601 0
          0 0 0 0.4662696743315182 0.05055049626228456 0
          0.7643511544405555 0.1833298113894523 0 0.7536087202544262 0.22552119798295167 0
          0.8248427782728419 0.24647265783615452 0 0.6759127175134769 0.20918140253099232 0
          0.5173602858695532 0.09517449258292705 0 0.8089709670018592 0.28468179042677144 0
          0.3090142850477064 0.025039329196028838 0 0.4610964599896235 0.024709702920864607 0
          0.7946153391750519 0.15353137165788913 0 0.8753480256146627 0.27643263763532033 0
          0.5542280520268947 0.1671786890106293 0 0.6886676602776417 0.2920742596227406 0
          0.8676605227541975 0.3437326795497102 0 0.3501785824121734 0.04837741975608543 0
          0.7960949724671346 0.3720976074395574 0 0.5880287681204862 0.2556109957641949 0
          0 0 0 0.946503995607584 0.36506919183148795 0
          0.7035240355690506 0.3749561233880922 0 0.18601013062505078 0.011109389382715686 0
          0.9832646338050506 0.23778706825518878 0 0.37219099851182147 0.09324696580214893 0
          0.45716991705681453 0.19209736093469917 0 0.8712203611000364 0.4254549885434494 0
          0.5895111684349928 0.3352431981291232 0 0 0 0
          0.7483448905129143 0.10282717995887374 0 0.4678825649131409 0.2697090073491872 0
          0.7402238796459054 0.4655843698942236 0 1.0525208839921514 0.35965393237512827 0
          0.9630325494917921 0.4641642897282375 0 0.3275471856284373 0.12722471637337796 0
          0.21574965764892787 0.03628080308826079 0 0.5648435061696212 0.4152056042717158 0
          0.8482012464412394 0.5145367429104987 0 1.1162425819931847 0.28701010175624375 0
          0.4632864950910742 0.3454193694894279 0 0.7244597218428888 0.5160056022127296 0
          0.34163533516048405 0.1920396964003189 0 0.24619965098615795 0.06515125023924544 0
          1.0353404491652767 0.19354978596568653 0 0.6059185101228766 0.4982564672265003 0
          0.9595504505538515 0.5243761823263706 0 0.3414647290437193 0.2632498347507247 0
          0 0 0 0.8337471592220829 0.08450212347849914 0
          1.189617959109096 0.3832304455306898 0 0.787918650415931 0.565898663014691 0
          0.43689734239633865 0.42461965304408467 0 0.6394338334059549 0.5560171913149214 0
          1.2243802024021364 0.2764524764032734 0 0.23340820094341472 0.12191920048378599 0
          0.3125660177531838 0.3108037336615784 0 0.12391003859080796 0.016530994435133648 0
          0.24331793558858644 0.187041846969903 0 0.47808157161075604 0.010940924899428663 0
          0.9313957362925219 0.5647348495585287 0 0.42062390651354953 0.48157566040501354 0
          1.1467932775773106 0.47290562546030873 0 0.24490387689351029 0.2500681593201387 0
          0.6950337697747975 0.5888425017555983 0 0.2781349652874854 0.35082335017395505 0
          1.1695513700599185 0.14195711874811953 0 1.2938788475048426 0.33117433998390616 0
          0.14217714930452763 0.04483538317067313 0 0.5201877193880418 0.5605154444945352 0
          0.8046912716499496 0.572197581533072 0 0.2013875514964505 0.2717055869464985 0
          0.3244140305725012 0.4579772494879694 0 1.0804372666421707 0.4860457742292998 0
          0.9188005838446828 0.028709298348788794 0 0.137206984304367 0.07278761992967295 0
          0.5558997106766881 0.5594030944107888 0 0.21613268090852794 0.35110316353669296 0
          1.2699853988338565 0.35798744069312466 0 1.3480488989649984 0.195345568763597 0
          0.14182229848622013 0.12650402290316892 0 0 0 0
          0.15241292156910752 0.1956132118040644 0 0.3258433666388322 0.48290769809174683 0
          1.355692162689251 0.2592052086850051 0 0.16725099682023822 0.2827704349333035 0
          0.06021666030899778 0.008406299597664509 0 0.6557173749120611 0.5080575118703211 0
          0.15505877341878477 0.3305224677487694 0 0.9871726120069513 0.4239025615147773 0
          0.3633710053915626 0.4568849184824621 0 0.1097330213119644 0.19949644632040553 0
          1.179974650674246 0.33981500356943595 0 0.0797916952555195 0.03167070765200523 0
          0.10268065803225916 0.13189185308664955 0 1.2505659412209638 0.058836176528448206 0
          1.3150331051898716 0.25539733501543715 0 0.16225847955530825 0.3444654891310237 0
          0.08369140874293587 0.1934301141323352 0 1.402256799077507 0.15526975701516776 0
          0.428840601466197 0.3586782046993444 0 0.08615583677002377 0.09675195915539306 0
          0.07371339324375856 0.24206514173340216 0 0.07176071584646777 0.04476950890948457 0
          0.7657156654272067 0.3084495903222299 0 0.07792778796315945 0.13046969212457876 0
          0.06770736222788773 0.2079880740793617 0 0.0707685616676851 0.20899483029487295 0
          0 0 0 0.08449871799727368 0.21730426125163316 0
          0.9955780567532941 0.2545299830640528 0 1.3998013025026292 0.08169590265741992 0
          1.194974559551863 0.2115801090773116 0 0.04094710972461751 0.15541497711233762 0
          0.05949591781410541 0.058148616435128565 0 0.04690273928241282 0.1216154981948211 0
          0.926028093424708 0.007164656520605902 0 0.03216713094878604 0.13875913692784456 0
          0.021576058369846496 0.121949025620221 0 0 0 0
          0.054376645371385854 0.08670615847538457 0 0.4019115540084914 0.07067345093646321 0
          0 0 0 0.707164554843244 0.11297452171251314 0
          0 0 0 0.01750201145015292 0.09266329004953158 0
          0.029056892932015122 0.10820655227152176 0 0.039549099832066996 0.013998804942603492 0
          1.3294880474735087 0.07149564338975652 0 0 0 0
          0.011059425036443445 0.06894328338212662 0 0.04156077842418693 0.05654185678420886 0
          0.9286307981556411 0.07647486660275896 0 0.03225903049234692 0.07589181925986804 0
          0 0 0 0.018585116636969972 0.0770990744650058 0
          0 0 0 1.414461806103476 0.013337409940541365 0
          0.354652199363273 0.028036066335200505 0 0.0066193170927798875 0.055684655667763976 0
          1.131025826467501 0.03099921773246006 0 0.017976553684705146 0.06755752532175949 0
          0.6746739409037904 0.0402145196857121 0 0.03216981035824417 0.02269587613902532 0
          0 0 0 0.006828042649907549 0.043432629353311575 0
          1.4060599869343928 -0.0239092788265872 0 0 0 0
          0 0 0 0.013537699323756333 0.04703473928442295 0
          0.02497551016275471 0.02643031833592667 0 0.004834867736984491 0.034814419084225556 0
          0.018860182324420712 0.04064205162420634 0 0.3357644159204656 0.00023476794486170638 0
          0.012571659865939158 0.04012798237533118 0 0 0 0
          1.2539946946532727 -0.04343366484879327 0 0.6599496118207607 -0.021884873087973863 0
          0.9415303786866683 -0.05298655706556178 0 0.004377338409998229 0.02679875894602891 0
          1.1539953722404954 -0.09059770582503021 0 0.017475916855076264 0.0058975166870445335 0
          0 0 0 0 0 0
          0.014574172772967133 0.023599664097417306 0 0 0 0
          1.3144490356845882 -0.10997402733147968 0 0.00814285715082428 0.026262910000172782 0
          0.0036842135186113036 0.02035847114887455 0 0.3416632520352358 -0.02613348687801844 0
          0 0 0 1.392579865775107 -0.11939110386263624 0
          0.007754645321432708 0.020283229147026533 0 0.6741959093344322 -0.12041869277834735 0
          0.011866375236330662 0.010108294327827259 0 0.002901682648772975 0.014649922794605917 0
          0 0 0 0.9263537243557718 -0.1649982048979772 0
          0.004924047820856477 0.015519594349275854 0 1.3741433514883579 -0.11932494676237208 0
          0 0 0 0.002541864604309422 0.010607208658175462 0
          1.1294759270753951 -0.19151356637648273 0 0 0 0
          0 0 0 0.3898079813070394 -0.16817809134545006 0
          0.006343516717711618 0.008242681514173355 0 0.004849550244431312 0.010123433566232866 0
          0.9444214319450033 -0.04645290050944104 0 0.0015132065349558138 0.007000445655576773 0
          1.2798055071129737 -0.20044669706014803 0 1.2100869487681383 -0.09226867247021063 0
          0.006344572380593029 0.0021234244967666817 0 0 0 0
          0 0 0 0.6693449932530955 -0.2330247578423624 0
          0 0 0 0 0 0
          0.000911119200104633 0.00484585710185091 0 0.04592692050958184 -0.0737869695178774 0
          0 0 0 0.0027601649003596404 0.005650094817041326 0
          1.3560785300358233 -0.20135511805352874 0 0.8985030674235974 -0.2655539745044003 0
          0.003587082332984551 0.002716856937636264 0 0 0 0
          0.025848153009619946 -0.03303165929527092 0 0.0010562574870120352 0.0028187228907220856 0
          0.0023480007117834844 0.003406005549570262 0 0 0 0
          0.014851263620702725 -0.007914632248012107 0 0 0 0
          0.30864389862367114 -0.2075494409777963 0 1.3223641713407204 -0.17562671106384778 0
          0.001100992925032311 0.001941650086409183 0 1.0568027822371096 -0.29794769339076277 0
          0.0062385186403242825 0.009130682934682994 0 0.0020035945028904403 0.0004998997342894826 0
          0.0007935247926314146 0.0015737691345373654 0 0 0 0
          0 0 0 0.10139833214842132 -0.10672529220650737 0
          0 0 0 0.00213419321396722 0.014698901403355853 0
          0 0 0 1.2259016996997971 -0.2894374423594182 0
          0.0639229808383144 -0.05775456738811933 0 0.0010868053154991083 0.0008024697294174389 0
          0 0 0 0.0003702757244165253 0.0005748809442497668 0
          0.2560822769367944 -0.007637197701520006 0 0.5373879026081908 -0.2809409007967839 0
          0.0012542626648143183 0.01794132826366886 0 1.1615632604176929 -0.14288339373878314 0
          0 0 0 0 0 0
          0.001013627390891281 0.019153030004542874 0 0.00021978428589389005 0.000199663018302924 0
          0.28936796318300484 -0.21051134459313112 0 0.01682791495693505 -0.003303876886424475 0
          0.05181514586270719 -0.03755529317476204 0 0.770486228250683 -0.3254619138312369 0
          0 0 0 1.2899558780160705 -0.26145907482014297 0
          0.13841240446457898 -0.11891909770676312 0 0.00007895784710705568 0.02025333005896432 0
          0 0 0 0.010237257842403294 0.011458367403624646 0
          0 0 0 0 0 0
          0.004476095169327442 0.020938241081096227 0 0.00011676303389635562 -0.00014197907321255747 0
          -0.000563303837657532 0.019791965761125553 0 0.003946291186140316 0.025650933313822094 0
          0.7937119649713668 -0.0920002686181277 0 0 0 0
          0 0 0 0.4791006618895856 -0.2832494146893214 0
          -0.0004580813192959443 0.019090735317585452 0 0.9386406092631356 -0.3440787638315491 0
          1.245293219941805 -0.2282094389859063 0 0 0 0
          0.03410264626977871 -0.01292743056003097 0 0 0 0
          0.3056356029725553 -0.21655503344566712 0 0.000021424956753473647 0.03012666140672491 0
          0 0 0 -0.0007842033433399189 0.017875426796084025 0
          0.012954632115893396 0.02062505926726235 0 0 0 0
          -0.0005215438183622156 0.031317116983316705 0 0.1580140532369267 -0.12021562590880724 0
          0 0 0 -0.0011155603686857842 0.016312226289691225 0
          0 0 0 -0.0016712295062363757 0.02850754818069878 0
          0.6574918479448836 -0.32913048273180173 0 0 0 0
          -0.001402429351014223 0.014012366458116607 0 -0.0024102820811529677 0.026768087081741894 0
          1.089126331656207 -0.16466557517977953 0 0.4670393862205237 -0.27905115902448924 0
          0.00371874412987654 0.03132065063360087 0 0 0 0
          -0.0015587271656162108 0.011558256710280221 0 1.211335333456165 -0.30736810010141374 0
          0.05117955077686798 -0.02172697253055172 0 -0.004583628449367982 0.025819274886257067 0
          1.0415331203336016 -0.3675094960384232 0 0.2990302152281634 -0.20488930760776355 0
          0 0 0 -0.0013665732272410626 0.009219348488589227 0
          -0.0036611360698275645 0.034162498903951774 0 0.1357448655404235 -0.09742120079448018 0
          -0.005006414389394236 0.022048659871960218 0 0.029025594341064928 0.0021640597548624966 0
          0.8169054870226486 -0.36259230221711436 0 0 0 0
          -0.0013423094292988001 0.006811214248086967 0 -0.004419374306717116 0.01703780579753798 0
          0.6254745580553566 -0.3198848802680636 0 0.7102338288815393 -0.08251733466482725 0
          0 0 0 -0.0013323093556444668 0.004537718978043285 0
          -0.009848650408556708 0.028192530960945796 0 -0.004912041098504623 0.014088625914289376 0
          0.005381410871643248 0.023358734492415427 0 0.4532241184761928 -0.26419462239833796 0
          0.07483819072965232 -0.0495022578178627 0 0 0 0
          -0.0011725909254142052 0.0024259895436460222 0 1.1070611086107045 -0.35848652074819937 0
          -0.0046757508587533725 0.010136027416884234 0 -0.010319851418107128 0.021887953926009528 0
          0.2977822620247554 -0.19572672640892796 0 1.1522736542229437 -0.29989146728406335 0
          0 0 0 0.9547762597336683 -0.36706463162805186 0
          -0.004342713632963167 0.0066834207759885475 0 -0.0004837719912252933 0.00061886765692251 0
          0.04392397373895125 -0.01583785132180238 0 -0.010218970451436233 0.015183623006491396 0
          0.154642555077067 -0.11224606717364809 0 -0.003218661684633079 0.0035146090495901086 0
          0.6734830134512051 -0.3244952044730126 0 -0.010338433008824968 0.01822189417904878 0
          0 0 0 1.0122688224142944 -0.208058602980874 0
          0.31957851685004507 -0.01765633417798163 0 -0.008155256620090302 0.007273659998926135 0
          -0.016947900191018297 0.01783159313464112 0 -0.015623343535622168 0.015530646631520496 0
          0.10202890276789055 -0.0702228515003997 0 0.4269496008286469 -0.2538523896593141 0
          0 0 0 -0.00374453646621484 0.0017141105191696947 0
          1.042911964512005 -0.3294823057543589 0 0.0030698067000520988 -0.013475783803327025 0
          -0.01559664841806946 0.00873589495338749 0 -0.01645755983980111 0.0038315181066608988 0
          0.8237267014721845 -0.33477891004904176 0 0.20187077488307853 -0.14704888354600038 0
          0.5557478027564828 -0.0738269746262891 0 -0.020914439290866428 0.008093695696423762 0
          0 0 0 -0.00941676215159741 0.0025684500848702297 0
          0.5651384463588598 -0.2941552583702156 0 1.0882536653286539 -0.2744907261083366 0
          0.04986408660366348 -0.06182820057313488 0 0.34632796252652137 -0.22537818588881817 0
          -0.0012164679989003094 -0.023118076923099137 0 -0.017790182495808826 -0.005194575375844158 0
          -0.016117166694978098 0.001970672570439974 0 0.9769351945405407 -0.3215128804305411 0
          0 0 0 -0.019814718144154076 0.0014649785626470702 0
          0.7466681690818023 -0.33956412828052734 0 0.48661182285932875 -0.288166591429392 0
          0 0 0 0.13594654896573904 -0.13015164042427 0
          0.03568514440866628 -0.06394776093090179 0 0.9654192407977589 -0.09790485794901312 0
          0.0004558556764358462 -0.030092889434293935 0 -0.015093395126262135 0.00037903247721665417 0
          -0.013316561122157618 -0.009523861228414008 0 0.2811542242271913 -0.22500603738723804 0
          0 0 0 0.9910121669391851 -0.38532228078400027 0
          -0.010928820770418592 -0.0003231127105518428 0 0.10708074684321114 -0.13726721035664363 0
          0.03372138244346479 -0.061665468098348025 0 0.5652723549701345 -0.42397639214779276 0
          0.004077979373201407 -0.01781509584431356 0 0.25178965937318276 -0.28988643260637426 0
          0 0 0 0.036379934632717284 -0.03768047399181163 0
          0.10885135368665992 -0.11561686804824466 0 0 0 0
          <InformationKey name="L2_NORM_RANGE" location="vtkDataArray" length="2">
            <Value index="0">
              0
            </Value>
            <Value index="1">
              1.414524686
            </Value>
          </InformationKey>
        </DataArray>
        <DataArray type="Float64" Name="Pressure" format="ascii" RangeMin="-8.452078611972277" RangeMax="36.90729109237255">
          36.24561565068843 36.40489605376732 36.73001182993095 36.18097559437824 35.99998827005665 36.77196639414298
          36.04146604730627 35.49131471057429 35.348982165968664 34.585744840082185 36.09312590915223 34.37139878720407
          36.90729109237255 35.29778871753032 34.37986696457901 33.58158072315946 33.42891247138654 34.48895424060922
          36.48153179629667 35.53328542208103 33.29237871479907 34.747122704144545 32.36055043247583 36.87392600959466
          33.485976568641476 32.19420636496042 32.30944905352543 33.91276546469816 31.4291641085186 34.917507081008004
          35.8985401928022 30.87154395000648 36.694094179999595 34.18465621973919 33.07493852893308 31.15246235737392
          30.342336143183644 31.56266938745556 33.52897632835663 35.18313650996971 29.490820588690728 35.59818470248645
          36.71690310590479 34.357987404046135 29.653592825064756 32.13548752129385 30.144293144424473 32.804646872485066
          33.86096765686812 30.765319526794688 34.480034829936564 27.52895337962296 27.858675334295516 28.506988093877347
          33.41055585414511 32.072790809890186 29.342531257984366 33.996463454339526 30.217151742083267 32.78754803669417
          34.71590265583583 27.512435530214624 31.17013119698252 34.090419940816986 25.84319445365822 33.76726816015316