<?xml version="1.0"?>
<VTKFile type="UnstructuredGrid" version="0.1" byte_order="LittleEndian" header_type="UInt32" compressor="vtkZLibDataCompressor">
  <UnstructuredGrid>
    <Piece NumberOfPoints="418" NumberOfCells="757">
      <PointData>
        <DataArray type="Float64" Name="nsi_BC" NumberOfComponents="3" format="ascii" RangeMin="0" RangeMax="1">
          0 0 0 0 0 0
          0 0 0 0 0 0
          0 0 0 1 0 0
          0 0 0 0 0 0
          0 0 0 0 0 0
          0 0 0 0 0 0
          0 0 0 0 0 0
          0 0 0 0 0 0
          0 0 0 0 0 0
          0 0 0 0 0 0
          0 0 0 0 0 0
          0 0 0 0 0 0
          0 0 0 0 0 0
          0 0 0 0 0 0
          0 0 0 0 0 0
          0 0 0 0 0 0
          0 0 0 0 0 0
          0 0 0 0 0 0
          0 0 0 0 0 0
          0 0 0 0 0 0
          0 0 0 0 0 0
          0 0 0 0 0 0
          0 0 0 0 0 0
          0 0 0 0 0 0
          0 0 0 0 0 0
          0 0 0 0 0 0
          0 0 0 0 0 0
          0 0 0 0 0 0
          0 0 0 0 0 0
          0 0 0 0 0 0
          0 0 0 0 0 0
          0 0 0 0 0 0
          0 0 0 0 0 0
          0 0 0 0 0 0
          0 0 0 0 0 0
          0 0 0 0 0 0
          0 0 0 0 0 0
          0 0 0 0 0 0
          0 0 0 0 0 0
          0 0 0 0 0 0
          0 0 0 0 0 0
          0 0 0 0 0 0
          0 0 0 0 0 0
          0 0 0 0 0 0
          0 0 0 0 0 0
          0 0 0 0 0 0
          0 0 0 0 0 0
          0 0 0 0 0 0
          0 0 0 0 0 0
          0 0 0 0 0 0
          0 0 0 0 0 0
          0 0 0 0 0 0
          0 0 0 0 0 0
          0 0 0 0 0 0
          0 0 0 0 0 0
          0 0 0 0 0 0
          0 0 0 0 0 0
          0 0 0 0 0 0
          0 0 0 0 0 0
          0 0 0 0 0 0
          0 0 0 0 0 0
          0 0 0 0 0 0
          0 0 0 0 0 0
          0 0 0 0 0 0
          0 0 0 0 0 0
          0 0 0 0 0 0
          0 0 0 0 0 0
          0 0 0 0 0 0
          0 0 0 0 0 0
          0 0 0 0 0 0
          0 0 0 0 0 0
          0 0 0 0 0 0
          0 0 0 0 0 0
          0 0 0 0 0 0
          0 0 0 0 0 0
          0 0 0 0 0 0
          0 0 0 0 0 0
          0 0 0 0 0 0
          0 0 0 0 0 0
          0 0 0 0 0 0
          0 0 0 0 0 0
          0 0 0 0 0 0
          0 0 0 0 0 0
          0 0 0 0 0 0
          0 0 0 0 0 0
          0 0 0 0 0 0
          0 0 0 0 0 0
          0 0 0 0 0 0
          0 0 0 0 0 0
          0 0 0 0 0 0
          0 0 0 0 0 0
          0 0 0 0 0 0
          0 0 0 0 0 0
          0 0 0 0 0 0
          0 0 0 0 0 0
          0 0 0 0 0 0
          0 0 0 0 0 0
          0 0 0 0 0 0
          0 0 0 0 0 0
          0 0 0 0 0 0
          0 0 0 0 0 0
          0 0 0 0 0 0
          0 0 0 0 0 0
          0 0 0 0 0 0
          0 0 0 0 0 0
          0 0 0 0 0 0
          0 0 0 0 0 0
          0 0 0 0 0 0
          0 0 0 0 0 0
          0 0 0 0 0 0
          0 0 0 0 0 0
          0 0 0 0 0 0
          0 0 0 0 0 0
          0 0 0 0 0 0
          0 0 0 0 0 0
          0 0 0 0 0 0
          0 0 0 0 0 0
          0 0 0 0 0 0
          0 0 0 0 0 0
          0 0 0 0 0 0
          0 0 0 0 0 0
          0 0 0 0 0 0
          0 0 0 0 0 0
          0 0 0 0 0 0
          0 0 0 0 0 0
          0 0 0 0 0 0
          0 0 0 0 0 0
          0 0 0 0 0 0
          0 0 0 0 0 0
          0 0 0 0 0 0
          0 0 0 0 0 0
          0 0 0 0 0 0
          0 0 0 0 0 0
          0 0 0 0 0 0
          0 0 0 0 0 0
          0 0 0 0 0 0
          0 0 0 0 0 0
          0 0 0 0 0 0
          0 0 0 0 0 0
          0 0 0 0 0 0
          0 0 0 0 0 0
          0 0 0 0 0 0
          0 0 0 0 0 0
          0 0 0 0 0 0
          0 0 0 0 0 0
          0 0 0 0 0 0
          0 0 0 0 0 0
          0 0 0 0 0 0
          0 0 0 0 0 0
          0 0 0 0 0 0
          0 0 0 0 0 0
          0 0 0 0 0 0
          0 0 0 0 0 0
          0 0 0 0 0 0
          0 0 0 0 0 0
          0 0 0 0 0 0
          0 0 0 0 0 0
          0 0 0 0 0 0
          0 0 0 0 0 0
          0 0 0 0 0 0
          0 0 0 0 0 0
          0 0 0 0 0 0
          0 0 0 0 0 0
          0 0 0 0 0 0
          0 0 0 0 0 0
          0 0 0 0 0 0
          0 0 0 0 0 0
          0 0 0 0 0 0
          0 0 0 0 0 0
          0 0 0 0 0 0
          0 0 0 0 0 0
          0 0 0 0 0 0
          0 0 0 0 0 0
          0 0 0 0 0 0
          0 0 0 0 0 0
          0 0 0 0 0 0
          0 0 0 0 0 0
          0 0 0 0 0 0
          0 0 0 0 0 0
          0 0 0 0 0 0
          0 0 0 0 0 0
          0 0 0 0 0 0
          0 0 0 0 0 0
          0 0 0 0 0 0
          0 0 0 0 0 0
          0 0 0 0 0 0
          0 0 0 0 0 0
          0 0 0 0 0 0
          0 0 0 0 0 0
          0 0 0 0 0 0
          0 0 0 0 0 0
          0 0 0 0 0 0
          0 0 0 0 0 0
          0 0 0 0 0 0
          0 0 0 0 0 0
          0 0 0 0 0 0
          0 0 0 0 0 0
          0 0 0 0 0 0
          0 0 0 0 0 0
          0 0 0 0 0 0
          0 0 0 0 0 0
          0 0 0 0 0 0
          0 0 0 0 0 0
          0 0 0 0 0 0
          0 0 0 0 0 0
          0 0 0 0 0 0
          0 0 0 0 0 0
          0 0 0 0 0 0
          0 0 0 0 0 0
          <InformationKey name="L2_NORM_RANGE" location="vtkDataArray" length="2">
            <Value index="0">
              0
            </Value>
            <Value index="1">
              1
            </Value>
          </InformationKey>
        </DataArray>
        <DataArray type="Float64" Name="nsi_FIXNO" NumberOfComponents="3" format="ascii" RangeMin="1.4142135623730951" RangeMax="1.4142135623730951">
          1 1 0 -1 -1 0
          -1 -1 0 -1 -1 0
          1 1 0 1 1 0
          -1 -1 0 -1 -1 0
          -1 -1 0 -1 -1 0
          -1 -1 0 -1 -1 0
          -1 -1 0 -1 -1 0
          -1 -1 0 1 1 0
          -1 -1 0 -1 -1 0
          -1 -1 0 -1 -1 0
          -1 -1 0 -1 -1 0
          -1 -1 0 -1 -1 0
          -1 -1 0 -1 -1 0
          -1 -1 0 -1 -1 0
          -1 -1 0 -1 -1 0
          -1 -1 0 -1 -1 0
          1 1 0 -1 -1 0
          -1 -1 0 -1 -1 0
          1 1 0 -1 -1 0
          -1 -1 0 -1 -1 0
          -1 -1 0 -1 -1 0
          1 1 0 -1 -1 0
          -1 -1 0 -1 -1 0
          -1 -1 0 -1 -1 0
          -1 -1 0 -1 -1 0
          -1 -1 0 -1 -1 0
          -1 -1 0 -1 -1 0
          -1 -1 0 -1 -1 0
          -1 -1 0 -1 -1 0
          -1 -1 0 -1 -1 0
          1 1 0 -1 -1 0
          -1 -1 0 -1 -1 0
          -1 -1 0 -1 -1 0
          -1 -1 0 -1 -1 0
          -1 -1 0 1 1 0
          -1 -1 0 -1 -1 0
          -1 -1 0 -1 -1 0
          -1 -1 0 -1 -1 0
          -1 -1 0 -1 -1 0
          -1 -1 0 -1 -1 0
          -1 -1 0 -1 -1 0
          -1 -1 0 -1 -1 0
          -1 -1 0 -1 -1 0
          -1 -1 0 -1 -1 0
          1 1 0 -1 -1 0
          -1 -1 0 -1 -1 0
          -1 -1 0 -1 -1 0
          -1 -1 0 -1 -1 0
          -1 -1 0 -1 -1 0
          -1 -1 0 -1 -1 0
          -1 -1 0 -1 -1 0
          -1 -1 0 -1 -1 0
          -1 -1 0 -1 -1 0
          -1 -1 0 -1 -1 0
          -1 -1 0 -1 -1 0
          -1 -1 0 -1 -1 0
          -1 -1 0 -1 -1 0
          -1 -1 0 -1 -1 0
          -1 -1 0 -1 -1 0
          -1 -1 0 -1 -1 0
          -1 -1 0 1 1 0
          -1 -1 0 -1 -1 0
          -1 -1 0 -1 -1 0
          -1 -1 0 -1 -1 0
          -1 -1 0 -1 -1 0
          -1 -1 0 -1 -1 0
          -1 -1 0 -1 -1 0
          -1 -1 0 -1 -1 0
          -1 -1 0 -1 -1 0
          -1 -1 0 -1 -1 0
          -1 -1 0 -1 -1 0
          -1 -1 0 -1 -1 0
          -1 -1 0 -1 -1 0
          -1 -1 0 -1 -1 0
          1 1 0 -1 -1 0
          -1 -1 0 -1 -1 0
          -1 -1 0 -1 -1 0
          -1 -1 0 -1 -1 0
          -1 -1 0 -1 -1 0
          -1 -1 0 1 1 0
          -1 -1 0 -1 -1 0
          1 1 0 -1 -1 0
          1 1 0 -1 -1 0
          -1 -1 0 -1 -1 0
          -1 -1 0 1 1 0
          -1 -1 0 -1 -1 0
          -1 -1 0 -1 -1 0
          1 1 0 -1 -1 0
          1 1 0 -1 -1 0
          -1 -1 0 -1 -1 0
          -1 -1 0 -1 -1 0
          -1 -1 0 -1 -1 0
          1 1 0 -1 -1 0
          -1 -1 0 1 1 0
          1 1 0 -1 -1 0
          -1 -1 0 -1 -1 0
          -1 -1 0 -1 -1 0
          -1 -1 0 1 1 0
          -1 -1 0 -1 -1 0
          -1 -1 0 -1 -1 0
          -1 -1 0 -1 -1 0
          1 1 0 1 1 0
          -1 -1 0 1 1 0
          -1 -1 0 -1 -1 0
          -1 -1 0 -1 -1 0
          1 1 0 -1 -1 0
          -1 -1 0 -1 -1 0
          -1 -1 0 -1 -1 0
          1 1 0 -1 -1 0
          -1 -1 0 -1 -1 0
          1 1 0 -1 -1 0
          -1 -1 0 1 1 0
          1 1 0 -1 -1 0
          -1 -1 0 -1 -1 0
          -1 -1 0 -1 -1 0
          -1 -1 0 -1 -1 0
          -1 -1 0 1 1 0
          1 1 0 -1 -1 0
          1 1 0 1 1 0
          -1 -1 0 -1 -1 0
          1 1 0 -1 -1 0
          -1 -1 0 -1 -1 0
          -1 -1 0 1 1 0
          -1 -1 0 -1 -1 0
          -1 -1 0 1 1 0
          -1 -1 0 1 1 0
          -1 -1 0 -1 -1 0
          -1 -1 0 -1 -1 0
          -1 -1 0 -1 -1 0
          -1 -1 0 1 1 0
          1 1 0 -1 -1 0
          1 1 0 -1 -1 0
          1 1 0 -1 -1 0
          -1 -1 0 -1 -1 0
          1 1 0 -1 -1 0
          -1 -1 0 -1 -1 0
          -1 -1 0 -1 -1 0
          1 1 0 1 1 0
          -1 -1 0 -1 -1 0
          -1 -1 0 -1 -1 0
          -1 -1 0 -1 -1 0
          1 1 0 -1 -1 0
          -1 -1 0 -1 -1 0
          1 1 0 -1 -1 0
          1 1 0 1 1 0
          -1 -1 0 -1 -1 0
          -1 -1 0 -1 -1 0
          -1 -1 0 1 1 0
          1 1 0 -1 -1 0
          -1 -1 0 -1 -1 0
          -1 -1 0 1 1 0
          -1 -1 0 1 1 0
          -1 -1 0 -1 -1 0
          1 1 0 -1 -1 0
          -1 -1 0 1 1 0
          -1 -1 0 -1 -1 0
          1 1 0 -1 -1 0
          1 1 0 -1 -1 0
          -1 -1 0 1 1 0
          -1 -1 0 -1 -1 0
          -1 -1 0 -1 -1 0
          -1 -1 0 1 1 0
          -1 -1 0 -1 -1 0
          -1 -1 0 -1 -1 0
          -1 -1 0 -1 -1 0
          1 1 0 -1 -1 0
          -1 -1 0 -1 -1 0
          -1 -1 0 -1 -1 0
          -1 -1 0 1 1 0
          -1 -1 0 -1 -1 0
          -1 -1 0 -1 -1 0
          1 1 0 -1 -1 0
          -1 -1 0 -1 -1 0
          -1 -1 0 -1 -1 0
          -1 -1 0 1 1 0
          -1 -1 0 -1 -1 0
          -1 -1 0 -1 -1 0
          -1 -1 0 -1 -1 0
          1 1 0 -1 -1 0
          -1 -1 0 -1 -1 0
          -1 -1 0 -1 -1 0
          -1 -1 0 -1 -1 0
          -1 -1 0 -1 -1 0
          1 1 0 -1 -1 0
          -1 -1 0 -1 -1 0
          -1 -1 0 -1 -1 0
          -1 -1 0 -1 -1 0
          1 1 0 -1 -1 0
          -1 -1 0 -1 -1 0
          -1 -1 0 -1 -1 0
          -1 -1 0 -1 -1 0
          -1 -1 0 -1 -1 0
          1 1 0 -1 -1 0
          -1 -1 0 -1 -1 0
          -1 -1 0 -1 -1 0
          -1 -1 0 -1 -1 0
          -1 -1 0 -1 -1 0
          1 1 0 -1 -1 0
          -1 -1 0 -1 -1 0
          1 1 0 -1 -1 0
          -1 -1 0 -1 -1 0
          -1 -1 0 -1 -1 0
          -1 -1 0 -1 -1 0
          1 1 0 -1 -1 0
          -1 -1 0 -1 -1 0
          -1 -1 0 -1 -1 0
          -1 -1 0 -1 -1 0
          1 1 0 -1 -1 0
          -1 -1 0 1 1 0
          <InformationKey name="L2_NORM_RANGE" location="vtkDataArray" length="2">
            <Value index="0">
              1.4142135624
            </Value>
            <Value index="1">
              1.4142135624
            </Value>
          </InformationKey>
        </DataArray>
        <DataArray type="Float64" Name="Velocity" NumberOfComponents="3" format="ascii" RangeMin="0" RangeMax="1.410701750006622">
          0 0 0 0.32614098698171906 0.029010263198992095 0
          0.7289442476611032 0.11923693519865239 0 0.5349576748834431 0.05742481706658778 0
          0 0 0 1 0 0
          0.6959760234124163 0.04401517577010792 0 0.4011217796982374 0.03450535100493123 0
          0.6411996266926407 0.05230384646592751 0 0.352216730522299 0.00589607922104471 0
          0.6436341634361661 0.016911484129155066 0 0.5849129754103659 0.04220185763823488 0
          0.6991314368771445 -0.10255012249997265 0 0.6612822970506955 0.03329058196340592 0
          0.6521833665108037 0.05247651065809297 0 0 0 0
          0.5559027083605902 0.023690035950132395 0 0.6591296830919193 0.05750317711539233 0
          0.6122779382541423 -0.024740334127030028 0 0.6234779890667372 0.024775032456974332 0
          0.6586061029274047 0.0561987590399331 0 0.631300506861846 0.05116044398313684 0
          0.4686355099159679 0.03658424107088231 0 0.3475982575811097 -0.03151489254643456 0
          0.6712521112258458 0.09088954118367774 0 0.6673393197823612 0.07328505489512617 0
          0.7105224277390103 0.10886420244056833 0 0.6385274055167071 0.08841010130450033 0
          0.35616444959941607 0.01042287951947717 0 0.5658122657225564 0.0338380226536706 0
          0.4688430711624349 -0.01591747160983247 0 0.6386629220194248 0.08520257180813597 0
          0 0 0 0.5863733166860579 0.07055600198382513 0
          0.6531251419098079 0.14338104045987385 0 0.7480517025956577 0.14111540495497082 0
          0 0 0 0.7283743336807386 0.17557740416964962 0
          0.5950591478334464 0.1271375772902237 0 0.3665027474095482 0.004774125471915246 0
          0.6066403634307275 0.07925014883263708 0 0.22691854519503196 0.004772055426606129 0
          0 0 0 0.49061548360067536 0.04269638192401277 0
          0.7730092727898816 0.16800266363123897 0 0.6815025957687549 0.20648765927371476 0
          0.789937816335857 0.2243063535112441 0 0.6092345667603453 0.19650580534132334 0
          0.5168066703112516 0.09013419968210645 0 0.7468623031858584 0.26103790592421305 0
          0.35816047735912904 0.02232734358020911 0 0.48985807407602255 0.02083873071923747 0
          0.8145771923871741 0.13727748701568732 0 0.8539481406240065 0.25188352786917484 0
          0.527395283459073 0.16301116010150885 0 0.6237206123567084 0.2786173318833322 0
          0.8156734114642592 0.31717812104523146 0 0.3994043425121695 0.047458075794488075 0
          0.7361832995332451 0.35058043705989655 0 0.5446792882966445 0.25045335778848987 0
          0 0 0 0.9068916115472087 0.33807020471853694 0
          0.6473140909748644 0.36470120017834745 0 0.2255349050956495 0.011084158164090873 0
          0.98128044107069 0.21253645479787125 0 0.409671348307888 0.09644261195465846 0
          0.45255957042314476 0.19660123734109372 0 0.8199465275706264 0.40595706950041477 0
          0.5460225103037061 0.33520568847819554 0 0 0 0
          0.7671364798871259 0.08913638118352554 0 0.45052993941268 0.27889593832104465 0
          0.6915705152914796 0.45973502039123554 0 1.0255237937315447 0.3344763628688683 0
          0.9230053071234097 0.4458384287573365 0 0.3604862132978178 0.13722623636745843 0
          0.2677592481941206 0.03744439348478441 0 0.5302109267209549 0.42631268436420733 0
          0.8075651009447675 0.5089104465377738 0 1.1035766497868207 0.2621462427227166 0
          0.4423773182947836 0.3636814011097257 0 0.6883476523720667 0.5225026376427055 0
          0.35622704570969965 0.20911886544483888 0 0.2951067954374271 0.07243357331943072 0
          1.0357501339237702 0.17412956568224042 0 0.5759296813806166 0.5159791843382976 0
          0.9308257687338349 0.5206947311671717 0 0.3425479152692077 0.28865450470298004 0
          0 0 0 0.8435592718426727 0.07479297952662739 0
          1.1682844283106846 0.3630848303045863 0 0.7631387028839791 0.5778496236638534 0
          0.41901524523601275 0.4556838993971557 0 0.618338957427035 0.5791541373673071 0
          1.21191155762313 0.2542868115114201 0 0.270700687713184 0.14031750097812704 0
          0.30934073221138964 0.3475394841271611 0 0.16445095183670727 0.019278333646270133 0
          0.2653427724212768 0.21662079430605968 0 0.479800350809646 0.008296387446157797 0
          0.9199985310592688 0.5746887212923408 0 0.4067546795257586 0.5193129415684645 0
          1.1332073374418896 0.4658244848531229 0 0.2529072319744063 0.2894307557999264 0
          0.6844683728998676 0.6137425915190701 0 0.2735107062415971 0.3948642063375869 0
          1.162949413025982 0.12392467971242814 0 1.2801584891926778 0.3123286445830151 0
          0.18774765968774906 0.05387852367307602 0 0.5106459151111976 0.5940897069698945 0
          0.8039956499399025 0.5916427197244921 0 0.20448187154994887 0.3183771824193315 0
          0.3170003345209081 0.4983142150274117 0 1.0819824809687326 0.49082089649049476 0
          0.9167286475159412 0.020535423640824634 0 0.17820910208832347 0.09018289030655528 0
          0.5539871727600538 0.5879973370930831 0 0.2128698316203462 0.39730671223535097 0
          1.2686872410645829 0.3487962026809554 0 1.335785673131648 0.17497508485177024 0
          0.16877040502479612 0.15972081744254688 0 0 0 0
          0.16342761593473135 0.240336416939359 0 0.32198875956492806 0.5171037602904889 0
          1.3472525528497592 0.24276173281121877 0 0.16727044800774388 0.33004903965773186 0
          0.08450248596002373 0.01067367529778363 0 0.6609867407795851 0.5276343891254909 0
          0.1521047640802248 0.36812960833638536 0 0.9982978362709828 0.431471475692817 0
          0.36447868543283024 0.4807660846349249 0 0.11456399149119967 0.24587708556951798 0
          1.1917521750283049 0.3373413522484837 0 0.11427143754369312 0.040991270863876314 0
          0.1209174584906676 0.17084166172566934 0 1.237761757122845 0.04342669813371077 0
          1.3204329194127555 0.24308954176208708 0 0.16085350551237312 0.3699592064289638 0
          0.08509117270282765 0.23458015368448998 0 1.3978806481134805 0.13324659293667043 0
          0.43401654087451297 0.3712380652404135 0 0.10676301815927208 0.12970702021927988 0
          0.07253751683767634 0.2670108020462136 0 0.10367832732841854 0.059853767330794234 0
          0.7775286009429009 0.31464732556750885 0 0.08797105201365593 0.1723054529899988 0
          0.06739027702306476 0.2420283665226027 0 0.07040151812494093 0.23693262677831592 0
          0 0 0 0.08449113375727653 0.2298676691251333 0
          1.012627465261002 0.25356274290449804 0 1.3850295741490672 0.059184581855274476 0
          1.2124711166139255 0.20184654100809973 0 0.04064682155444894 0.1687561723391275 0
          0.08278158705852402 0.08251555375741133 0 0.05037530978622602 0.15874736826656893 0
          0.9163464188667868 0.0005947548928004445 0 0.032162837703434775 0.16712153988836878 0
          0.02132104174167243 0.13591743561871653 0 0 0 0
          0.06706844900940115 0.1214486504615168 0 0.40735789632789526 0.07086902949359529 0
          0 0 0 0.7209439917956255 0.11123046910806081 0
          0 0 0 0.017433119237875806 0.10682724214028341 0
          0.0301030453659778 0.13593785281129545 0 0.060925696645608804 0.019294216630894777 0
          1.3437620460119952 0.047156799858546615 0 0 0 0
          0.011073131191459093 0.08319928583093378 0 0.056715764837316836 0.0839292197016702 0
          0.9508815013938169 0.06689872427591129 0 0.03780539704903779 0.10736159674385524 0
          0 0 0 0.020001186441027736 0.10144764240976163 0
          0 0 0 1.4106289217266923 -0.014334317560835325 0
          0.3607819475357094 0.02719606273528693 0 0.006711048883252274 0.06988464822416914 0
          1.1556356754059582 0.010168096356223788 0 0.019774028549986476 0.09261258943337179 0
          0.6917520474972654 0.034795080513028785 0 0.051534321763213216 0.033485518299649894 0
          0 0 0 0.007216937545599739 0.0571156691702375 0
          1.3844331525677196 -0.04765414000726923 0 0 0 0
          0 0 0 0.01591565982141353 0.06804797821065413 0
          0.03936445163167047 0.041848062029522674 0 0.005260709258644297 0.04777893758032716 0
          0.025595469221315913 0.06392073634982298 0 0.3441151084609974 -0.002440631717533341 0
          0.015290862002698243 0.060860151754795505 0 0 0 0
          1.2292663818896417 -0.05826458986103535 0 0.6819398089257478 -0.033273431134157413 0
          0.9724554455351391 -0.07689918146194488 0 0.004969575104655402 0.03887522194389774 0
          1.181649728381159 -0.12717183981028207 0 0.029187946172260993 0.009120080549064375 0
          0 0 0 0 0 0
          0.022205778397756747 0.040136055756320475 0 0 0 0
          1.3243576531787977 -0.1496023359892223 0 0.011035796868412238 0.04234124758697431 0
          0.00442190034931638 0.031245301032978817 0 0.3545008160241463 -0.032232657382640015 0
          0 0 0 1.3791654017805646 -0.1550305435528507 0
          0.01082767872516655 0.03428742391142877 0 0.7043581115893565 -0.14862210689147745 0
          0.021408406765698922 0.016807019828165404 0 0.003716899921485141 0.02420925579842002 0
          0 0 0 0.9608932861894323 -0.20887163551186583 0
          0.007859154299285161 0.02778185672485643 0 1.3423204354406917 -0.1451237752903157 0
          0 0 0 0.003550839821377684 0.01866282916988726 0
          1.154394689726515 -0.2430838437372047 0 0 0 0
          0 0 0 0.4140796995162761 -0.20241714086636736 0
          0.01151195272135693 0.01612885195679481 0 0.007793879916088444 0.019449808682321275 0
          0.9221074485190649 -0.05412496559732578 0 0.0023445688258178204 0.01349499165887812 0
          1.2822627533867303 -0.2497824508633707 0 1.1777792094111528 -0.1069980606873606 0
          0.011603863021887682 0.0038724625279696716 0 0 0 0
          0 0 0 0.7031635366648814 -0.28833087957721976 0
          0 0 0 0 0 0
          0.0015893584407931094 0.009944045302848025 0 0.05073835881991558 -0.10737647974908135 0
          0 0 0 0.005055396945566097 0.011742943357170365 0
          1.332241001581335 -0.23992130399168088 0 0.9297516629573633 -0.33240596568522823 0
          0.007482182048359936 0.005582385214837623 0 0 0 0
          0.02811325517459245 -0.06308557508018946 0 0.0018059647448326502 0.006538858612332065 0
          0.004476866549443218 0.007615219958190038 0 0 0 0
          0.016126994023715563 -0.03563531009434919 0 0 0 0
          0.3303071369448564 -0.27505713208830046 0 1.2800601853017408 -0.19818305444960627 0
          0.002617391050176043 0.0046788902997873015 0 1.0713172755982985 -0.36821793194401636 0
          0.0068975944974878954 -0.016877011561372047 0 0.004046744957367845 0.0012772723799729636 0
          0.0015304120747528234 0.004127094242371491 0 0 0 0
          0 0 0 0.1093298286303225 -0.1701740841621743 0
          0 0 0 0.002441508650341826 -0.010485344955195288 0
          0 0 0 1.211252389979459 -0.3439777173609266 0
          0.06921566433846697 -0.11816061332428297 0 0.0025116320255560557 0.0021130527448376657 0
          0 0 0 0.0008446736356444464 0.0020710162713615875 0
          0.247976687248125 -0.007447151664389566 0 0.5647969010177342 -0.3705108945684702 0
          0.0018097045167960947 -0.00631774201624377 0 1.1218577501798996 -0.15053266085512776 0
          0 0 0 0 0 0
          0.0018811077305298986 -0.003898886109177651 0 0.0006088835902036923 0.0009940984716947006 0
          0.30718247408167754 -0.3031219760163744 0 0.0187907832780967 -0.058597252539709634 0
          0.056367404807557905 -0.10691310139002683 0 0.7915231098674483 -0.41797264128993106 0
          0 0 0 1.2488465204984363 -0.29333763002872737 0
          0.14742401560184465 -0.20684073838016245 0 0.0010713355972161466 -0.0012830632668023464 0
          0 0 0 0.01240070085744378 -0.04137855041715472 0
          0 0 0 0 0 0
          0.007053346695663964 -0.023716478710705105 0 0.00032703861607820243 -0.000038623627639843845 0
          0.0004886509786567013 0.00018683003162656665 0 0.007061366707873239 -0.017331814965677428 0
          0.7686786767420508 -0.09125850949607833 0 0 0 0
          0 0 0 0.49851900319302805 -0.392627514576107 0
          0.0009023807953377199 0.0017377738319733608 0 0.9364850517464774 -0.4250053346722639 0
          1.189505715099196 -0.23905366721344368 0 0 0 0
          0.039794633236768795 -0.09516433338668641 0 0 0 0
          0.320251533723486 -0.3298123085839111 0 0.004294566950439944 -0.01314934446397903 0
          0 0 0 0.000770733710762078 0.002925378154613108 0
          0.019818089732739783 -0.048275884733792775 0 0 0 0
          0.004394949481895621 -0.007395400717155936 0 0.16874969620300212 -0.23006796736781712 0
          0 0 0 0.00024197315152624783 0.003719030068757978 0
          0 0 0 0.003178377512408856 -0.002243912642285901 0
          0.6631030251188923 -0.43393917450719266 0 0 0 0
          -0.00007980983433580245 0.0038870586648391955 0 0.0022633708707323953 0.0004634200920691622 0
          1.0449185648613533 -0.16118603306399054 0 0.47759807767093904 -0.395668612055749 0
          0.015678900468640095 -0.031496618690476215 0 0 0 0
          0.00019710366712714548 0.004223911487108017 0 1.1484662782205737 -0.3245428320435394 0
          0.06474413498272016 -0.119040356928851 0 0.0007456086457995747 0.001690380982783592 0
          1.0000240855854061 -0.41939062017175144 0 0.310961546225302 -0.32626280726386014 0
          0 0 0 -0.000007669877985680556 0.004448770905992873 0
          0.007963677129583078 -0.013015667765175308 0 0.1525631985483589 -0.2149787390019742 0
          0.0011114057108805113 0.003560157066198991 0 0.04871706670882511 -0.08645052660334389 0
          0.7950442861658026 -0.4414331659509669 0 0 0 0
          -0.0004159419481177657 0.004024660612373595 0 0.0008871280860645496 0.004847430440422932 0
          0.6176771204753362 -0.4152850774364928 0 0.686439655773926 -0.07607631016083852 0
          0 0 0 -0.0005433347673959491 0.003223424798595588 0
          0.005016548958375025 -0.003566901641619671 0 -0.0005812834328877556 0.005355376231027748 0
          0.030108138553404197 -0.04842191388646929 0 0.45715715617807695 -0.37239865798449506 0
          0.10225295857816309 -0.1538486475423978 0 0 0 0
          -0.0007849130042100202 0.002074768742297585 0 1.0356292916420415 -0.37051638459914826 0
          -0.0013146170129129644 0.004973199953603863 0 0.0029313009006814023 0.0012219564821992178 0
          0.31367606088138866 -0.3082755924847673 0 1.0769413395529794 -0.289315794970408 0
          0 0 0 0.8981823470154674 -0.4010493470724265 0
          -0.0020109888188642837 0.0037214745485026728 0 -0.00044077594577328203 0.0006882278398184086 0
          0.08077721810818238 -0.10388494177989278 0 -0.0007203068240672367 0.003134788149851813 0
          0.18617188510903812 -0.2175614470220253 0 -0.0020972908347287804 0.002291721335299664 0
          0.6492109160824712 -0.3919949862041787 0 0.02615955086983357 -0.037975576114555876 0
          0 0 0 0.9682957675616322 -0.19283016346772 0
          0.3120828793895831 -0.01749078888208559 0 -0.003483325910720726 0.0028080054214914907 0
          0.013396786270397795 -0.018194027338185433 0 0.005646674996259593 -0.006641590070007363 0
          0.14692050312295768 -0.16216627895540037 0 0.4323044536002825 -0.3300761824642825 0
          0 0 0 -0.0022437050067188715 0.0009149962676429914 0
          0.9588402674378473 -0.315148570759293 0 0.0596980739242791 -0.07875445278482883 0
          -0.0022787695386459555 -0.0010118085632206443 0 0.032890431481306555 -0.0403562562166486 0
          0.764283011811282 -0.34230940728034787 0 0.24606947799824533 -0.22265334086907573 0
          0.5416701964571554 -0.0730459824594784 0 0.01663253599898883 -0.018601969892770704 0
          0 0 0 -0.0036717482479714913 0.00012525516046778251 0
          0.5471072127300527 -0.31392056697089366 0 1.003040582067758 -0.23390381535963164 0
          0.1231230185506659 -0.1160432943523794 0 0.37442288807312046 -0.2609313980083783 0
          0.07003335722296687 -0.06574895920972088 0 0.03885933637225394 -0.0323471363394253 0
          -0.0019056204369607445 -0.0014073409214621871 0 0.8861093637840548 -0.282477521350593 0
          0 0 0 0.01570783404202551 -0.01279985719549133 0
          0.6908837362355915 -0.30098805809675383 0 0.4868222307387033 -0.27028802163053356 0
          0 0 0 0.2158031867453971 -0.1515926994219126 0
          0.124225846172048 -0.08859202013709752 0 0.9464179316956695 -0.08818245193952799 0
          0.0767878410001228 -0.048099250605366003 0 0.004694263210917872 -0.00483621973494656 0
          0.0371756030318051 -0.020197995973015283 0 0.33923367915984565 -0.20857009522913098 0
          0 0 0 0.8934125809775793 -0.325899370679788 0
          0.014564612412350861 -0.002301139269538048 0 0.20135711712821258 -0.12979215111208608 0
          0.12160956609271864 -0.06244830830156305 0 0.5505869560420141 -0.34045460082238094 0
          0.04483538689594893 -0.016516760907351765 0 0.3239962546201494 -0.235034281881246 0
          0 0 0 0.09952356800047914 -0.03449621685948101 0
          0.1879619414303888 -0.10678323080960973 0 0 0 0
          <InformationKey name="L2_NORM_RANGE" location="vtkDataArray" length="2">
            <Value index="0">
              0
            </Value>
            <Value index="1">
              1.41070175
            </Value>
          </InformationKey>
        </DataArray>
        <DataArray type="Float64" Name="Pressure" format="ascii" RangeMin="-9.259107027352924" RangeMax="37.176989165384896">
          36.649528134513275 36.87107686452364 36.833292286223916 36.63552383675033 36.6648158641103 36.5419732352394
          36.39367026291523 36.13601789099416 35.84166627802415 35.20807393827277 36.3787647310272 34.94101594723542
          36.906686933647215 35.68136401199719 34.8816284188838 34.21544299029973 34.10783829156455 34.96263165999629
          36.71441119763526 35.923842244529986 33.86858634786796 35.18884267401251 32.92351387714745 37.14850383232339
          33.98430629623395 32.73223889472112 32.81926392762795 34.370810829186865 31.88563642728771 35.374364590903525
          36.36520337181407 31.305764390405226 36.9024641208982 34.64206576381173 33.51833523184272 31.627438227967627
          30.708158510851213 32.01289560404242 33.95890004305353 35.602972269140864 29.85530558551661 36.06266559913902
          37.176989165384896 34.85836000724764 30.067455763025514 32.57349377699942 30.604975658596704 33.221348628266256
          34.329974907487106 31.177684462600514 35.03854472593116 27.76569357711553 28.17868548815048 28.947253431885002
          33.84982540324405 32.4919819267133 29.777000391634523 34.54448832005076 30.60081818491977 33.202758019729835
          35.16933228566525 27.962481859287355 31.578433938582737 34.65921344023676 26.1967489642263 34.32090602256136