<?xml version="1.0"?>
<VTKFile type="UnstructuredGrid" version="0.1" byte_order="LittleEndian" header_type="UInt32" compressor="vtkZLibDataCompressor">
  <UnstructuredGrid>
    <Piece NumberOfPoints="418" NumberOfCells="757">
      <PointData>
        <DataArray type="Float64" Name="nsi_BC" NumberOfComponents="3" format="ascii" RangeMin="0" RangeMax="1">
          0 0 0 0 0 0
          0 0 0 0 0 0
          0 0 0 1 0 0
          0 0 0 0 0 0
          0 0 0 0 0 0
          0 0 0 0 0 0
          0 0 0 0 0 0
          0 0 0 0 0 0
          0 0 0 0 0 0
          0 0 0 0 0 0
          0 0 0 0 0 0
          0 0 0 0 0 0
          0 0 0 0 0 0
          0 0 0 0 0 0
          0 0 0 0 0 0
          0 0 0 0 0 0
          0 0 0 0 0 0
          0 0 0 0 0 0
          0 0 0 0 0 0
          0 0 0 0 0 0
          0 0 0 0 0 0
          0 0 0 0 0 0
          0 0 0 0 0 0
          0 0 0 0 0 0
          0 0 0 0 0 0
          0 0 0 0 0 0
          0 0 0 0 0 0
          0 0 0 0 0 0
          0 0 0 0 0 0
          0 0 0 0 0 0
          0 0 0 0 0 0
          0 0 0 0 0 0
          0 0 0 0 0 0
          0 0 0 0 0 0
          0 0 0 0 0 0
          0 0 0 0 0 0
          0 0 0 0 0 0
          0 0 0 0 0 0
          0 0 0 0 0 0
          0 0 0 0 0 0
          0 0 0 0 0 0
          0 0 0 0 0 0
          0 0 0 0 0 0
          0 0 0 0 0 0
          0 0 0 0 0 0
          0 0 0 0 0 0
          0 0 0 0 0 0
          0 0 0 0 0 0
          0 0 0 0 0 0
          0 0 0 0 0 0
          0 0 0 0 0 0
          0 0 0 0 0 0
          0 0 0 0 0 0
          0 0 0 0 0 0
          0 0 0 0 0 0
          0 0 0 0 0 0
          0 0 0 0 0 0
          0 0 0 0 0 0
          0 0 0 0 0 0
          0 0 0 0 0 0
          0 0 0 0 0 0
          0 0 0 0 0 0
          0 0 0 0 0 0
          0 0 0 0 0 0
          0 0 0 0 0 0
          0 0 0 0 0 0
          0 0 0 0 0 0
          0 0 0 0 0 0
          0 0 0 0 0 0
          0 0 0 0 0 0
          0 0 0 0 0 0
          0 0 0 0 0 0
          0 0 0 0 0 0
          0 0 0 0 0 0
          0 0 0 0 0 0
          0 0 0 0 0 0
          0 0 0 0 0 0
          0 0 0 0 0 0
          0 0 0 0 0 0
          0 0 0 0 0 0
          0 0 0 0 0 0
          0 0 0 0 0 0
          0 0 0 0 0 0
          0 0 0 0 0 0
          0 0 0 0 0 0
          0 0 0 0 0 0
          0 0 0 0 0 0
          0 0 0 0 0 0
          0 0 0 0 0 0
          0 0 0 0 0 0
          0 0 0 0 0 0
          0 0 0 0 0 0
          0 0 0 0 0 0
          0 0 0 0 0 0
          0 0 0 0 0 0
          0 0 0 0 0 0
          0 0 0 0 0 0
          0 0 0 0 0 0
          0 0 0 0 0 0
          0 0 0 0 0 0
          0 0 0 0 0 0
          0 0 0 0 0 0
          0 0 0 0 0 0
          0 0 0 0 0 0
          0 0 0 0 0 0
          0 0 0 0 0 0
          0 0 0 0 0 0
          0 0 0 0 0 0
          0 0 0 0 0 0
          0 0 0 0 0 0
          0 0 0 0 0 0
          0 0 0 0 0 0
          0 0 0 0 0 0
          0 0 0 0 0 0
          0 0 0 0 0 0
          0 0 0 0 0 0
          0 0 0 0 0 0
          0 0 0 0 0 0
          0 0 0 0 0 0
          0 0 0 0 0 0
          0 0 0 0 0 0
          0 0 0 0 0 0
          0 0 0 0 0 0
          0 0 0 0 0 0
          0 0 0 0 0 0
          0 0 0 0 0 0
          0 0 0 0 0 0
          0 0 0 0 0 0
          0 0 0 0 0 0
          0 0 0 0 0 0
          0 0 0 0 0 0
          0 0 0 0 0 0
          0 0 0 0 0 0
          0 0 0 0 0 0
          0 0 0 0 0 0
          0 0 0 0 0 0
          0 0 0 0 0 0
          0 0 0 0 0 0
          0 0 0 0 0 0
          0 0 0 0 0 0
          0 0 0 0 0 0
          0 0 0 0 0 0
          0 0 0 0 0 0
          0 0 0 0 0 0
          0 0 0 0 0 0
          0 0 0 0 0 0
          0 0 0 0 0 0
          0 0 0 0 0 0
          0 0 0 0 0 0
          0 0 0 0 0 0
          0 0 0 0 0 0
          0 0 0 0 0 0
          0 0 0 0 0 0
          0 0 0 0 0 0
          0 0 0 0 0 0
          0 0 0 0 0 0
          0 0 0 0 0 0
          0 0 0 0 0 0
          0 0 0 0 0 0
          0 0 0 0 0 0
          0 0 0 0 0 0
          0 0 0 0 0 0
          0 0 0 0 0 0
          0 0 0 0 0 0
          0 0 0 0 0 0
          0 0 0 0 0 0
          0 0 0 0 0 0
          0 0 0 0 0 0
          0 0 0 0 0 0
          0 0 0 0 0 0
          0 0 0 0 0 0
          0 0 0 0 0 0
          0 0 0 0 0 0
          0 0 0 0 0 0
          0 0 0 0 0 0
          0 0 0 0 0 0
          0 0 0 0 0 0
          0 0 0 0 0 0
          0 0 0 0 0 0
          0 0 0 0 0 0
          0 0 0 0 0 0
          0 0 0 0 0 0
          0 0 0 0 0 0
          0 0 0 0 0 0
          0 0 0 0 0 0
          0 0 0 0 0 0
          0 0 0 0 0 0
          0 0 0 0 0 0
          0 0 0 0 0 0
          0 0 0 0 0 0
          0 0 0 0 0 0
          0 0 0 0 0 0
          0 0 0 0 0 0
          0 0 0 0 0 0
          0 0 0 0 0 0
          0 0 0 0 0 0
          0 0 0 0 0 0
          0 0 0 0 0 0
          0 0 0 0 0 0
          0 0 0 0 0 0
          0 0 0 0 0 0
          0 0 0 0 0 0
          0 0 0 0 0 0
          0 0 0 0 0 0
          0 0 0 0 0 0
          0 0 0 0 0 0
          0 0 0 0 0 0
          0 0 0 0 0 0
          0 0 0 0 0 0
          <InformationKey name="L2_NORM_RANGE" location="vtkDataArray" length="2">
            <Value index="0">
              0
            </Value>
            <Value index="1">
              1
            </Value>
          </InformationKey>
        </DataArray>
        <DataArray type="Float64" Name="nsi_FIXNO" NumberOfComponents="3" format="ascii" RangeMin="1.4142135623730951" RangeMax="1.4142135623730951">
          1 1 0 -1 -1 0
          -1 -1 0 -1 -1 0
          1 1 0 1 1 0
          -1 -1 0 -1 -1 0
          -1 -1 0 -1 -1 0
          -1 -1 0 -1 -1 0
          -1 -1 0 -1 -1 0
          -1 -1 0 1 1 0
          -1 -1 0 -1 -1 0
          -1 -1 0 -1 -1 0
          -1 -1 0 -1 -1 0
          -1 -1 0 -1 -1 0
          -1 -1 0 -1 -1 0
          -1 -1 0 -1 -1 0
          -1 -1 0 -1 -1 0
          -1 -1 0 -1 -1 0
          1 1 0 -1 -1 0
          -1 -1 0 -1 -1 0
          1 1 0 -1 -1 0
          -1 -1 0 -1 -1 0
          -1 -1 0 -1 -1 0
          1 1 0 -1 -1 0
          -1 -1 0 -1 -1 0
          -1 -1 0 -1 -1 0
          -1 -1 0 -1 -1 0
          -1 -1 0 -1 -1 0
          -1 -1 0 -1 -1 0
          -1 -1 0 -1 -1 0
          -1 -1 0 -1 -1 0
          -1 -1 0 -1 -1 0
          1 1 0 -1 -1 0
          -1 -1 0 -1 -1 0
          -1 -1 0 -1 -1 0
          -1 -1 0 -1 -1 0
          -1 -1 0 1 1 0
          -1 -1 0 -1 -1 0
          -1 -1 0 -1 -1 0
          -1 -1 0 -1 -1 0
          -1 -1 0 -1 -1 0
          -1 -1 0 -1 -1 0
          -1 -1 0 -1 -1 0
          -1 -1 0 -1 -1 0
          -1 -1 0 -1 -1 0
          -1 -1 0 -1 -1 0
          1 1 0 -1 -1 0
          -1 -1 0 -1 -1 0
          -1 -1 0 -1 -1 0
          -1 -1 0 -1 -1 0
          -1 -1 0 -1 -1 0
          -1 -1 0 -1 -1 0
          -1 -1 0 -1 -1 0
          -1 -1 0 -1 -1 0
          -1 -1 0 -1 -1 0
          -1 -1 0 -1 -1 0
          -1 -1 0 -1 -1 0
          -1 -1 0 -1 -1 0
          -1 -1 0 -1 -1 0
          -1 -1 0 -1 -1 0
          -1 -1 0 -1 -1 0
          -1 -1 0 -1 -1 0
          -1 -1 0 1 1 0
          -1 -1 0 -1 -1 0
          -1 -1 0 -1 -1 0
          -1 -1 0 -1 -1 0
          -1 -1 0 -1 -1 0
          -1 -1 0 -1 -1 0
          -1 -1 0 -1 -1 0
          -1 -1 0 -1 -1 0
          -1 -1 0 -1 -1 0
          -1 -1 0 -1 -1 0
          -1 -1 0 -1 -1 0
          -1 -1 0 -1 -1 0
          -1 -1 0 -1 -1 0
          -1 -1 0 -1 -1 0
          1 1 0 -1 -1 0
          -1 -1 0 -1 -1 0
          -1 -1 0 -1 -1 0
          -1 -1 0 -1 -1 0
          -1 -1 0 -1 -1 0
          -1 -1 0 1 1 0
          -1 -1 0 -1 -1 0
          1 1 0 -1 -1 0
          1 1 0 -1 -1 0
          -1 -1 0 -1 -1 0
          -1 -1 0 1 1 0
          -1 -1 0 -1 -1 0
          -1 -1 0 -1 -1 0
          1 1 0 -1 -1 0
          1 1 0 -1 -1 0
          -1 -1 0 -1 -1 0
          -1 -1 0 -1 -1 0
          -1 -1 0 -1 -1 0
          1 1 0 -1 -1 0
          -1 -1 0 1 1 0
          1 1 0 -1 -1 0
          -1 -1 0 -1 -1 0
          -1 -1 0 -1 -1 0
          -1 -1 0 1 1 0
          -1 -1 0 -1 -1 0
          -1 -1 0 -1 -1 0
          -1 -1 0 -1 -1 0
          1 1 0 1 1 0
          -1 -1 0 1 1 0
          -1 -1 0 -1 -1 0
          -1 -1 0 -1 -1 0
          1 1 0 -1 -1 0
          -1 -1 0 -1 -1 0
          -1 -1 0 -1 -1 0
          1 1 0 -1 -1 0
          -1 -1 0 -1 -1 0
          1 1 0 -1 -1 0
          -1 -1 0 1 1 0
          1 1 0 -1 -1 0
          -1 -1 0 -1 -1 0
          -1 -1 0 -1 -1 0
          -1 -1 0 -1 -1 0
          -1 -1 0 1 1 0
          1 1 0 -1 -1 0
          1 1 0 1 1 0
          -1 -1 0 -1 -1 0
          1 1 0 -1 -1 0
          -1 -1 0 -1 -1 0
          -1 -1 0 1 1 0
          -1 -1 0 -1 -1 0
          -1 -1 0 1 1 0
          -1 -1 0 1 1 0
          -1 -1 0 -1 -1 0
          -1 -1 0 -1 -1 0
          -1 -1 0 -1 -1 0
          -1 -1 0 1 1 0
          1 1 0 -1 -1 0
          1 1 0 -1 -1 0
          1 1 0 -1 -1 0
          -1 -1 0 -1 -1 0
          1 1 0 -1 -1 0
          -1 -1 0 -1 -1 0
          -1 -1 0 -1 -1 0
          1 1 0 1 1 0
          -1 -1 0 -1 -1 0
          -1 -1 0 -1 -1 0
          -1 -1 0 -1 -1 0
          1 1 0 -1 -1 0
          -1 -1 0 -1 -1 0
          1 1 0 -1 -1 0
          1 1 0 1 1 0
          -1 -1 0 -1 -1 0
          -1 -1 0 -1 -1 0
          -1 -1 0 1 1 0
          1 1 0 -1 -1 0
          -1 -1 0 -1 -1 0
          -1 -1 0 1 1 0
          -1 -1 0 1 1 0
          -1 -1 0 -1 -1 0
          1 1 0 -1 -1 0
          -1 -1 0 1 1 0
          -1 -1 0 -1 -1 0
          1 1 0 -1 -1 0
          1 1 0 -1 -1 0
          -1 -1 0 1 1 0
          -1 -1 0 -1 -1 0
          -1 -1 0 -1 -1 0
          -1 -1 0 1 1 0
          -1 -1 0 -1 -1 0
          -1 -1 0 -1 -1 0
          -1 -1 0 -1 -1 0
          1 1 0 -1 -1 0
          -1 -1 0 -1 -1 0
          -1 -1 0 -1 -1 0
          -1 -1 0 1 1 0
          -1 -1 0 -1 -1 0
          -1 -1 0 -1 -1 0
          1 1 0 -1 -1 0
          -1 -1 0 -1 -1 0
          -1 -1 0 -1 -1 0
          -1 -1 0 1 1 0
          -1 -1 0 -1 -1 0
          -1 -1 0 -1 -1 0
          -1 -1 0 -1 -1 0
          1 1 0 -1 -1 0
          -1 -1 0 -1 -1 0
          -1 -1 0 -1 -1 0
          -1 -1 0 -1 -1 0
          -1 -1 0 -1 -1 0
          1 1 0 -1 -1 0
          -1 -1 0 -1 -1 0
          -1 -1 0 -1 -1 0
          -1 -1 0 -1 -1 0
          1 1 0 -1 -1 0
          -1 -1 0 -1 -1 0
          -1 -1 0 -1 -1 0
          -1 -1 0 -1 -1 0
          -1 -1 0 -1 -1 0
          1 1 0 -1 -1 0
          -1 -1 0 -1 -1 0
          -1 -1 0 -1 -1 0
          -1 -1 0 -1 -1 0
          -1 -1 0 -1 -1 0
          1 1 0 -1 -1 0
          -1 -1 0 -1 -1 0
          1 1 0 -1 -1 0
          -1 -1 0 -1 -1 0
          -1 -1 0 -1 -1 0
          -1 -1 0 -1 -1 0
          1 1 0 -1 -1 0
          -1 -1 0 -1 -1 0
          -1 -1 0 -1 -1 0
          -1 -1 0 -1 -1 0
          1 1 0 -1 -1 0
          -1 -1 0 1 1 0
          <InformationKey name="L2_NORM_RANGE" location="vtkDataArray" length="2">
            <Value index="0">
              1.4142135624
            </Value>
            <Value index="1">
              1.4142135624
            </Value>
          </InformationKey>
        </DataArray>
        <DataArray type="Float64" Name="Velocity" NumberOfComponents="3" format="ascii" RangeMin="0" RangeMax="1.4149231136806322">
          0 0 0 0.3185388173283122 0.024334567098379705 0
          0.7322489707429013 0.10038593219467042 0 0.5148541751042118 0.03664389757593726 0
          0 0 0 1 0 0
          0.7173976876556554 0.026378661601736592 0 0.3694786866520941 0.02162182713996284 0
          0.643653905374928 0.03794840169109695 0 0.31144324456610095 0.004803469602177714 0
          0.6663841221743755 0.02882330354837678 0 0.5617552124222958 0.03259560802330069 0
          0.70224700343135 -0.09765099738823198 0 0.7198420009665544 0.033128997028455946 0
          0.6859527012149937 0.04719190764150289 0 0 0 0
          0.5047414709178109 0.02649444469445107 0 0.7274231119972486 0.060746425303662706 0
          0.6054201456200451 -0.004540135055488411 0 0.649257010031005 0.04374947579180628 0
          0.6606977089341272 0.05730637546613158 0 0.6876282002537721 0.06407556299620705 0
          0.4230422858548806 0.03632830357231619 0 0.3487279236962353 -0.02846715772336907 0
          0.7339690829072614 0.09881038732657485 0 0.6420557109157713 0.07991021421555808 0
          0.7436341170311392 0.11900573348823568 0 0.7156638572482595 0.10072552105938674 0
          0.3199809662582766 0.012121411347493817 0 0.5698234291603609 0.050030679852296624 0
          0.4445883046568341 0.0038189763787336026 0 0.6002114988175016 0.09028782396505992 0
          0 0 0 0.6205203679562623 0.08388254833101433 0
          0.7367962348085222 0.15770654729965952 0 0.7580672967117457 0.15521028158531505 0
          0 0 0 0.7797899771918823 0.19135454310460123 0
          0.6537878299295734 0.13917455506022247 0 0.3209635618240289 0.010363301183198621 0
          0.5638939282708313 0.08530712968854258 0 0.20039183963170534 0.005368357297527213 0
          0 0 0 0.46373073607424564 0.05339115814856404 0
          0.765456906115364 0.1833275362428026 0 0.7591396634150253 0.22634497271130413 0
          0.8285785398972886 0.24642234753592052 0 0.680379813385169 0.21012857494924136 0
          0.5154096535695042 0.09761575832584646 0 0.814388818724068 0.28450498830232085 0
          0.3057611450936298 0.02645262078069391 0 0.46006752589887406 0.024759831819469377 0
          0.7944437952039605 0.15353465067926095 0 0.8777370300291417 0.27610025071718974 0
          0.554492646739456 0.16802071904560198 0 0.693629570534896 0.2913037557013509 0
          0.872114179231622 0.34294254721261436 0 0.3452971513813382 0.04957696709609334 0
          0.8012486474223303 0.37074671380075175 0 0.5906025720701804 0.2546361879958062 0
          0 0 0 0.9495996890031744 0.3642295060047531 0
          0.7081812549089196 0.3729058381152932 0 0.18260267227167062 0.011455804734707154 0
          0.9835044681488807 0.23763156247808814 0 0.3672080584615408 0.09353315112565111 0
          0.4557225527280939 0.190833025452774 0 0.8755352816428239 0.4237938543904436 0
          0.5928029540190983 0.3326578770212338 0 0 0 0
          0.7471716279375825 0.10290805325183984 0 0.46826035308171593 0.2668794815022987 0
          0.7446392110479236 0.4629163961865879 0 1.0542543281038057 0.35896537226695846 0
          0.9661909136493362 0.46271085153357233 0 0.32316394241149726 0.12570024056804038 0
          0.21052353460875145 0.03640595787687745 0 0.5678384887427914 0.4115575253236047 0
          0.851919352887773 0.5121988331495458 0 1.116584949560656 0.2868072949579732 0
          0.4646746325238012 0.341420601145783 0 0.7281038798110258 0.512947891305801 0
          0.33899890229414525 0.18906617768340914 0 0.24070068013860157 0.06441275887874912 0
          1.0347188080351517 0.193586187833179 0 0.6089729775160074 0.4945285535510894 0
          0.9623790599014946 0.5225538555612517 0 0.34051889287027937 0.25912988765013406 0
          0 0 0 0.8325629233940984 0.08458736345831555 0
          1.1907863315456821 0.38282736618222707 0 0.7908770171382667 0.5632510691419104 0
          0.43867474994080463 0.42013749711598664 0 0.6421035910092593 0.5527040526597801 0
          1.2243907309738415 0.2765442357169206 0 0.22923182916762289 0.11932620567880198 0
          0.3124850780418234 0.3059889256499811 0 0.11976502955952192 0.01624619596793736 0
          0.24061485018464046 0.1831336144973691 0 0.4773851730658084 0.011010571122863945 0
          0.933583082413567 0.5630342186289305 0 0.42234158168998437 0.47736600587752903 0
          1.1484449546575402 0.4722708651123966 0 0.2436920268318454 0.24531146992691863 0
          0.6971583955888198 0.5862371724181097 0 0.27858068239404865 0.3459606760809143 0
          1.1688765198870419 0.14243693151931028 0 1.2946208664740773 0.3313924986100285 0
          0.1374888547428644 0.04371408431547481 0 0.5219583906419735 0.557342812582274 0
          0.8063386984632507 0.5705899100240165 0 0.20092187629470828 0.26683675318206745 0
          0.3255736163925354 0.45425618281284325 0 1.0819572696685225 0.485414697245404 0
          0.9179165772044863 0.029095668545727288 0 0.1331497327928358 0.07065909307137719 0
          0.5572636968817059 0.5572011131605842 0 0.21660301020434788 0.3467022264631703 0
          1.2710162709812511 0.35821384948952745 0 1.3480177536726927 0.19618110404939848 0
          0.13911910733168226 0.12290337579311404 0 0 0 0
          0.1512102682248016 0.19111441185632685 0 0.32682546532669077 0.48014329220892377 0
          1.3562329268541815 0.2598857575068867 0 0.16727320284911174 0.2782827385648736 0
          0.05778849132895651 0.008123227184437991 0 0.6567725616774234 0.5068708300485077 0
          0.15552491976035676 0.32721063128116057 0 0.9883607474380481 0.4236033678296959 0
          0.3640863003882579 0.4552499778737377 0 0.10920990810135443 0.19518837171250952 0
          1.1810476436025488 0.3401118525294188 0 0.07646118365634523 0.030592643145802765 0
          0.10088469469714594 0.1280972809419495 0 1.250162733642805 0.05988028405904177 0
          1.3158167821683957 0.25621052818665413 0 0.16270319467312136 0.3424595489729856 0
          0.08357670471077563 0.18967354564844954 0 1.4026606553432244 0.15671750234201137 0
          0.42936092780263746 0.35806707513314434 0 0.08420067816312057 0.09358689320212059 0
          0.07392119176130688 0.23995416267337485 0 0.06883551519848377 0.04317558177319693 0
          0.7665756777393214 0.30837393856449685 0 0.07691999665170099 0.12665596304507204 0
          0.06779321835605019 0.2049977552079508 0 0.07090383195255211 0.20655980289300827 0
          0 0 0 0.08467545693382723 0.2163627889136476 0
          0.9964984679399874 0.25488231078764434 0 1.4000484350918445 0.08340676167457929 0
          1.1957993158600997 0.21243948825674844 0 0.041046595037191234 0.15427729840150403 0
          0.05743125917817441 0.055821785649485374 0 0.04654005959077032 0.11829458496421112 0
          0.9257228272517685 0.0078103647480893676 0 0.03215163309171582 0.13622784753877423 0
          0.021627606970493846 0.12070752731277995 0 0 0 0
          0.05317981954305811 0.08360617460145779 0 0.4024384235122866 0.07079253407771542 0
          0 0 0 0.707858077420241 0.11328375141715155 0
          0 0 0 0.01753031789734318 0.09136359941385422 0
          0.028969440437671735 0.10571775566256497 0 0.03758664811121459 0.013452749048707859 0
          1.3299193898921855 0.07338931427637516 0 0 0 0
          0.011056130389748618 0.06761835247071152 0 0.04021946774604686 0.05412058153606199 0
          0.9291823327109279 0.077255915952798 0 0.03171383077205378 0.07313557078471307 0
          0 0 0 0.018433289370220138 0.07491567127981341 0
          0 0 0 1.4148343240354755 0.015850967124260932 0
          0.35504427172374675 0.028137862459723575 0 0.00660423804247475 0.05437508470316262 0
          1.1313713920279704 0.03253610696291559 0 0.0177920050840873 0.06532860702949024 0
          0.6750825065427559 0.04064973975512405 0 0.03048165921850083 0.02168027213063033 0
          0 0 0 0.006790410048659151 0.04217021271129604 0
          1.4066058486177475 -0.02122123330865355 0 0 0 0
          0 0 0 0.013300579119289524 0.04518144744278633 0
          0.023758761293584816 0.02505880520273549 0 0.00478669069444222 0.03363054477705944 0
          0.018252929277825486 0.03865110774236415 0 0.33596836751709375 0.00041635826806415716 0
          0.012309265878064177 0.03832170824911661 0 0 0 0
          1.2548655771134742 -0.041283874378123836 0 0.6599894013715524 -0.02113404551043772 0
          0.9414336299650611 -0.05135411065990392 0 0.004316247438486232 0.025707087868081322 0
          1.1538591133219245 -0.08781339356490771 0 0.016423210262056946 0.005598981820282379 0
          0 0 0 0 0 0
          0.013925541920023939 0.02218680783975425 0 0 0 0
          1.3146412113740313 -0.10645731129175702 0 0.007879069164221469 0.02487108217882687 0
          0.0036104492275777413 0.019386833774325603 0 0.34155953013443613 -0.02577706993731296 0
          0 0 0 1.3932449999439378 -0.11545274571023799 0
          0.007477506461424825 0.01907870683523579 0 0.6736441981658096 -0.11872713699409436 0
          0.011043809881594771 0.00950996090664819 0 0.0028238922195534515 0.01380680126057262 0
          0 0 0 0.9257459936852331 -0.16206501511081575 0
          0.004670598248325978 0.014472229485384661 0 1.37547040484091 -0.11553165235868494 0
          0 0 0 0.002449911869399352 0.009902226214556626 0
          1.1291216679417013 -0.1874871339505333 0 0 0 0
          0 0 0 0.38899447412191146 -0.16625261956680457 0
          0.005912629286183115 0.007562132239701439 0 0.004600722795768424 0.009323746818728454 0
          0.9459954385579125 -0.045040831349812675 0 0.00143958438752063 0.006436163910946064 0
          1.280053596226554 -0.19555343158214075 0 1.2122595420753806 -0.08938042030484038 0
          0.00586931464898688 0.0019689699835948875 0 0 0 0
          0 0 0 0.6683208011788166 -0.22958829714987278 0
          0 0 0 0 0 0
          0.0008526502050904051 0.004402288414267124 0 0.04568015424371633 -0.07176896993802119 0
          0 0 0 0.0025684510610950615 0.005120561401666651 0
          1.3572651883640365 -0.19609026808730146 0 0.8976247718918681 -0.26072139990936694 0
          0.003244494821826724 0.002462796046561499 0 0 0 0
          0.025728292336938716 -0.031236992296002627 0 0.0009929729288246933 0.0024914892414007895 0
          0.0021693216676241275 0.003033361155795546 0 0 0 0
          0.014769721280551032 -0.006266360932398374 0 0 0 0
          0.3077338903289647 -0.20329042332455358 0 1.3247723699856866 -0.17070533722801948 0
          0.0009658961318320913 0.0016938218447514243 0 1.0564221897661241 -0.2916640315375446 0
          0.006175698633735866 0.010653130007166152 0 0.0018147754697688712 0.00043030146771593506 0
          0.0007318720216138748 0.0013441580687579486 0 0 0 0
          0 0 0 0.10093944764926349 -0.10271374832218758 0
          0 0 0 0.0020853225757507397 0.016120558810046762 0
          0 0 0 1.2266295116106505 -0.2826031304173522 0
          0.0636127896713236 -0.053986737431415015 0 0.0009556222381314226 0.0006797285321599161 0
          0 0 0 0.00032893347106829576 0.00043456639160982286 0
          0.256434733194948 -0.007549056729588876 0 0.536265183997849 -0.27448830995984047 0
          0.001207073537580155 0.019278870008793473 0 1.1654437511531894 -0.13931563121694093 0
          0 0 0 0 0 0
          0.0009483980540611132 0.020397313959553864 0 0.00018301699463851176 0.00012252843613506456 0
          0.28844239047916187 -0.20402377904930924 0 0.016587951435227104 0.0000778262022510807 0
          0.051489267195778315 -0.03320359831934036 0 0.7696746081320837 -0.3174934053742743 0
          0 0 0 1.2923191227717792 -0.25439565745428566 0
          0.13778264668291 -0.11283700187301883 0 0.000007317093440484541 0.0213957757565402 0
          0 0 0 0.010041899646906782 0.014630460965766664 0
          0 0 0 0 0 0
          0.004274780567559177 0.02354083409409015 0 0.00009692606358776364 -0.00015386863824386177 0
          -0.0006301421650090744 0.020803522184901273 0 0.003731822028711961 0.028135820203185925 0
          0.7971446571845476 -0.09010709370462233 0 0 0 0
          0 0 0 0.4780674813187187 -0.27419606188851886 0
          -0.0005425824386306755 0.01996553797523191 0 0.9387223943863369 -0.33419503622416336 0
          1.2497260647883635 -0.22205085460234028 0 0 0 0
          0.033567187732343726 -0.007423172368933771 0 0 0 0
          0.30462481539250647 -0.20747860211735675 0 -0.00027768633015306696 0.03262222187197028 0
          0 0 0 -0.0008883860372273023 0.018587845707173464 0
          0.012457752764229163 0.025011418376557647 0 0 0 0
          -0.000826703407471381 0.033510526309530934 0 0.1571132098994072 -0.1116477961681661 0
          0 0 0 -0.0011987360971820514 0.016874658776724023 0
          0 0 0 -0.0020107315576633794 0.03017547024503238 0
          0.6569843624253461 -0.3176303967983719 0 0 0 0
          -0.0014748457210509874 0.014427982459340512 0 -0.0027154629891897393 0.028131589154882168 0
          1.09576161505986 -0.16052191322167347 0 0.4660118579803848 -0.26718818822902185 0
          0.002906875560759388 0.03541158610888293 0 0 0 0
          -0.0016645114520508438 0.011804641053437172 0 1.2159362247320387 -0.2980910174948726 0
          0.05003769291436777 -0.014129006790226188 0 -0.0049034934719698305 0.027030139825236076 0
          1.0435833192922657 -0.35567556016409335 0 0.2977769101425921 -0.19319590741352208 0
          0 0 0 -0.0014435441934943663 0.009310069415746632 0
          -0.0044723599252465196 0.037060935725363495 0 0.1342269963524904 -0.08707189108938515 0
          -0.005381413667776998 0.022885709158563763 0 0.02753495379390936 0.00904126133185504 0
          0.8176766292561534 -0.34904802417660796 0 0 0 0
          -0.00138063374721922 0.006805451426933187 0 -0.00475112890802339 0.017486894615147654 0
          0.6252010726070895 -0.30561385298896365 0 0.71556752637517 -0.080959961405965 0
          0 0 0 -0.0013555094991562244 0.004479247620089381 0
          -0.010826239208616457 0.029963330544422732 0 -0.00513184298293565 0.014317422634225023 0
          0.0035733534728196116 0.028809652191022425 0 0.4519881248614252 -0.2495196916713059 0
          0.07248291484597649 -0.03978621147744336 0 0 0 0
          -0.0011624887714125538 0.0023626945697556175 0 1.112272049118572 -0.34675744891370625 0
          -0.004814065529638429 0.010187639074076412 0 -0.011165862322325016 0.022867557058254693 0
          0.2958221542225993 -0.18148672115162895 0 1.1605226631532468 -0.29106175436841075 0
          0 0 0 0.9579872722803603 -0.3524052451010995 0
          -0.004383363007596569 0.006671938901541728 0 -0.00047121249221630275 0.0005877652159256169 0
          0.041032104016098435 -0.007400641808097045 0 -0.010708725749008266 0.015619778731979015 0
          0.15140363510504112 -0.0995093477315145 0 -0.0031944468543427637 0.00347510768220098 0
          0.673779216898532 -0.3081334600739514 0 -0.013130473707088358 0.02272259585367264 0
          0 0 0 1.0236052999419039 -0.20357674052770156 0
          0.32321263425310887 -0.01755038802019463 0 -0.008251332158511421 0.007348942269504741 0
          -0.019132304577991956 0.02045903065762155 0 -0.017032125117111895 0.016903824840882122 0
          0.09793618219837903 -0.05842752243036436 0 0.42483970300426266 -0.23715088906635448 0
          0 0 0 -0.003724002135301231 0.0017077849370713974 0
          1.0502049108812506 -0.31529519758864866 0 -0.0020117802521501063 -0.006143369204064474 0
          -0.01618278804088076 0.009210595730548866 0 -0.02043304302427152 0.00820531626776302 0
          0.8263999874794665 -0.31792717910856366 0 0.19671286736623403 -0.13213960522265947 0
          0.56404248114659 -0.0728881460440222 0 -0.023687358232100313 0.010425075658865588 0
          0 0 0 -0.00953033032685134 0.0026561864699322134 0
          0.5640387995200098 -0.27661711129983 0 1.1008268594591315 -0.26287928319155157 0
          0.04214834969492345 -0.05185053471135806 0 0.34114832553255203 -0.20852827415790237 0
          -0.00801548455634252 -0.016577542347417214 0 -0.022764183261608895 -0.0016398221808679875 0
          -0.016738902218823477 0.0022367659509947265 0 0.985157371535569 -0.3072698969970012 0
          0 0 0 -0.022527200008825684 0.003011975150650827 0
          0.7485245579145015 -0.32365249193827134 0 0.4829350040741242 -0.2721709779499873 0
          0 0 0 0.12526341414422343 -0.11769603638166061 0
          0.025432842159204692 -0.05555406391937473 0 0.9857567752667075 -0.09223600550222094 0
          -0.007951567755170951 -0.02520279314546149 0 -0.01645345600262921 0.0010321647599846502 0
          -0.018248441392898516 -0.007215074405099749 0 0.2706370213038837 -0.2109617474326697 0
          0 0 0 1.0022787607792611 -0.3746656110269557 0
          -0.01345291083911277 -0.00006349396705883371 0 0.09253480262150546 -0.12734396464629336 0
          0.021248889993824554 -0.05604060013510074 0 0.561507699322128 -0.4122836835614213 0
          -0.0017278405359168498 -0.016567050912108965 0 0.23572795490507253 -0.28081344910621014 0
          0 0 0 0.024890818733154595 -0.03567341685864247 0
          0.08947957969196309 -0.10928974240640414 0 0 0 0
          <InformationKey name="L2_NORM_RANGE" location="vtkDataArray" length="2">
            <Value index="0">
              0
            </Value>
            <Value index="1">
              1.4149231137
            </Value>
          </InformationKey>
        </DataArray>
        <DataArray type="Float64" Name="Pressure" format="ascii" RangeMin="-8.322997904056491" RangeMax="36.92691406785668">
          36.26605708671434 36.4240892807374 36.75080673683828 36.20093525351927 36.01799309433911 36.79263419092588
          36.06384798267035 35.51134816527931 35.37200932508787 34.60732133970551 36.11515765119655 34.39470007160551
          36.92691406785668 35.32317677381285 34.405439344436175 33.60458084177343 33.453609230114154 34.516878279514636
          36.50169045427981 35.55762222643463 33.31953870749936 34.77453217479956 32.390796525940154 36.89212504840036
          33.517822600289 32.226594065774876 32.345073827140325 33.94449288254243 31.465798615053057 34.94313355537821
          35.91775518147303 30.911086415675765 36.71233449744336 34.21395891629453 33.112404585865725 31.19308909404365
          30.3860898320789 31.607378848563144 33.56490577703906 35.200430152259685 29.537229416793778 35.61107213348699
          36.73316614129255 34.38029048897664 29.69963111508929 32.17832337016894 30.19150506452405 32.84733794285272
          33.890066894965095 30.816207205649736 34.49555682195496 27.586041287671527 27.91278632804274 28.558710403645183
          33.44726704168131 32.12353834085075 29.397784940538173 34.01797051692542 30.27701985421763 32.83335127790864
          34.7258067557609 27.571854169444872 31.229499882642425 34.10557178947308 25.90423142890834 33.79316169836596