<?xml version="1.0"?>
<VTKFile type="UnstructuredGrid" version="0.1" byte_order="LittleEndian" header_type="UInt32" compressor="vtkZLibDataCompressor">
  <UnstructuredGrid>
    <Piece NumberOfPoints="418" NumberOfCells="757">
      <PointData>
        <DataArray type="Float64" Name="nsi_BC" NumberOfComponents="3" format="ascii" RangeMin="0" RangeMax="1">
          0 0 0 0 0 0
          0 0 0 0 0 0
          0 0 0 1 0 0
          0 0 0 0 0 0
          0 0 0 0 0 0
          0 0 0 0 0 0
          0 0 0 0 0 0
          0 0 0 0 0 0
          0 0 0 0 0 0
          0 0 0 0 0 0
          0 0 0 0 0 0
          0 0 0 0 0 0
          0 0 0 0 0 0
          0 0 0 0 0 0
          0 0 0 0 0 0
          0 0 0 0 0 0
          0 0 0 0 0 0
          0 0 0 0 0 0
          0 0 0 0 0 0
          0 0 0 0 0 0
          0 0 0 0 0 0
          0 0 0 0 0 0
          0 0 0 0 0 0
          0 0 0 0 0 0
          0 0 0 0 0 0
          0 0 0 0 0 0
          0 0 0 0 0 0
          0 0 0 0 0 0
          0 0 0 0 0 0
          0 0 0 0 0 0
          0 0 0 0 0 0
          0 0 0 0 0 0
          0 0 0 0 0 0
          0 0 0 0 0 0
          0 0 0 0 0 0
          0 0 0 0 0 0
          0 0 0 0 0 0
          0 0 0 0 0 0
          0 0 0 0 0 0
          0 0 0 0 0 0
          0 0 0 0 0 0
          0 0 0 0 0 0
          0 0 0 0 0 0
          0 0 0 0 0 0
          0 0 0 0 0 0
          0 0 0 0 0 0
          0 0 0 0 0 0
          0 0 0 0 0 0
          0 0 0 0 0 0
          0 0 0 0 0 0
          0 0 0 0 0 0
          0 0 0 0 0 0
          0 0 0 0 0 0
          0 0 0 0 0 0
          0 0 0 0 0 0
          0 0 0 0 0 0
          0 0 0 0 0 0
          0 0 0 0 0 0
          0 0 0 0 0 0
          0 0 0 0 0 0
          0 0 0 0 0 0
          0 0 0 0 0 0
          0 0 0 0 0 0
          0 0 0 0 0 0
          0 0 0 0 0 0
          0 0 0 0 0 0
          0 0 0 0 0 0
          0 0 0 0 0 0
          0 0 0 0 0 0
          0 0 0 0 0 0
          0 0 0 0 0 0
          0 0 0 0 0 0
          0 0 0 0 0 0
          0 0 0 0 0 0
          0 0 0 0 0 0
          0 0 0 0 0 0
          0 0 0 0 0 0
          0 0 0 0 0 0
          0 0 0 0 0 0
          0 0 0 0 0 0
          0 0 0 0 0 0
          0 0 0 0 0 0
          0 0 0 0 0 0
          0 0 0 0 0 0
          0 0 0 0 0 0
          0 0 0 0 0 0
          0 0 0 0 0 0
          0 0 0 0 0 0
          0 0 0 0 0 0
          0 0 0 0 0 0
          0 0 0 0 0 0
          0 0 0 0 0 0
          0 0 0 0 0 0
          0 0 0 0 0 0
          0 0 0 0 0 0
          0 0 0 0 0 0
          0 0 0 0 0 0
          0 0 0 0 0 0
          0 0 0 0 0 0
          0 0 0 0 0 0
          0 0 0 0 0 0
          0 0 0 0 0 0
          0 0 0 0 0 0
          0 0 0 0 0 0
          0 0 0 0 0 0
          0 0 0 0 0 0
          0 0 0 0 0 0
          0 0 0 0 0 0
          0 0 0 0 0 0
          0 0 0 0 0 0
          0 0 0 0 0 0
          0 0 0 0 0 0
          0 0 0 0 0 0
          0 0 0 0 0 0
          0 0 0 0 0 0
          0 0 0 0 0 0
          0 0 0 0 0 0
          0 0 0 0 0 0
          0 0 0 0 0 0
          0 0 0 0 0 0
          0 0 0 0 0 0
          0 0 0 0 0 0
          0 0 0 0 0 0
          0 0 0 0 0 0
          0 0 0 0 0 0
          0 0 0 0 0 0
          0 0 0 0 0 0
          0 0 0 0 0 0
          0 0 0 0 0 0
          0 0 0 0 0 0
          0 0 0 0 0 0
          0 0 0 0 0 0
          0 0 0 0 0 0
          0 0 0 0 0 0
          0 0 0 0 0 0
          0 0 0 0 0 0
          0 0 0 0 0 0
          0 0 0 0 0 0
          0 0 0 0 0 0
          0 0 0 0 0 0
          0 0 0 0 0 0
          0 0 0 0 0 0
          0 0 0 0 0 0
          0 0 0 0 0 0
          0 0 0 0 0 0
          0 0 0 0 0 0
          0 0 0 0 0 0
          0 0 0 0 0 0
          0 0 0 0 0 0
          0 0 0 0 0 0
          0 0 0 0 0 0
          0 0 0 0 0 0
          0 0 0 0 0 0
          0 0 0 0 0 0
          0 0 0 0 0 0
          0 0 0 0 0 0
          0 0 0 0 0 0
          0 0 0 0 0 0
          0 0 0 0 0 0
          0 0 0 0 0 0
          0 0 0 0 0 0
          0 0 0 0 0 0
          0 0 0 0 0 0
          0 0 0 0 0 0
          0 0 0 0 0 0
          0 0 0 0 0 0
          0 0 0 0 0 0
          0 0 0 0 0 0
          0 0 0 0 0 0
          0 0 0 0 0 0
          0 0 0 0 0 0
          0 0 0 0 0 0
          0 0 0 0 0 0
          0 0 0 0 0 0
          0 0 0 0 0 0
          0 0 0 0 0 0
          0 0 0 0 0 0
          0 0 0 0 0 0
          0 0 0 0 0 0
          0 0 0 0 0 0
          0 0 0 0 0 0
          0 0 0 0 0 0
          0 0 0 0 0 0
          0 0 0 0 0 0
          0 0 0 0 0 0
          0 0 0 0 0 0
          0 0 0 0 0 0
          0 0 0 0 0 0
          0 0 0 0 0 0
          0 0 0 0 0 0
          0 0 0 0 0 0
          0 0 0 0 0 0
          0 0 0 0 0 0
          0 0 0 0 0 0
          0 0 0 0 0 0
          0 0 0 0 0 0
          0 0 0 0 0 0
          0 0 0 0 0 0
          0 0 0 0 0 0
          0 0 0 0 0 0
          0 0 0 0 0 0
          0 0 0 0 0 0
          0 0 0 0 0 0
          0 0 0 0 0 0
          0 0 0 0 0 0
          0 0 0 0 0 0
          0 0 0 0 0 0
          0 0 0 0 0 0
          0 0 0 0 0 0
          <InformationKey name="L2_NORM_RANGE" location="vtkDataArray" length="2">
            <Value index="0">
              0
            </Value>
            <Value index="1">
              1
            </Value>
          </InformationKey>
        </DataArray>
        <DataArray type="Float64" Name="nsi_FIXNO" NumberOfComponents="3" format="ascii" RangeMin="1.4142135623730951" RangeMax="1.4142135623730951">
          1 1 0 -1 -1 0
          -1 -1 0 -1 -1 0
          1 1 0 1 1 0
          -1 -1 0 -1 -1 0
          -1 -1 0 -1 -1 0
          -1 -1 0 -1 -1 0
          -1 -1 0 -1 -1 0
          -1 -1 0 1 1 0
          -1 -1 0 -1 -1 0
          -1 -1 0 -1 -1 0
          -1 -1 0 -1 -1 0
          -1 -1 0 -1 -1 0
          -1 -1 0 -1 -1 0
          -1 -1 0 -1 -1 0
          -1 -1 0 -1 -1 0
          -1 -1 0 -1 -1 0
          1 1 0 -1 -1 0
          -1 -1 0 -1 -1 0
          1 1 0 -1 -1 0
          -1 -1 0 -1 -1 0
          -1 -1 0 -1 -1 0
          1 1 0 -1 -1 0
          -1 -1 0 -1 -1 0
          -1 -1 0 -1 -1 0
          -1 -1 0 -1 -1 0
          -1 -1 0 -1 -1 0
          -1 -1 0 -1 -1 0
          -1 -1 0 -1 -1 0
          -1 -1 0 -1 -1 0
          -1 -1 0 -1 -1 0
          1 1 0 -1 -1 0
          -1 -1 0 -1 -1 0
          -1 -1 0 -1 -1 0
          -1 -1 0 -1 -1 0
          -1 -1 0 1 1 0
          -1 -1 0 -1 -1 0
          -1 -1 0 -1 -1 0
          -1 -1 0 -1 -1 0
          -1 -1 0 -1 -1 0
          -1 -1 0 -1 -1 0
          -1 -1 0 -1 -1 0
          -1 -1 0 -1 -1 0
          -1 -1 0 -1 -1 0
          -1 -1 0 -1 -1 0
          1 1 0 -1 -1 0
          -1 -1 0 -1 -1 0
          -1 -1 0 -1 -1 0
          -1 -1 0 -1 -1 0
          -1 -1 0 -1 -1 0
          -1 -1 0 -1 -1 0
          -1 -1 0 -1 -1 0
          -1 -1 0 -1 -1 0
          -1 -1 0 -1 -1 0
          -1 -1 0 -1 -1 0
          -1 -1 0 -1 -1 0
          -1 -1 0 -1 -1 0
          -1 -1 0 -1 -1 0
          -1 -1 0 -1 -1 0
          -1 -1 0 -1 -1 0
          -1 -1 0 -1 -1 0
          -1 -1 0 1 1 0
          -1 -1 0 -1 -1 0
          -1 -1 0 -1 -1 0
          -1 -1 0 -1 -1 0
          -1 -1 0 -1 -1 0
          -1 -1 0 -1 -1 0
          -1 -1 0 -1 -1 0
          -1 -1 0 -1 -1 0
          -1 -1 0 -1 -1 0
          -1 -1 0 -1 -1 0
          -1 -1 0 -1 -1 0
          -1 -1 0 -1 -1 0
          -1 -1 0 -1 -1 0
          -1 -1 0 -1 -1 0
          1 1 0 -1 -1 0
          -1 -1 0 -1 -1 0
          -1 -1 0 -1 -1 0
          -1 -1 0 -1 -1 0
          -1 -1 0 -1 -1 0
          -1 -1 0 1 1 0
          -1 -1 0 -1 -1 0
          1 1 0 -1 -1 0
          1 1 0 -1 -1 0
          -1 -1 0 -1 -1 0
          -1 -1 0 1 1 0
          -1 -1 0 -1 -1 0
          -1 -1 0 -1 -1 0
          1 1 0 -1 -1 0
          1 1 0 -1 -1 0
          -1 -1 0 -1 -1 0
          -1 -1 0 -1 -1 0
          -1 -1 0 -1 -1 0
          1 1 0 -1 -1 0
          -1 -1 0 1 1 0
          1 1 0 -1 -1 0
          -1 -1 0 -1 -1 0
          -1 -1 0 -1 -1 0
          -1 -1 0 1 1 0
          -1 -1 0 -1 -1 0
          -1 -1 0 -1 -1 0
          -1 -1 0 -1 -1 0
          1 1 0 1 1 0
          -1 -1 0 1 1 0
          -1 -1 0 -1 -1 0
          -1 -1 0 -1 -1 0
          1 1 0 -1 -1 0
          -1 -1 0 -1 -1 0
          -1 -1 0 -1 -1 0
          1 1 0 -1 -1 0
          -1 -1 0 -1 -1 0
          1 1 0 -1 -1 0
          -1 -1 0 1 1 0
          1 1 0 -1 -1 0
          -1 -1 0 -1 -1 0
          -1 -1 0 -1 -1 0
          -1 -1 0 -1 -1 0
          -1 -1 0 1 1 0
          1 1 0 -1 -1 0
          1 1 0 1 1 0
          -1 -1 0 -1 -1 0
          1 1 0 -1 -1 0
          -1 -1 0 -1 -1 0
          -1 -1 0 1 1 0
          -1 -1 0 -1 -1 0
          -1 -1 0 1 1 0
          -1 -1 0 1 1 0
          -1 -1 0 -1 -1 0
          -1 -1 0 -1 -1 0
          -1 -1 0 -1 -1 0
          -1 -1 0 1 1 0
          1 1 0 -1 -1 0
          1 1 0 -1 -1 0
          1 1 0 -1 -1 0
          -1 -1 0 -1 -1 0
          1 1 0 -1 -1 0
          -1 -1 0 -1 -1 0
          -1 -1 0 -1 -1 0
          1 1 0 1 1 0
          -1 -1 0 -1 -1 0
          -1 -1 0 -1 -1 0
          -1 -1 0 -1 -1 0
          1 1 0 -1 -1 0
          -1 -1 0 -1 -1 0
          1 1 0 -1 -1 0
          1 1 0 1 1 0
          -1 -1 0 -1 -1 0
          -1 -1 0 -1 -1 0
          -1 -1 0 1 1 0
          1 1 0 -1 -1 0
          -1 -1 0 -1 -1 0
          -1 -1 0 1 1 0
          -1 -1 0 1 1 0
          -1 -1 0 -1 -1 0
          1 1 0 -1 -1 0
          -1 -1 0 1 1 0
          -1 -1 0 -1 -1 0
          1 1 0 -1 -1 0
          1 1 0 -1 -1 0
          -1 -1 0 1 1 0
          -1 -1 0 -1 -1 0
          -1 -1 0 -1 -1 0
          -1 -1 0 1 1 0
          -1 -1 0 -1 -1 0
          -1 -1 0 -1 -1 0
          -1 -1 0 -1 -1 0
          1 1 0 -1 -1 0
          -1 -1 0 -1 -1 0
          -1 -1 0 -1 -1 0
          -1 -1 0 1 1 0
          -1 -1 0 -1 -1 0
          -1 -1 0 -1 -1 0
          1 1 0 -1 -1 0
          -1 -1 0 -1 -1 0
          -1 -1 0 -1 -1 0
          -1 -1 0 1 1 0
          -1 -1 0 -1 -1 0
          -1 -1 0 -1 -1 0
          -1 -1 0 -1 -1 0
          1 1 0 -1 -1 0
          -1 -1 0 -1 -1 0
          -1 -1 0 -1 -1 0
          -1 -1 0 -1 -1 0
          -1 -1 0 -1 -1 0
          1 1 0 -1 -1 0
          -1 -1 0 -1 -1 0
          -1 -1 0 -1 -1 0
          -1 -1 0 -1 -1 0
          1 1 0 -1 -1 0
          -1 -1 0 -1 -1 0
          -1 -1 0 -1 -1 0
          -1 -1 0 -1 -1 0
          -1 -1 0 -1 -1 0
          1 1 0 -1 -1 0
          -1 -1 0 -1 -1 0
          -1 -1 0 -1 -1 0
          -1 -1 0 -1 -1 0
          -1 -1 0 -1 -1 0
          1 1 0 -1 -1 0
          -1 -1 0 -1 -1 0
          1 1 0 -1 -1 0
          -1 -1 0 -1 -1 0
          -1 -1 0 -1 -1 0
          -1 -1 0 -1 -1 0
          1 1 0 -1 -1 0
          -1 -1 0 -1 -1 0
          -1 -1 0 -1 -1 0
          -1 -1 0 -1 -1 0
          1 1 0 -1 -1 0
          -1 -1 0 1 1 0
          <InformationKey name="L2_NORM_RANGE" location="vtkDataArray" length="2">
            <Value index="0">
              1.4142135624
            </Value>
            <Value index="1">
              1.4142135624
            </Value>
          </InformationKey>
        </DataArray>
        <DataArray type="Float64" Name="Velocity" NumberOfComponents="3" format="ascii" RangeMin="0" RangeMax="1.4149923295344036">
          0 0 0 0.3185317569852624 0.024337148491516792 0
          0.7322372387645179 0.10039329774417517 0 0.5148737016909882 0.036696896166321186 0
          0 0 0 1 0 0
          0.7173929598521397 0.026515216313875826 0 0.3695865669313942 0.021732394983416534 0
          0.6437812026548279 0.038218524340592225 0 0.31166322270607766 0.004858282467994264 0
          0.6663680607385047 0.028920495649937178 0 0.5621108564483345 0.03288961870101888 0
          0.7022497313935784 -0.09766319489690187 0 0.7198274023936516 0.03355136115211911 0
          0.6861930924764812 0.0477225890860347 0 0 0 0
          0.505343480048076 0.026725571981910324 0 0.7275012032302886 0.06140959510364827 0
          0.6054087937342687 -0.004494528700011633 0 0.6491258164635557 0.0440430000114436 0
          0.6613212707976854 0.05776895296217522 0 0.6874494883779966 0.06477240077202871 0
          0.42367070694902254 0.036453729315997614 0 0.34874029937233164 -0.028471198203440927 0
          0.7343411141681523 0.09957929061150156 0 0.6429447682450877 0.08018685600821218 0
          0.7444862109416255 0.11948403583978986 0 0.7156222333004055 0.10162669979252376 0
          0.32050554790619756 0.012139804447381664 0 0.5695116185186614 0.050585052300365495 0
          0.4445166787301658 0.003950723739241164 0 0.60114807092023 0.09034717073569343 0
          0 0 0 0.6200765689550062 0.08471477251265666 0
          0.7370273157879953 0.15850464600341974 0 0.7591528537723935 0.15538565534377863 0
          0 0 0 0.7807160789405185 0.19163737770343872 0
          0.6534539081219516 0.13999929057908003 0 0.3207226565932313 0.01051447682616118 0
          0.564696718044291 0.08523700227318627 0 0.20031444688976516 0.005392722409320511 0
          0 0 0 0.4630961286977821 0.053940099954316534 0
          0.7665673740874509 0.1832155356543995 0 0.759647502684742 0.2267187531325848 0
          0.8296835536591356 0.24630587310150437 0 0.6803286813289687 0.21058824959225816 0
          0.5145652207866078 0.09827337667158527 0 0.8152941435734856 0.28441094697829883 0
          0.30520834402219016 0.026722735691269046 0 0.4605178299498387 0.024706909790075504 0
          0.7953602120480312 0.15326943408864396 0 0.8788289962986704 0.275685240018649 0
          0.5537685936530969 0.1684539525026023 0 0.6937842464707233 0.29119004381987584 0
          0.873109596965516 0.34242924351311593 0 0.34432231090204124 0.04989389982275265 0
          0.8019924632014028 0.3701662924112099 0 0.5902293849964949 0.2545747566003163 0
          0 0 0 0.9505448354011343 0.36348881461060367 0
          0.7084505941920944 0.3722223332661559 0 0.18203218709754052 0.011543141604798366 0
          0.984292533146531 0.2371072643569291 0 0.3659657531361943 0.0937800884365132 0
          0.454758740937027 0.19075380771256958 0 0.8763037804790224 0.422874268767168 0
          0.5926575345122179 0.33199534131270797 0 0 0 0
          0.7474979211626146 0.10266171023442891 0 0.4675844139596703 0.2663046398685384 0
          0.7450501014861091 0.46180714200652784 0 1.0549945941354666 0.35816983786442025 0
          0.9668935403151755 0.4616568657087719 0 0.32193653814536266 0.12554030785198234 0
          0.20953738400346603 0.03650567592568085 0 0.5677630447307781 0.410394794264606 0
          0.852427209703531 0.5109546760042731 0 1.1171501667221408 0.28616486630186067 0
          0.4642597609563542 0.340346780860865 0 0.7284055472920107 0.5115939799688053 0
          0.3379373873381448 0.18852195316623646 0 0.23946869175992463 0.06438865398947412 0
          1.0351095233064898 0.19318010974852196 0 0.6090667994894283 0.49308695391561963 0
          0.962813705775959 0.5213258255860107 0 0.3397425506447149 0.2581566668747276 0
          0 0 0 0.8326862328094938 0.08442657865808584 0
          1.191232652794525 0.3820081080169673 0 0.7911471883181295 0.5618403367384363 0
          0.4384779358023356 0.41866394271539265 0 0.6422211402122591 0.5511963952431383 0
          1.2247192464945937 0.27599238244935115 0 0.22809129844876638 0.11885901214264241 0
          0.3119377306926668 0.3046799581151377 0 0.11894886697016728 0.016226529685268092 0
          0.23966016986624405 0.18226393045802325 0 0.47734570257586884 0.010987119184823578 0
          0.9337689094367595 0.5618013164048001 0 0.42224713650859014 0.47578723287238267 0
          1.1487077850171057 0.4713333035279746 0 0.2430017028437359 0.24409912412362753 0
          0.6972360281199456 0.5848214110760613 0 0.2782413098543408 0.34446975050766676 0
          1.1690189558361754 0.1422033001172546 0 1.294868875760682 0.33080001072868537 0
          0.13647021388238656 0.04352962772363497 0 0.5219579438219404 0.5558580646165098 0
          0.8063568616425796 0.5694312023463879 0 0.2004606821423125 0.26546618476832123 0
          0.32548330713304596 0.4527790812276814 0 1.0820404660033 0.484533439570572 0
          0.9178733341862101 0.0290648925592586 0 0.13217466568786207 0.07024784716762526 0
          0.5572287035422525 0.5559499901110123 0 0.21639687154584755 0.34522408873023475 0
          1.2711336190631468 0.35764555278290644 0 1.3481521270617434 0.19592582370073308 0
          0.13832159596707624 0.12208886961733947 0 0 0 0
          0.15066545750680024 0.18994820645091515 0 0.32676953857298907 0.47885200090015384 0
          1.356383146222864 0.25952758010503674 0 0.16699699562271125 0.2769024454496589 0
          0.05729429639335562 0.008076929472187454 0 0.6566836997019042 0.5059575639308447 0
          0.1554344268834319 0.32597001045432655 0 0.9883363508683927 0.4229538911101878 0
          0.3640136834406849 0.4542891123051141 0 0.10888075372003059 0.19398259225090295 0
          1.181062786926244 0.33966021648202904 0 0.07574686222232575 0.0303877077403243 0
          0.1003216892870736 0.12717048929000138 0 1.2502041941893802 0.05991514701050646 0
          1.3158747210480846 0.25593749646136144 0 0.16266561412075645 0.34151381223399174 0
          0.08339629033706876 0.18854495917762057 0 1.4027455925711865 0.1566835986679189 0
          0.4292442400552366 0.35752244345746736 0 0.08364498160863561 0.09284319670796991 0
          0.07388015420461658 0.23910110071418045 0 0.06816809844221086 0.042841209768151305 0
          0.7665133186070737 0.30798758870982457 0 0.07654946929052824 0.12568154601848405 0
          0.06770497528875058 0.20399283179585193 0 0.07083663274892602 0.20567631626879251 0
          0 0 0 0.08465406828950553 0.2158429017044513 0
          0.9964783357428588 0.2546132006740365 0 1.40016606289839 0.08354217716819981 0
          1.1957984927174512 0.2122834970355069 0 0.041030176363921256 0.153771649748502 0
          0.05691631318554838 0.05530865172161055 0 0.0463619987021013 0.11739210022600748 0
          0.9257130601004182 0.007897260053583188 0 0.032087386672602546 0.13543524081893446 0
          0.021611184716703022 0.12022187260033307 0 0 0 0
          0.05282540323307171 0.08285386499225224 0 0.4024540957151772 0.07074559485441692 0
          0 0 0 0.7078769471925118 0.11320982971529923 0
          0 0 0 0.01751033294831243 0.09090850377355923 0
          0.028892565641002538 0.10499105368384265 0 0.03716403578466391 0.01333924266075756 0
          1.329911596382454 0.07359219895059678 0 0 0 0
          0.011034994969796357 0.0671980818695502 0 0.0398693875526645 0.05356270426702152 0
          0.9291879905639644 0.07728942832968402 0 0.031530114385369304 0.07244319061618044 0
          0 0 0 0.018359484090490933 0.0743142348170641 0
          0 0 0 1.4148990236542625 0.016249477019680277 0
          0.3550901797415502 0.028124519105428833 0 0.006586907070058796 0.05398561907249616 0
          1.1313377020212796 0.03274081981417226 0 0.01771156723791509 0.06474243807088119 0
          0.675096204098211 0.040672795328892036 0 0.03010682376972563 0.021460823835265815 0
          0 0 0 0.006767494625227922 0.04181718684275156 0
          1.4067663167361066 -0.02072263372019837 0 0 0 0
          0 0 0 0.01322075762635715 0.044715551149619365 0
          0.02347404433490819 0.024760659424267865 0 0.004764966595105028 0.03331477481466734 0
          0.018090504541468374 0.03818580450983717 0 0.3360038993979413 0.00044386372571924925 0
          0.012226184655662765 0.03788379972016665 0 0 0 0
          1.2551226489893248 -0.040839140452490354 0 0.6599619665292152 -0.020993311319089655 0
          0.9413457096928436 -0.05103095996465372 0 0.0042928461777859885 0.025430104080235647 0
          1.1537645616086127 -0.08722119852664457 0 0.016201058657348916 0.005535465469807613 0
          0 0 0 0 0 0
          0.013766412188906018 0.02187497145456488 0 0 0 0
          1.3146359602504663 -0.10568237466122136 0 0.00780809554773439 0.02454547036596618 0
          0.00358664465220639 0.01915005541867935 0 0.341536241459772 -0.025700453613672784 0
          0 0 0 1.3934062581115831 -0.11455495142082255 0
          0.007404932461721657 0.018803966732031 0 0.6734975601199181 -0.11834256978957026 0
          0.010868447441076868 0.009383788708451364 0 0.0028011658955540792 0.013610028537024725 0
          0 0 0 0.9255642434494038 -0.16138107467862836 0
          0.004609532059762157 0.014240479943948151 0 1.3758249920693137 -0.11463798154940122 0
          0 0 0 0.0024258551797452332 0.009742532230144516 0
          1.1289949010060623 -0.1865213384891157 0 0 0 0
          0 0 0 0.38880432485496785 -0.16580533023298347 0
          0.005816555589851558 0.007420802826716863 0 0.004540326220543988 0.009152369401567923 0
          0.9463970951527327 -0.044736512337979435 0 0.0014215772552444313 0.006312793677073866 0
          1.2800876784984896 -0.19435121366129293 0 1.212846254448515 -0.08869691097928263 0
          0.005772220220040691 0.0019372496904583214 0 0 0 0
          0 0 0 0.6680597145145319 -0.2287607648830658 0
          0 0 0 0 0 0
          0.0008387989187673903 0.0043077310158960306 0 0.04562064246542746 -0.07131074869795898 0
          0 0 0 0.002525517843709685 0.0050108537187534535 0
          1.3575767274708181 -0.1947723891281209 0 0.8973824753908762 -0.25951998020542894 0
          0.003174925383766285 0.0024116985728457386 0 0 0 0
          0.02569600483615602 -0.03084330538510686 0 0.0009780526755537539 0.0024246790243986974 0
          0.0021301213899225764 0.0029583828295208356 0 0 0 0
          0.014743339134471296 -0.0059176190740879 0 0 0 0
          0.3075053701503724 -0.20227388619070263 0 1.3254193628448987 -0.16946099391217317 0
          0.0009388322836378797 0.001645738291786937 0 1.0562972742217198 -0.2900553022180965 0
          0.0061527357897935755 0.010957910879494654 0 0.0017775711621946734 0.0004168538928658514 0
          0.0007183117760661291 0.001298956929206276 0 0 0 0
          0 0 0 0.10080778343382754 -0.10178768325822103 0
          0 0 0 0.0020659682606971727 0.016386966616408795 0
          0 0 0 1.226803805713614 -0.28082740184234456 0
          0.06351661597885928 -0.05314676599349591 0 0.000930179501504151 0.0006566815921003165 0
          0 0 0 0.00032042398389279674 0.0004085561948822022 0
          0.25649460254001727 -0.007526043116675827 0 0.5359574392798541 -0.27287039599230367 0
          0.0011900250457827963 0.019513821621811082 0 1.1664822229354916 -0.13842180381496225 0
          0 0 0 0 0 0
          0.0009274608691788975 0.02060150879470808 0 0.00017605203477793468 0.00010884480352466457 0
          0.2881694797621087 -0.20243750787041595 0 0.016496426748003654 0.0007800891336062012 0
          0.05137459467796996 -0.032252790732901694 0 0.7694331928541283 -0.31542524832985797 0
          0 0 0 1.292965639576422 -0.2525297311267249 0
          0.13757112353794076 -0.11139530713270424 0 -0.00001233592699056957 0.02156915378631675 0
          0 0 0 0.009969461053792605 0.015255512363145088 0
          0 0 0 0 0 0
          0.00420916862147317 0.024019608122851782 0 0.00009322605305475749 -0.0001554312796449712 0
          -0.0006461741781852549 0.02094337630611781 0 0.003666400458405623 0.028571893031145566 0
          0.7979949434065102 -0.08961950643561845 0 0 0 0
          0 0 0 0.4777349899373496 -0.27187569235955417 0
          -0.0005618397013091211 0.0200733261088568 0 0.9387117531531736 -0.3315342225311926 0
          1.2509403410702409 -0.22042644819808604 0 0 0 0
          0.03336978780758304 -0.006235455726305288 0 0 0 0
          0.30426904147515654 -0.20520286526412915 0 -0.000354684009939141 0.03303849777984895 0
          0 0 0 -0.0009106721513648173 0.01866007303378101 0
          0.012301595496422367 0.025869269491807064 0 0 0 0
          -0.0008994695626871733 0.03385040811096023 0 0.15677306509465236 -0.10957660899716481 0
          0 0 0 -0.0012137102601174118 0.016916673858737966 0
          0 0 0 -0.002086493637703738 0.03040601166698144 0
          0.6567641671343466 -0.31455131126685215 0 0 0 0
          -0.001485394519842758 0.014445550974711806 0 -0.0027788611905401354 0.02829730314635889 0
          1.0975474309116207 -0.15941540334957285 0 0.4656017053736251 -0.26405876863620076 0
          0.0027005082875238237 0.03616697152126745 0 0 0 0
          -0.0016814508896967457 0.01179430543221099 0 1.2172387160169427 -0.29551708994498205 0
          0.049655054266440624 -0.0124119393730864 0 -0.004957444678267409 0.027158518966203252 0
          1.0441235821695554 -0.3523735214274911 0 0.29727281961404706 -0.19018656507616755 0
          0 0 0 -0.001453569748785717 0.009276181811544774 0
          -0.00465130326006149 0.037529488083377284 0 0.13367633359138315 -0.08454884090154483 0
          -0.005444692013844088 0.022944750905938734 0 0.027104811985226712 0.010527115364215776 0
          0.8177978872201381 -0.34526630600880265 0 0 0 0
          -0.0013819737817018407 0.006763088291066979 0 -0.004803712177074841 0.0174851863281407 0
          0.6249772694582703 -0.30166065747205606 0 0.7169232776776611 -0.0805417169461737 0
          0 0 0 -0.0013528863636359531 0.00443813609398894 0
          -0.011006693701343304 0.030191462990592208 0 -0.005154070550093506 0.014279897136531031 0
          0.003133534777966172 0.029908908520909647 0 0.45142344930095923 -0.2454986821897181 0
          0.07175366386227351 -0.03746179674601775 0 0 0 0
          -0.0011529980601707119 0.0023336536246396796 0 1.1137588572486636 -0.3433801871335092 0
          -0.0048182507339508 0.010133949179331195 0 -0.011303698239182132 0.022946810031902357 0
          0.29505935165049274 -0.17766294742656535 0 1.1628811970838535 -0.2884953471970956 0
          0 0 0 0.9588504688840956 -0.34812078909791067 0
          -0.004365260645496737 0.0066257359128979385 0 -0.00046573478934343256 0.0005770663528575319 0
          0.04025426661263326 -0.005430614153929522 0 -0.010758774322628497 0.015614878461986652 0
          0.15034260354032847 -0.09618313513630179 0 -0.003169008222316337 0.003443040617535751 0
          0.6736770566206025 -0.30337269571169967 0 -0.013740909016033033 0.023622347859655553 0
          0 0 0 1.026782996511628 -0.20221331581442015 0
          0.32412753405874556 -0.017508522213254916 0 -0.008220879367712442 0.0073152438720624595 0
          -0.01954568188295965 0.020928203458243387 0 -0.017261941018101502 0.017102717758747832 0
          0.09673983421260138 -0.055364666264139974 0 0.4239584617015369 -0.23228721952568904 0
          0 0 0 -0.003694772074731166 0.0016946157412732485 0
          1.0523610034443025 -0.3108892127083765 0 -0.003242666494604544 -0.004384132959250345 0
          -0.016213015963824372 0.009249164875344171 0 -0.021269745613585942 0.009169679518735154 0
          0.8270592150894035 -0.31266650047981637 0 0.1950688772545382 -0.12788894557558522 0
          0.5663182247403193 -0.0725217073644394 0 -0.024196905788225753 0.010891025072249962 0
          0 0 0 -0.009491212304344345 0.002655072752616926 0
          0.5634515997472846 -0.2710965016726998 0 1.1045893534835494 -0.25900794805746885 0
          0.040116453981807375 -0.04909252584401912 0 0.3393606430551535 -0.20328401179031394 0
          -0.00961156942054112 -0.014869713378748957 0 -0.02381139158358369 -0.00077182872990675 0
          -0.01676502342636683 0.002280842245205322 0 0.9876566513802015 -0.30247464502584126 0
          0 0 0 -0.023017505347285507 0.003355121268387919 0
          0.748924762494579 -0.31822304749282904 0 0.48156859724980605 -0.2667856212250691 0
          0 0 0 0.122216151326096 -0.1137456224626787 0
          0.022805742075005818 -0.05302052229165832 0 0.9918335451163925 -0.09003791205377992 0
          -0.009955783084958012 -0.023774283358197777 0 -0.016657898840262992 0.0011820590377796844 0
          -0.019319964860273528 -0.00657975877443569 0 0.2673784672988785 -0.2060890687585562 0
          0 0 0 1.0058220836736422 -0.3707322423229683 0
          -0.013976446103031798 -0.000003615695993541649 0 0.08845181489922394 -0.12389644836308034 0
          0.0179882551241371 -0.054157310378698094 0 0.5601359854970316 -0.407851858518523 0
          -0.003183868348812834 -0.016119482446668137 0 0.23084082087098498 -0.27716591118463335 0
          0 0 0 0.021761970940638805 -0.03492379987758332 0
          0.08383563020898889 -0.10695610770065198 0 0 0 0
          <InformationKey name="L2_NORM_RANGE" location="vtkDataArray" length="2">
            <Value index="0">
              0
            </Value>
            <Value index="1">
              1.4149923295
            </Value>
          </InformationKey>
        </DataArray>
        <DataArray type="Float64" Name="Pressure" format="ascii" RangeMin="-8.280220353531375" RangeMax="36.945717736209986">
          36.28644724392963 36.44449188287594 36.77056129841013 36.22117496862929 36.03895453942958 36.81190629164461
          36.08356697690803 35.53224587591974 35.39209788914592 34.6290693332265 36.13424489028853 34.41568783184146
          36.945717736209986 35.342566405580115 34.42554478683424 33.6271632021608 33.47550815332834 34.53639816879798
          36.520066173282515 35.57620638064611 33.34060701556046 34.79317350236264 32.412643357772254 36.91044065520923
          33.53767049002605 32.24817959569671 32.366250428243724 33.96296691754731 31.487127612378963 34.96077791351512
          35.93520398605227 30.932166691493972 36.730732008601535 34.23129107751497 33.130678779757815 31.214253352941356
          30.406617423686342 31.628218195951522 33.58205282857161 35.21628385930755 29.557661014223413 35.626890559517115
          36.750986350135506 34.395720624777105 29.72013606028729 32.196956662661286 30.21204250932357 32.864351920974045
          33.905274898710694 30.83631556456112 34.50946261729905 27.605540681315603 27.932665769801165 28.578868060194214
          33.46222893966406 32.140648318654264 29.418299529985738 34.03113608543141 30.29700908189192 32.848552350495574
          34.739406999806924 27.5932478614273 31.24759535054384 34.11781631997387 25.9252354995704 33.805258297538565