<?xml version="1.0"?>
<VTKFile type="UnstructuredGrid" version="0.1" byte_order="LittleEndian" header_type="UInt32" compressor="vtkZLibDataCompressor">
  <UnstructuredGrid>
    <Piece NumberOfPoints="418" NumberOfCells="757">
      <PointData>
        <DataArray type="Float64" Name="nsi_BC" NumberOfComponents="3" format="ascii" RangeMin="0" RangeMax="1">
          0 0 0 0 0 0
          0 0 0 0 0 0
          0 0 0 1 0 0
          0 0 0 0 0 0
          0 0 0 0 0 0
          0 0 0 0 0 0
          0 0 0 0 0 0
          0 0 0 0 0 0
          0 0 0 0 0 0
          0 0 0 0 0 0
          0 0 0 0 0 0
          0 0 0 0 0 0
          0 0 0 0 0 0
          0 0 0 0 0 0
          0 0 0 0 0 0
          0 0 0 0 0 0
          0 0 0 0 0 0
          0 0 0 0 0 0
          0 0 0 0 0 0
          0 0 0 0 0 0
          0 0 0 0 0 0
          0 0 0 0 0 0
          0 0 0 0 0 0
          0 0 0 0 0 0
          0 0 0 0 0 0
          0 0 0 0 0 0
          0 0 0 0 0 0
          0 0 0 0 0 0
          0 0 0 0 0 0
          0 0 0 0 0 0
          0 0 0 0 0 0
          0 0 0 0 0 0
          0 0 0 0 0 0
          0 0 0 0 0 0
          0 0 0 0 0 0
          0 0 0 0 0 0
          0 0 0 0 0 0
          0 0 0 0 0 0
          0 0 0 0 0 0
          0 0 0 0 0 0
          0 0 0 0 0 0
          0 0 0 0 0 0
          0 0 0 0 0 0
          0 0 0 0 0 0
          0 0 0 0 0 0
          0 0 0 0 0 0
          0 0 0 0 0 0
          0 0 0 0 0 0
          0 0 0 0 0 0
          0 0 0 0 0 0
          0 0 0 0 0 0
          0 0 0 0 0 0
          0 0 0 0 0 0
          0 0 0 0 0 0
          0 0 0 0 0 0
          0 0 0 0 0 0
          0 0 0 0 0 0
          0 0 0 0 0 0
          0 0 0 0 0 0
          0 0 0 0 0 0
          0 0 0 0 0 0
          0 0 0 0 0 0
          0 0 0 0 0 0
          0 0 0 0 0 0
          0 0 0 0 0 0
          0 0 0 0 0 0
          0 0 0 0 0 0
          0 0 0 0 0 0
          0 0 0 0 0 0
          0 0 0 0 0 0
          0 0 0 0 0 0
          0 0 0 0 0 0
          0 0 0 0 0 0
          0 0 0 0 0 0
          0 0 0 0 0 0
          0 0 0 0 0 0
          0 0 0 0 0 0
          0 0 0 0 0 0
          0 0 0 0 0 0
          0 0 0 0 0 0
          0 0 0 0 0 0
          0 0 0 0 0 0
          0 0 0 0 0 0
          0 0 0 0 0 0
          0 0 0 0 0 0
          0 0 0 0 0 0
          0 0 0 0 0 0
          0 0 0 0 0 0
          0 0 0 0 0 0
          0 0 0 0 0 0
          0 0 0 0 0 0
          0 0 0 0 0 0
          0 0 0 0 0 0
          0 0 0 0 0 0
          0 0 0 0 0 0
          0 0 0 0 0 0
          0 0 0 0 0 0
          0 0 0 0 0 0
          0 0 0 0 0 0
          0 0 0 0 0 0
          0 0 0 0 0 0
          0 0 0 0 0 0
          0 0 0 0 0 0
          0 0 0 0 0 0
          0 0 0 0 0 0
          0 0 0 0 0 0
          0 0 0 0 0 0
          0 0 0 0 0 0
          0 0 0 0 0 0
          0 0 0 0 0 0
          0 0 0 0 0 0
          0 0 0 0 0 0
          0 0 0 0 0 0
          0 0 0 0 0 0
          0 0 0 0 0 0
          0 0 0 0 0 0
          0 0 0 0 0 0
          0 0 0 0 0 0
          0 0 0 0 0 0
          0 0 0 0 0 0
          0 0 0 0 0 0
          0 0 0 0 0 0
          0 0 0 0 0 0
          0 0 0 0 0 0
          0 0 0 0 0 0
          0 0 0 0 0 0
          0 0 0 0 0 0
          0 0 0 0 0 0
          0 0 0 0 0 0
          0 0 0 0 0 0
          0 0 0 0 0 0
          0 0 0 0 0 0
          0 0 0 0 0 0
          0 0 0 0 0 0
          0 0 0 0 0 0
          0 0 0 0 0 0
          0 0 0 0 0 0
          0 0 0 0 0 0
          0 0 0 0 0 0
          0 0 0 0 0 0
          0 0 0 0 0 0
          0 0 0 0 0 0
          0 0 0 0 0 0
          0 0 0 0 0 0
          0 0 0 0 0 0
          0 0 0 0 0 0
          0 0 0 0 0 0
          0 0 0 0 0 0
          0 0 0 0 0 0
          0 0 0 0 0 0
          0 0 0 0 0 0
          0 0 0 0 0 0
          0 0 0 0 0 0
          0 0 0 0 0 0
          0 0 0 0 0 0
          0 0 0 0 0 0
          0 0 0 0 0 0
          0 0 0 0 0 0
          0 0 0 0 0 0
          0 0 0 0 0 0
          0 0 0 0 0 0
          0 0 0 0 0 0
          0 0 0 0 0 0
          0 0 0 0 0 0
          0 0 0 0 0 0
          0 0 0 0 0 0
          0 0 0 0 0 0
          0 0 0 0 0 0
          0 0 0 0 0 0
          0 0 0 0 0 0
          0 0 0 0 0 0
          0 0 0 0 0 0
          0 0 0 0 0 0
          0 0 0 0 0 0
          0 0 0 0 0 0
          0 0 0 0 0 0
          0 0 0 0 0 0
          0 0 0 0 0 0
          0 0 0 0 0 0
          0 0 0 0 0 0
          0 0 0 0 0 0
          0 0 0 0 0 0
          0 0 0 0 0 0
          0 0 0 0 0 0
          0 0 0 0 0 0
          0 0 0 0 0 0
          0 0 0 0 0 0
          0 0 0 0 0 0
          0 0 0 0 0 0
          0 0 0 0 0 0
          0 0 0 0 0 0
          0 0 0 0 0 0
          0 0 0 0 0 0
          0 0 0 0 0 0
          0 0 0 0 0 0
          0 0 0 0 0 0
          0 0 0 0 0 0
          0 0 0 0 0 0
          0 0 0 0 0 0
          0 0 0 0 0 0
          0 0 0 0 0 0
          0 0 0 0 0 0
          0 0 0 0 0 0
          0 0 0 0 0 0
          0 0 0 0 0 0
          0 0 0 0 0 0
          0 0 0 0 0 0
          0 0 0 0 0 0
          0 0 0 0 0 0
          <InformationKey name="L2_NORM_RANGE" location="vtkDataArray" length="2">
            <Value index="0">
              0
            </Value>
            <Value index="1">
              1
            </Value>
          </InformationKey>
        </DataArray>
        <DataArray type="Float64" Name="nsi_FIXNO" NumberOfComponents="3" format="ascii" RangeMin="1.4142135623730951" RangeMax="1.4142135623730951">
          1 1 0 -1 -1 0
          -1 -1 0 -1 -1 0
          1 1 0 1 1 0
          -1 -1 0 -1 -1 0
          -1 -1 0 -1 -1 0
          -1 -1 0 -1 -1 0
          -1 -1 0 -1 -1 0
          -1 -1 0 1 1 0
          -1 -1 0 -1 -1 0
          -1 -1 0 -1 -1 0
          -1 -1 0 -1 -1 0
          -1 -1 0 -1 -1 0
          -1 -1 0 -1 -1 0
          -1 -1 0 -1 -1 0
          -1 -1 0 -1 -1 0
          -1 -1 0 -1 -1 0
          1 1 0 -1 -1 0
          -1 -1 0 -1 -1 0
          1 1 0 -1 -1 0
          -1 -1 0 -1 -1 0
          -1 -1 0 -1 -1 0
          1 1 0 -1 -1 0
          -1 -1 0 -1 -1 0
          -1 -1 0 -1 -1 0
          -1 -1 0 -1 -1 0
          -1 -1 0 -1 -1 0
          -1 -1 0 -1 -1 0
          -1 -1 0 -1 -1 0
          -1 -1 0 -1 -1 0
          -1 -1 0 -1 -1 0
          1 1 0 -1 -1 0
          -1 -1 0 -1 -1 0
          -1 -1 0 -1 -1 0
          -1 -1 0 -1 -1 0
          -1 -1 0 1 1 0
          -1 -1 0 -1 -1 0
          -1 -1 0 -1 -1 0
          -1 -1 0 -1 -1 0
          -1 -1 0 -1 -1 0
          -1 -1 0 -1 -1 0
          -1 -1 0 -1 -1 0
          -1 -1 0 -1 -1 0
          -1 -1 0 -1 -1 0
          -1 -1 0 -1 -1 0
          1 1 0 -1 -1 0
          -1 -1 0 -1 -1 0
          -1 -1 0 -1 -1 0
          -1 -1 0 -1 -1 0
          -1 -1 0 -1 -1 0
          -1 -1 0 -1 -1 0
          -1 -1 0 -1 -1 0
          -1 -1 0 -1 -1 0
          -1 -1 0 -1 -1 0
          -1 -1 0 -1 -1 0
          -1 -1 0 -1 -1 0
          -1 -1 0 -1 -1 0
          -1 -1 0 -1 -1 0
          -1 -1 0 -1 -1 0
          -1 -1 0 -1 -1 0
          -1 -1 0 -1 -1 0
          -1 -1 0 1 1 0
          -1 -1 0 -1 -1 0
          -1 -1 0 -1 -1 0
          -1 -1 0 -1 -1 0
          -1 -1 0 -1 -1 0
          -1 -1 0 -1 -1 0
          -1 -1 0 -1 -1 0
          -1 -1 0 -1 -1 0
          -1 -1 0 -1 -1 0
          -1 -1 0 -1 -1 0
          -1 -1 0 -1 -1 0
          -1 -1 0 -1 -1 0
          -1 -1 0 -1 -1 0
          -1 -1 0 -1 -1 0
          1 1 0 -1 -1 0
          -1 -1 0 -1 -1 0
          -1 -1 0 -1 -1 0
          -1 -1 0 -1 -1 0
          -1 -1 0 -1 -1 0
          -1 -1 0 1 1 0
          -1 -1 0 -1 -1 0
          1 1 0 -1 -1 0
          1 1 0 -1 -1 0
          -1 -1 0 -1 -1 0
          -1 -1 0 1 1 0
          -1 -1 0 -1 -1 0
          -1 -1 0 -1 -1 0
          1 1 0 -1 -1 0
          1 1 0 -1 -1 0
          -1 -1 0 -1 -1 0
          -1 -1 0 -1 -1 0
          -1 -1 0 -1 -1 0
          1 1 0 -1 -1 0
          -1 -1 0 1 1 0
          1 1 0 -1 -1 0
          -1 -1 0 -1 -1 0
          -1 -1 0 -1 -1 0
          -1 -1 0 1 1 0
          -1 -1 0 -1 -1 0
          -1 -1 0 -1 -1 0
          -1 -1 0 -1 -1 0
          1 1 0 1 1 0
          -1 -1 0 1 1 0
          -1 -1 0 -1 -1 0
          -1 -1 0 -1 -1 0
          1 1 0 -1 -1 0
          -1 -1 0 -1 -1 0
          -1 -1 0 -1 -1 0
          1 1 0 -1 -1 0
          -1 -1 0 -1 -1 0
          1 1 0 -1 -1 0
          -1 -1 0 1 1 0
          1 1 0 -1 -1 0
          -1 -1 0 -1 -1 0
          -1 -1 0 -1 -1 0
          -1 -1 0 -1 -1 0
          -1 -1 0 1 1 0
          1 1 0 -1 -1 0
          1 1 0 1 1 0
          -1 -1 0 -1 -1 0
          1 1 0 -1 -1 0
          -1 -1 0 -1 -1 0
          -1 -1 0 1 1 0
          -1 -1 0 -1 -1 0
          -1 -1 0 1 1 0
          -1 -1 0 1 1 0
          -1 -1 0 -1 -1 0
          -1 -1 0 -1 -1 0
          -1 -1 0 -1 -1 0
          -1 -1 0 1 1 0
          1 1 0 -1 -1 0
          1 1 0 -1 -1 0
          1 1 0 -1 -1 0
          -1 -1 0 -1 -1 0
          1 1 0 -1 -1 0
          -1 -1 0 -1 -1 0
          -1 -1 0 -1 -1 0
          1 1 0 1 1 0
          -1 -1 0 -1 -1 0
          -1 -1 0 -1 -1 0
          -1 -1 0 -1 -1 0
          1 1 0 -1 -1 0
          -1 -1 0 -1 -1 0
          1 1 0 -1 -1 0
          1 1 0 1 1 0
          -1 -1 0 -1 -1 0
          -1 -1 0 -1 -1 0
          -1 -1 0 1 1 0
          1 1 0 -1 -1 0
          -1 -1 0 -1 -1 0
          -1 -1 0 1 1 0
          -1 -1 0 1 1 0
          -1 -1 0 -1 -1 0
          1 1 0 -1 -1 0
          -1 -1 0 1 1 0
          -1 -1 0 -1 -1 0
          1 1 0 -1 -1 0
          1 1 0 -1 -1 0
          -1 -1 0 1 1 0
          -1 -1 0 -1 -1 0
          -1 -1 0 -1 -1 0
          -1 -1 0 1 1 0
          -1 -1 0 -1 -1 0
          -1 -1 0 -1 -1 0
          -1 -1 0 -1 -1 0
          1 1 0 -1 -1 0
          -1 -1 0 -1 -1 0
          -1 -1 0 -1 -1 0
          -1 -1 0 1 1 0
          -1 -1 0 -1 -1 0
          -1 -1 0 -1 -1 0
          1 1 0 -1 -1 0
          -1 -1 0 -1 -1 0
          -1 -1 0 -1 -1 0
          -1 -1 0 1 1 0
          -1 -1 0 -1 -1 0
          -1 -1 0 -1 -1 0
          -1 -1 0 -1 -1 0
          1 1 0 -1 -1 0
          -1 -1 0 -1 -1 0
          -1 -1 0 -1 -1 0
          -1 -1 0 -1 -1 0
          -1 -1 0 -1 -1 0
          1 1 0 -1 -1 0
          -1 -1 0 -1 -1 0
          -1 -1 0 -1 -1 0
          -1 -1 0 -1 -1 0
          1 1 0 -1 -1 0
          -1 -1 0 -1 -1 0
          -1 -1 0 -1 -1 0
          -1 -1 0 -1 -1 0
          -1 -1 0 -1 -1 0
          1 1 0 -1 -1 0
          -1 -1 0 -1 -1 0
          -1 -1 0 -1 -1 0
          -1 -1 0 -1 -1 0
          -1 -1 0 -1 -1 0
          1 1 0 -1 -1 0
          -1 -1 0 -1 -1 0
          1 1 0 -1 -1 0
          -1 -1 0 -1 -1 0
          -1 -1 0 -1 -1 0
          -1 -1 0 -1 -1 0
          1 1 0 -1 -1 0
          -1 -1 0 -1 -1 0
          -1 -1 0 -1 -1 0
          -1 -1 0 -1 -1 0
          1 1 0 -1 -1 0
          -1 -1 0 1 1 0
          <InformationKey name="L2_NORM_RANGE" location="vtkDataArray" length="2">
            <Value index="0">
              1.4142135624
            </Value>
            <Value index="1">
              1.4142135624
            </Value>
          </InformationKey>
        </DataArray>
        <DataArray type="Float64" Name="Velocity" NumberOfComponents="3" format="ascii" RangeMin="0" RangeMax="1.4197406669698183">
          0 0 0 0.32111691300628875 0.025526944608906626 0
          0.7321314624196746 0.10676362600718828 0 0.5240566446373565 0.046875085498426707 0
          0 0 0 0.9999999999999999 0 0
          0.7091891287138571 0.03652376930485347 0 0.38479436014562185 0.02897790010242831 0
          0.6448410634502629 0.04785010094102535 0 0.33124757089387663 0.006500719861538597 0
          0.6602143939688222 0.022154900822137006 0 0.5763060130264327 0.03978473903173975 0
          0.701766551479255 -0.09672511006126146 0 0.6906066924292091 0.033353341803887715 0
          0.6689439308334889 0.051914337418247976 0 0 0 0
          0.5322842739607135 0.026634932241744933 0 0.6885932311425391 0.05769844995736349 0
          0.6081951054251208 -0.015339311410703035 0 0.6386257470499032 0.029257919673596703 0
          0.6619369976134125 0.058079024022878206 0 0.6563450040778375 0.05171377018684884 0
          0.44774122685656137 0.03602459962139598 0 0.3467846419656405 -0.02856164279613799 0
          0.696417757310186 0.09408433830946307 0 0.6571890652803786 0.07600462270301173 0
          0.7255813300258265 0.11280167167909792 0 0.668121666776387 0.09069776055690187 0
          0.33858516523721327 0.011241631076930655 0 0.5703121603191067 0.034478599165290606 0
          0.4559137334695065 -0.009828890386220712 0 0.6215630954735242 0.08693632556374004 0
          0 0 0 0.602479040220406 0.07182691918939903 0
          0.683332676166414 0.14818380296547787 0 0.7540283527088467 0.14722520653341498 0
          0 0 0 0.749565308220165 0.18278620152093517 0
          0.6179991892284065 0.1300427422899528 0 0.34488462056702646 0.00439143292818225 0
          0.5860265963481118 0.0815329998893318 0 0.2131760050751404 0.0033857864919820614 0
          0 0 0 0.4832052421592284 0.04388259255811926 0
          0.7716029288084036 0.1751492350925258 0 0.7098669113632224 0.2153849413300047 0
          0.808084189713365 0.23537108435236714 0 0.634530981639832 0.20269673666942994 0
          0.5207498469756147 0.09108998514394016 0 0.7734249757892271 0.27335264122241326 0
          0.33658691755872466 0.022823208454559606 0 0.4743944141928251 0.02277151732509992 0
          0.8072075691279282 0.14506484543008377 0 0.8677156105171538 0.2650382973074321 0
          0.5403651976584124 0.1654735886047248 0 0.6480008919469129 0.2874043264821149 0
          0.8404655439439997 0.3322851139253527 0 0.3809442030043719 0.047418630906209194 0
          0.76126129437438 0.3643249172866159 0 0.5617188848947413 0.2555641048998423 0
          0 0 0 0.9289304622935746 0.3535945622434412 0
          0.6684605165280652 0.3737705062926742 0 0.2082502269544727 0.011068689970818425 0
          0.9875455261973098 0.22584253242974617 0 0.3978930664881311 0.09525448013759674 0
          0.45678236995498483 0.19689712195305567 0 0.8433599602802265 0.4192153485310847 0
          0.5618259653983045 0.34006054649010375 0 0 0 0
          0.7567669440055673 0.09590713739435905 0 0.457858831943623 0.27925748895777935 0
          0.7100668005225184 0.4676095222894465 0 1.0437713853648725 0.34941952521553377 0
          0.9438807380464037 0.4585874235530683 0 0.34977124718306024 0.13464526050289552 0
          0.2457780273050409 0.036842956554357924 0 0.5419555238751567 0.4268270613942617 0
          0.8248343601953407 0.5161067722443764 0 1.116883827727054 0.2756524725112847 0
          0.4495014825558702 0.3610479981338547 0 0.7009872298615449 0.5239258571661838 0
          0.3522481039023234 0.20523859282359277 0 0.27588256094270575 0.06958362541620822 0
          1.039611681219483 0.18406966061245333 0 0.5855210569371982 0.5120421824231268 0
          0.9438897044627198 0.5255462414999025 0 0.34243016664891235 0.2821918373112597 0
          0 0 0 0.8375298745793537 0.07903807218548688 0
          1.185091921109103 0.375304579669494 0 0.7709586167277461 0.574372325134005 0
          0.423551278425667 0.445511245485683 0 0.6233739494730656 0.5699857652328777 0
          1.2263630406517585 0.2666385860838187 0 0.25626567555105684 0.13441464634846106 0
          0.30969822832529575 0.33531149738357696 0 0.14683776645073887 0.018089850501415174 0
          0.2569623792736276 0.20695503059780734 0 0.4777504414656256 0.009445051862252665 0
          0.9215102149482293 0.5699822818809779 0 0.40927884798099956 0.5028936530225714 0
          1.1410428129138808 0.47072882135728294 0 0.24938630426094835 0.2754908614887083 0
          0.6839511020778564 0.6006737278837911 0 0.27346995413452957 0.3770297086248089 0
          1.1716516769909364 0.1329045719655728 0 1.2936687587540852 0.3232142147670859 0
          0.16824987845107015 0.05051454824345067 0 0.5102212877964412 0.576385858792131 0
          0.7978059879547603 0.5792629152367009 0 0.20218694117484617 0.29905474526456743 0
          0.31701029361635125 0.4776482967187165 0 1.076569176374186 0.4873574154878112 0
          0.9162768008972889 0.02441375309060056 0 0.16064310477125301 0.08376289693997346 0
          0.5490452507525578 0.5701797547503281 0 0.21225141255072555 0.37528214698583373 0
          1.2704317294504264 0.3535805036429826 0 1.351190221418554 0.18519880957493545 0
          0.15718494704189584 0.14670386662672688 0 0 0 0
          0.1581339142226362 0.2215351192206277 0 0.3201813258130913 0.49697058853196197 0
          1.3582327318069864 0.2512194458923184 0 0.16585310305023773 0.30802647505746455 0
          0.07370315363365837 0.00978899791674547 0 0.6511822472617536 0.5134953271387801 0
          0.15177423916762242 0.3480114351100327 0 0.9845598524193322 0.42476698244814004 0
          0.35961414045066253 0.46456353059437644 0 0.11167858512329648 0.22435921595671077 0
          1.1804078120441772 0.3370470419026101 0 0.09864352607748256 0.03738041185217135 0
          0.11272134990691551 0.15405643777558417 0 1.2496063725694024 0.05001693986296282 0
          1.318268105548229 0.24870542635927734 0 0.15967385041794901 0.3542244278173226 0
          0.08361122524659954 0.21437300802057777 0 1.4068994285743506 0.14376120561178607 0
          0.42624106319717237 0.36120925903308365 0 0.0974624853073007 0.1152955808265032 0
          0.072272938097065 0.2526140664675604 0 0.08899892394208539 0.053611015290694584 0
          0.7629078176906962 0.3084061835044981 0 0.08319517552006839 0.15290322844190168 0
          0.06676077383359455 0.22394019615256475 0 0.06964149877479277 0.22158528282847983 0
          0 0 0 0.08350269379962791 0.2215032771415957 0
          0.9948707858621753 0.2520888457715412 0 1.401907690593192 0.06908561065261026 0
          1.197585208372623 0.2056674660395907 0 0.04031970643412814 0.16073553926686274 0
          0.07174132546216831 0.07179567934370364 0 0.04845580536183172 0.14056668880073178 0
          0.9188445541338729 0.002264411134941563 0 0.03194327090931318 0.1523615207740463 0
          0.021188971821793984 0.12797826025989228 0 0 0 0
          0.06118039038834466 0.10506589728330964 0 0.3995568144899407 0.06993585034072793 0
          0 0 0 0.7054560367076826 0.1110569926631404 0
          0 0 0 0.017244117416531143 0.09918608419071544 0
          0.029255764404318447 0.12181357986330504 0 0.050782242074055385 0.017071011269410758 0
          1.3361761301182655 0.05840387538924501 0 0 0 0
          0.01095955306920624 0.0757940198936972 0 0.049484725718668916 0.07090970041547341 0
          0.9302395240133388 0.07131515010678698 0 0.03516749845362821 0.09185884198179917 0
          0 0 0 0.01922000392761246 0.08917523173164325 0
          0 0 0 1.4197369182899795 -0.003262559175911874 0
          0.3530529684645193 0.02739478495784013 0 0.006620345198185136 0.06260615223642227 0
          1.1365778038820002 0.020358057808793704 0 0.01879296881913957 0.08009154455788534 0
          0.6747980780272785 0.03733852035840937 0 0.042095388898924634 0.028583159115136186 0
          0 0 0 0.006951365697401996 0.050233949242721586 0
          1.4049711610486264 -0.04008080044262685 0 0 0 0
          0 0 0 0.014786411531894961 0.057521113744592976 0
          0.03215353159177465 0.03448462594598849 0 0.005041936634449722 0.04129313029165846 0
          0.02238114100973869 0.052224111855071774 0 0.33535691295139153 -0.0010297642476948597 0
          0.013976370546278748 0.05044380958373562 0 0 0 0
          1.2456668741550043 -0.055252155766430194 0 0.6625545857545873 -0.027204079033692548 0
          0.9478949596226843 -0.06460009220207145 0 0.004661277513269178 0.03286678215148802 0
          1.163097464828581 -0.10992994423267953 0 0.02344426737949131 0.007640262995398884 0
          0 0 0 0 0 0
          0.018370368707082717 0.0317855116865988 0 0 0 0
          1.321721028625272 -0.1331077545216098 0 0.009663938239724165 0.03419839715019021 0
          0.004078535570652937 0.02580289351556619 0 0.3433921471175131 -0.02877936610857979 0
          0 0 0 1.394462294505817 -0.14291916585805056 0
          0.009351914958013728 0.027134624959158443 0 0.680963533144016 -0.13302582584543612 0
          0.016577028543770484 0.013557437743702714 0 0.003325972923938095 0.019406259222004767 0
          0 0 0 0.9358725958880304 -0.1863447347531833 0
          0.006388312984083684 0.021461819583469113 0 1.3673119323973886 -0.1391263522832462 0
          0 0 0 0.0030737053516123485 0.014573482637875999 0
          1.139041434689026 -0.21944204047321678 0 0 0 0
          0 0 0 0.3967659831065584 -0.182850081598938 0
          0.008813623763473498 0.012064237400335114 0 0.006278609964060824 0.014610257973758594 0
          0.9283450194640537 -0.05300675291473659 0 0.0019378914116979762 0.01015766551043499 0
          1.2848957519957351 -0.2311176357715608 0 1.1956234992862014 -0.10513911001062005 0
          0.008975227403932275 0.003010981179262014 0 0 0 0
          0 0 0 0.6791673445211276 -0.2586366418908218 0
          0 0 0 0 0 0
          0.0012413584529239394 0.007307409496992966 0 0.04764198012112977 -0.08938888279592999 0
          0 0 0 0.0038559295287580496 0.008580639443340555 0
          1.3530528205257795 -0.22966468083164435 0 0.9088507786995106 -0.3000141378284792 0
          0.005480502842224654 0.004106204102596382 0 0 0 0
          0.026591928375955195 -0.04737707295344969 0 0.0014164021870449617 0.00461419616675341 0
          0.0033613009670679823 0.005437885236361338 0 0 0 0
          0.015260031947013357 -0.02149081839367012 0 0 0 0
          0.315490385441649 -0.23925682036578913 0 1.3084447232090515 -0.19610762892023081 0
          0.0018298965381625956 0.00327308859684691 0 1.0636081925899112 -0.33897735506281523 0
          0.006454089489818946 -0.003897155464499621 0 0.0030269379600218215 0.0008705863046848398 0
          0.0011437566655448787 0.0028146315763458666 0 0 0 0
          0 0 0 0.10404246287246482 -0.1374173087182619 0
          0 0 0 0.002236856211099454 0.0019709332927133065 0
          0 0 0 1.2241151037941898 -0.3273741057729198 0
          0.0655776581381314 -0.08748046636729762 0 0.0017948181460122855 0.0014476301389697167 0
          0 0 0 0.0005968658075332825 0.0013143975089237319 0
          0.24970210175642082 -0.007745968353992271 0 0.5461616533984256 -0.32628831493031757 0
          0.0014444710895976421 0.005509569605146653 0 1.1400818079523 -0.1526248209270669 0
          0 0 0 0 0 0
          0.0013883090242075163 0.007224657844854532 0 0.00041332732590517026 0.0006025810280922957 0
          0.29495454497929424 -0.2572279371183173 0 0.01757657096719629 -0.031382373064493194 0
          0.05324600196260838 -0.07240813176423856 0 0.7778154875424007 -0.3771113347729838 0
          0 0 0 1.2771282229949286 -0.29027370493601407 0
          0.14124444985915635 -0.16390384819082085 0 0.0005599737694944614 0.008977176587090763 0
          0 0 0 0.010961884662126043 -0.015736094135199222 0
          0 0 0 0 0 0
          0.005592333915042387 -0.002261037386431169 0 0.00022531446673252956 -0.00008459543436437333 0
          -0.000042085241837336236 0.009476686279218733 0 0.00530001049581379 0.0030867844964737687 0
          0.7725602719135495 -0.09435867403219955 0 0 0 0
          0 0 0 0.4850053393499796 -0.34318351739976066 0
          0.00024120178099081875 0.009900937101488915 0 0.9384073409456484 -0.39723003768494597 0
          1.220145970268154 -0.24430367694325092 0 0 0 0
          0.03622455151351672 -0.05655122229128188 0 0 0 0
          0.30995118882963724 -0.2782822929158519 0 0.0021771921189041614 0.007139305350772174 0
          0 0 0 0.00006928929664549519 0.009995941026484082 0
          0.015965753964449065 -0.01627711537091432 0 0 0 0
          0.0019410106805563523 0.010645656962755731 0 0.16143717658444404 -0.1804909349318847 0
          0 0 0 -0.00036932323987406783 0.009717875080605166 0
          0 0 0 0.0009963388579644781 0.012116075254455369 0
          0.6580991753128521 -0.3940648542621538 0 0 0 0
          -0.000680095019572808 0.008776960379270116 0 0.00013924820330007322 0.012820630858041209 0
          1.0606486547344658 -0.16875564803801868 0 0.4694295179525535 -0.34925708922985227 0
          0.009823491812731566 -0.003106888903970605 0 0 0 0
          -0.0005833874955170706 0.007874279655577502 0 1.1840785636151172 -0.33080972493535676 0
          0.057162350994882816 -0.07688641970072088 0 -0.0016544863233823224 0.013092575348899814 0
          1.0240746005633334 -0.41185991250855597 0 0.3024739578593572 -0.27696771544863796 0
          0 0 0 -0.00062572621723922 0.006955070617822015 0
          0.002742945252003596 0.00841042203075218 0 0.14261405148712555 -0.16610162855406163 0
          -0.0016092607127416135 0.012487945989508246 0 0.03896434928339421 -0.048552025192054496 0
          0.8062255065037578 -0.4209773759004167 0 0 0 0
          -0.0008636886916797579 0.005596095513126776 0 -0.0014762509943813387 0.010931510703375388 0
          0.6196294340504593 -0.386190696827505 0 0.6871328759198463 -0.08114393570813909 0
          0 0 0 -0.0009498244938696523 0.00405827570500088 0
          -0.0015254263349187074 0.011234652371504863 0 -0.0026137835544553507 0.009909353316588694 0
          0.018875787001340304 -0.017771124915535813 0 0.45300568451730105 -0.33653833649303044 0
          0.08878423139185711 -0.11210913120684703 0 0 0 0
          -0.0010224592365171382 0.0023691398377417966 0 1.0727944690545266 -0.38209214188918056 0
          -0.0029704627976516597 0.007815644949819081 0 -0.0029719450231926944 0.011209276794743449 0
          0.304025751166987 -0.26944065117793986 0 1.112101961330883 -0.30616249970173504 0
          0 0 0 0.9271855796685832 -0.4047444723555126 0
          -0.0032752947779241207 0.00541683482257182 0 -0.00048611453597432205 0.0006926756847165496 0
          0.0640270980768945 -0.06926922848143122 0 -0.0052311549403213945 0.009202289379533145 0
          0.171056513548725 -0.18041670809763963 0 -0.0027762325822988944 0.003038416509700667 0
          0.6597072156118456 -0.3801010147368552 0 0.010661090497419635 -0.014356787920352833 0
          0 0 0 0.9784598573368795 -0.20375346854405404 0
          0.3079526132179154 -0.017098905865985364 0 -0.0059990451921840765 0.005189115338358948 0
          0.000299270162752417 -0.002565526337851978 0 -0.0038745234488288933 0.003408908479531228 0
          0.12698972949390758 -0.13072023393737525 0 0.4285423602093642 -0.31336581893552157 0
          0 0 0 -0.003114528413307041 0.0013725266884642173 0
          0.9987760655915919 -0.33811300426990365 0 0.036828172826159675 -0.05480434097251332 0
          -0.008850448865612322 0.003564362016646745 0 0.012331229676335048 -0.023147910898705285 0
          0.7922383680694771 -0.3579780030726583 0 0.22726766439151294 -0.2032095409691916 0
          0.5363439777802244 -0.07126930365188892 0 0.0003095221489832104 -0.007717532373582613 0
          0 0 0 -0.00669725687406469 0.0013082187868575486 0
          0.5547180745254541 -0.32349432203038087 0 1.0376070995457858 -0.2618157765444917 0
          0.09505469389503868 -0.10050672789331735 0 0.3635825124519528 -0.26188524749553177 0
          0.042104130236753766 -0.051974147403600304 0 0.015507387250994653 -0.0228145163016981 0
          -0.008795680957065961 -0.000010164295151125638 0 0.9266800053985579 -0.3131946433988221 0
          0 0 0 0.00024083329871435295 -0.007437826347861615 0
          0.7161697499419096 -0.3330898259568432 0 0.487892792398715 -0.29317461860506594 0
          0 0 0 0.18781378690816913 -0.15287905357280857 0
          0.09183120909188557 -0.08455634504274884 0 0.9357859936493036 -0.089236798325818 0
          0.04756573639019989 -0.04415719030106883 0 -0.004114529217188019 -0.0029217575334144295 0
          0.016673047810373303 -0.01721695173615696 0 0.3211054551867946 -0.22790005992616535 0
          0 0 0 0.9343029605601524 -0.36116735920670323 0
          0.00406774035125826 -0.0016485445937417691 0 0.1705947260694626 -0.14093908832137242 0
          0.09046135162653665 -0.06646718571988425 0 0.558987713637747 -0.3879075807177861 0
          0.02973698065318261 -0.018312422579827837 0 0.30501177970383797 -0.2663898269483836 0
          0 0 0 0.07838425588652041 -0.03779679198727543 0
          0.16542141835540058 -0.1161013951939911 0 0 0 0
          <InformationKey name="L2_NORM_RANGE" location="vtkDataArray" length="2">
            <Value index="0">
              0
            </Value>
            <Value index="1">
              1.419740667
            </Value>
          </InformationKey>
        </DataArray>
        <DataArray type="Float64" Name="Pressure" format="ascii" RangeMin="-8.86925436441145" RangeMax="36.858446895748315">
          36.20453002490085 36.43323323023306 36.6578120072667 36.22518005968301 36.14226152431338 36.609339053120586
          36.04947723916576 35.65157549636971 35.431920669084064 34.75933306038411 36.08602943226865 34.52394396561248
          36.81076660417771 35.33054792801723 34.48749972020817 33.789548536778746 33.631642349850885 34.57907564721631
          36.46991827592009 35.59617920729026 33.441895119345595 34.82572961132397 32.505802139542624 36.858446895748315
          33.57903705018168 32.315588364813934 32.404726293355615 33.981339367993506 31.50545742217871 35.02823758020703
          36.05041108906672 30.92645257452311 36.607626508698615 34.26340483706403 33.11557355687715 31.217072408848036
          30.35672272129766 31.60532786819174 33.56115424283685 35.33152430637808 29.48528644752347 35.77058585282364
          36.80718327081663 34.4851170277377 29.67018662946461 32.15862223045695 30.176347876521536 32.808099655677175
          33.92512255583062 30.75784694905781 34.65604386063029 27.43496236704118 27.804938019537666 28.508372709452676
          33.428596924958136 32.05152361708772 29.333155337739203 34.11772590249322 30.165635008269124 32.76641540128404
          34.90858916813313 27.503996153236177 31.117869562901458 34.248704656357376 25.785007922520506 33.85852965018427