<?xml version="1.0"?>
<VTKFile type="UnstructuredGrid" version="0.1" byte_order="LittleEndian" header_type="UInt32" compressor="vtkZLibDataCompressor">
  <UnstructuredGrid>
    <Piece NumberOfPoints="418" NumberOfCells="757">
      <PointData>
        <DataArray type="Float64" Name="nsi_BC" NumberOfComponents="3" format="ascii" RangeMin="0" RangeMax="1">
          0 0 0 0 0 0
          0 0 0 0 0 0
          0 0 0 1 0 0
          0 0 0 0 0 0
          0 0 0 0 0 0
          0 0 0 0 0 0
          0 0 0 0 0 0
          0 0 0 0 0 0
          0 0 0 0 0 0
          0 0 0 0 0 0
          0 0 0 0 0 0
          0 0 0 0 0 0
          0 0 0 0 0 0
          0 0 0 0 0 0
          0 0 0 0 0 0
          0 0 0 0 0 0
          0 0 0 0 0 0
          0 0 0 0 0 0
          0 0 0 0 0 0
          0 0 0 0 0 0
          0 0 0 0 0 0
          0 0 0 0 0 0
          0 0 0 0 0 0
          0 0 0 0 0 0
          0 0 0 0 0 0
          0 0 0 0 0 0
          0 0 0 0 0 0
          0 0 0 0 0 0
          0 0 0 0 0 0
          0 0 0 0 0 0
          0 0 0 0 0 0
          0 0 0 0 0 0
          0 0 0 0 0 0
          0 0 0 0 0 0
          0 0 0 0 0 0
          0 0 0 0 0 0
          0 0 0 0 0 0
          0 0 0 0 0 0
          0 0 0 0 0 0
          0 0 0 0 0 0
          0 0 0 0 0 0
          0 0 0 0 0 0
          0 0 0 0 0 0
          0 0 0 0 0 0
          0 0 0 0 0 0
          0 0 0 0 0 0
          0 0 0 0 0 0
          0 0 0 0 0 0
          0 0 0 0 0 0
          0 0 0 0 0 0
          0 0 0 0 0 0
          0 0 0 0 0 0
          0 0 0 0 0 0
          0 0 0 0 0 0
          0 0 0 0 0 0
          0 0 0 0 0 0
          0 0 0 0 0 0
          0 0 0 0 0 0
          0 0 0 0 0 0
          0 0 0 0 0 0
          0 0 0 0 0 0
          0 0 0 0 0 0
          0 0 0 0 0 0
          0 0 0 0 0 0
          0 0 0 0 0 0
          0 0 0 0 0 0
          0 0 0 0 0 0
          0 0 0 0 0 0
          0 0 0 0 0 0
          0 0 0 0 0 0
          0 0 0 0 0 0
          0 0 0 0 0 0
          0 0 0 0 0 0
          0 0 0 0 0 0
          0 0 0 0 0 0
          0 0 0 0 0 0
          0 0 0 0 0 0
          0 0 0 0 0 0
          0 0 0 0 0 0
          0 0 0 0 0 0
          0 0 0 0 0 0
          0 0 0 0 0 0
          0 0 0 0 0 0
          0 0 0 0 0 0
          0 0 0 0 0 0
          0 0 0 0 0 0
          0 0 0 0 0 0
          0 0 0 0 0 0
          0 0 0 0 0 0
          0 0 0 0 0 0
          0 0 0 0 0 0
          0 0 0 0 0 0
          0 0 0 0 0 0
          0 0 0 0 0 0
          0 0 0 0 0 0
          0 0 0 0 0 0
          0 0 0 0 0 0
          0 0 0 0 0 0
          0 0 0 0 0 0
          0 0 0 0 0 0
          0 0 0 0 0 0
          0 0 0 0 0 0
          0 0 0 0 0 0
          0 0 0 0 0 0
          0 0 0 0 0 0
          0 0 0 0 0 0
          0 0 0 0 0 0
          0 0 0 0 0 0
          0 0 0 0 0 0
          0 0 0 0 0 0
          0 0 0 0 0 0
          0 0 0 0 0 0
          0 0 0 0 0 0
          0 0 0 0 0 0
          0 0 0 0 0 0
          0 0 0 0 0 0
          0 0 0 0 0 0
          0 0 0 0 0 0
          0 0 0 0 0 0
          0 0 0 0 0 0
          0 0 0 0 0 0
          0 0 0 0 0 0
          0 0 0 0 0 0
          0 0 0 0 0 0
          0 0 0 0 0 0
          0 0 0 0 0 0
          0 0 0 0 0 0
          0 0 0 0 0 0
          0 0 0 0 0 0
          0 0 0 0 0 0
          0 0 0 0 0 0
          0 0 0 0 0 0
          0 0 0 0 0 0
          0 0 0 0 0 0
          0 0 0 0 0 0
          0 0 0 0 0 0
          0 0 0 0 0 0
          0 0 0 0 0 0
          0 0 0 0 0 0
          0 0 0 0 0 0
          0 0 0 0 0 0
          0 0 0 0 0 0
          0 0 0 0 0 0
          0 0 0 0 0 0
          0 0 0 0 0 0
          0 0 0 0 0 0
          0 0 0 0 0 0
          0 0 0 0 0 0
          0 0 0 0 0 0
          0 0 0 0 0 0
          0 0 0 0 0 0
          0 0 0 0 0 0
          0 0 0 0 0 0
          0 0 0 0 0 0
          0 0 0 0 0 0
          0 0 0 0 0 0
          0 0 0 0 0 0
          0 0 0 0 0 0
          0 0 0 0 0 0
          0 0 0 0 0 0
          0 0 0 0 0 0
          0 0 0 0 0 0
          0 0 0 0 0 0
          0 0 0 0 0 0
          0 0 0 0 0 0
          0 0 0 0 0 0
          0 0 0 0 0 0
          0 0 0 0 0 0
          0 0 0 0 0 0
          0 0 0 0 0 0
          0 0 0 0 0 0
          0 0 0 0 0 0
          0 0 0 0 0 0
          0 0 0 0 0 0
          0 0 0 0 0 0
          0 0 0 0 0 0
          0 0 0 0 0 0
          0 0 0 0 0 0
          0 0 0 0 0 0
          0 0 0 0 0 0
          0 0 0 0 0 0
          0 0 0 0 0 0
          0 0 0 0 0 0
          0 0 0 0 0 0
          0 0 0 0 0 0
          0 0 0 0 0 0
          0 0 0 0 0 0
          0 0 0 0 0 0
          0 0 0 0 0 0
          0 0 0 0 0 0
          0 0 0 0 0 0
          0 0 0 0 0 0
          0 0 0 0 0 0
          0 0 0 0 0 0
          0 0 0 0 0 0
          0 0 0 0 0 0
          0 0 0 0 0 0
          0 0 0 0 0 0
          0 0 0 0 0 0
          0 0 0 0 0 0
          0 0 0 0 0 0
          0 0 0 0 0 0
          0 0 0 0 0 0
          0 0 0 0 0 0
          0 0 0 0 0 0
          0 0 0 0 0 0
          0 0 0 0 0 0
          0 0 0 0 0 0
          0 0 0 0 0 0
          <InformationKey name="L2_NORM_RANGE" location="vtkDataArray" length="2">
            <Value index="0">
              0
            </Value>
            <Value index="1">
              1
            </Value>
          </InformationKey>
        </DataArray>
        <DataArray type="Float64" Name="nsi_FIXNO" NumberOfComponents="3" format="ascii" RangeMin="1.4142135623730951" RangeMax="1.4142135623730951">
          1 1 0 -1 -1 0
          -1 -1 0 -1 -1 0
          1 1 0 1 1 0
          -1 -1 0 -1 -1 0
          -1 -1 0 -1 -1 0
          -1 -1 0 -1 -1 0
          -1 -1 0 -1 -1 0
          -1 -1 0 1 1 0
          -1 -1 0 -1 -1 0
          -1 -1 0 -1 -1 0
          -1 -1 0 -1 -1 0
          -1 -1 0 -1 -1 0
          -1 -1 0 -1 -1 0
          -1 -1 0 -1 -1 0
          -1 -1 0 -1 -1 0
          -1 -1 0 -1 -1 0
          1 1 0 -1 -1 0
          -1 -1 0 -1 -1 0
          1 1 0 -1 -1 0
          -1 -1 0 -1 -1 0
          -1 -1 0 -1 -1 0
          1 1 0 -1 -1 0
          -1 -1 0 -1 -1 0
          -1 -1 0 -1 -1 0
          -1 -1 0 -1 -1 0
          -1 -1 0 -1 -1 0
          -1 -1 0 -1 -1 0
          -1 -1 0 -1 -1 0
          -1 -1 0 -1 -1 0
          -1 -1 0 -1 -1 0
          1 1 0 -1 -1 0
          -1 -1 0 -1 -1 0
          -1 -1 0 -1 -1 0
          -1 -1 0 -1 -1 0
          -1 -1 0 1 1 0
          -1 -1 0 -1 -1 0
          -1 -1 0 -1 -1 0
          -1 -1 0 -1 -1 0
          -1 -1 0 -1 -1 0
          -1 -1 0 -1 -1 0
          -1 -1 0 -1 -1 0
          -1 -1 0 -1 -1 0
          -1 -1 0 -1 -1 0
          -1 -1 0 -1 -1 0
          1 1 0 -1 -1 0
          -1 -1 0 -1 -1 0
          -1 -1 0 -1 -1 0
          -1 -1 0 -1 -1 0
          -1 -1 0 -1 -1 0
          -1 -1 0 -1 -1 0
          -1 -1 0 -1 -1 0
          -1 -1 0 -1 -1 0
          -1 -1 0 -1 -1 0
          -1 -1 0 -1 -1 0
          -1 -1 0 -1 -1 0
          -1 -1 0 -1 -1 0
          -1 -1 0 -1 -1 0
          -1 -1 0 -1 -1 0
          -1 -1 0 -1 -1 0
          -1 -1 0 -1 -1 0
          -1 -1 0 1 1 0
          -1 -1 0 -1 -1 0
          -1 -1 0 -1 -1 0
          -1 -1 0 -1 -1 0
          -1 -1 0 -1 -1 0
          -1 -1 0 -1 -1 0
          -1 -1 0 -1 -1 0
          -1 -1 0 -1 -1 0
          -1 -1 0 -1 -1 0
          -1 -1 0 -1 -1 0
          -1 -1 0 -1 -1 0
          -1 -1 0 -1 -1 0
          -1 -1 0 -1 -1 0
          -1 -1 0 -1 -1 0
          1 1 0 -1 -1 0
          -1 -1 0 -1 -1 0
          -1 -1 0 -1 -1 0
          -1 -1 0 -1 -1 0
          -1 -1 0 -1 -1 0
          -1 -1 0 1 1 0
          -1 -1 0 -1 -1 0
          1 1 0 -1 -1 0
          1 1 0 -1 -1 0
          -1 -1 0 -1 -1 0
          -1 -1 0 1 1 0
          -1 -1 0 -1 -1 0
          -1 -1 0 -1 -1 0
          1 1 0 -1 -1 0
          1 1 0 -1 -1 0
          -1 -1 0 -1 -1 0
          -1 -1 0 -1 -1 0
          -1 -1 0 -1 -1 0
          1 1 0 -1 -1 0
          -1 -1 0 1 1 0
          1 1 0 -1 -1 0
          -1 -1 0 -1 -1 0
          -1 -1 0 -1 -1 0
          -1 -1 0 1 1 0
          -1 -1 0 -1 -1 0
          -1 -1 0 -1 -1 0
          -1 -1 0 -1 -1 0
          1 1 0 1 1 0
          -1 -1 0 1 1 0
          -1 -1 0 -1 -1 0
          -1 -1 0 -1 -1 0
          1 1 0 -1 -1 0
          -1 -1 0 -1 -1 0
          -1 -1 0 -1 -1 0
          1 1 0 -1 -1 0
          -1 -1 0 -1 -1 0
          1 1 0 -1 -1 0
          -1 -1 0 1 1 0
          1 1 0 -1 -1 0
          -1 -1 0 -1 -1 0
          -1 -1 0 -1 -1 0
          -1 -1 0 -1 -1 0
          -1 -1 0 1 1 0
          1 1 0 -1 -1 0
          1 1 0 1 1 0
          -1 -1 0 -1 -1 0
          1 1 0 -1 -1 0
          -1 -1 0 -1 -1 0
          -1 -1 0 1 1 0
          -1 -1 0 -1 -1 0
          -1 -1 0 1 1 0
          -1 -1 0 1 1 0
          -1 -1 0 -1 -1 0
          -1 -1 0 -1 -1 0
          -1 -1 0 -1 -1 0
          -1 -1 0 1 1 0
          1 1 0 -1 -1 0
          1 1 0 -1 -1 0
          1 1 0 -1 -1 0
          -1 -1 0 -1 -1 0
          1 1 0 -1 -1 0
          -1 -1 0 -1 -1 0
          -1 -1 0 -1 -1 0
          1 1 0 1 1 0
          -1 -1 0 -1 -1 0
          -1 -1 0 -1 -1 0
          -1 -1 0 -1 -1 0
          1 1 0 -1 -1 0
          -1 -1 0 -1 -1 0
          1 1 0 -1 -1 0
          1 1 0 1 1 0
          -1 -1 0 -1 -1 0
          -1 -1 0 -1 -1 0
          -1 -1 0 1 1 0
          1 1 0 -1 -1 0
          -1 -1 0 -1 -1 0
          -1 -1 0 1 1 0
          -1 -1 0 1 1 0
          -1 -1 0 -1 -1 0
          1 1 0 -1 -1 0
          -1 -1 0 1 1 0
          -1 -1 0 -1 -1 0
          1 1 0 -1 -1 0
          1 1 0 -1 -1 0
          -1 -1 0 1 1 0
          -1 -1 0 -1 -1 0
          -1 -1 0 -1 -1 0
          -1 -1 0 1 1 0
          -1 -1 0 -1 -1 0
          -1 -1 0 -1 -1 0
          -1 -1 0 -1 -1 0
          1 1 0 -1 -1 0
          -1 -1 0 -1 -1 0
          -1 -1 0 -1 -1 0
          -1 -1 0 1 1 0
          -1 -1 0 -1 -1 0
          -1 -1 0 -1 -1 0
          1 1 0 -1 -1 0
          -1 -1 0 -1 -1 0
          -1 -1 0 -1 -1 0
          -1 -1 0 1 1 0
          -1 -1 0 -1 -1 0
          -1 -1 0 -1 -1 0
          -1 -1 0 -1 -1 0
          1 1 0 -1 -1 0
          -1 -1 0 -1 -1 0
          -1 -1 0 -1 -1 0
          -1 -1 0 -1 -1 0
          -1 -1 0 -1 -1 0
          1 1 0 -1 -1 0
          -1 -1 0 -1 -1 0
          -1 -1 0 -1 -1 0
          -1 -1 0 -1 -1 0
          1 1 0 -1 -1 0
          -1 -1 0 -1 -1 0
          -1 -1 0 -1 -1 0
          -1 -1 0 -1 -1 0
          -1 -1 0 -1 -1 0
          1 1 0 -1 -1 0
          -1 -1 0 -1 -1 0
          -1 -1 0 -1 -1 0
          -1 -1 0 -1 -1 0
          -1 -1 0 -1 -1 0
          1 1 0 -1 -1 0
          -1 -1 0 -1 -1 0
          1 1 0 -1 -1 0
          -1 -1 0 -1 -1 0
          -1 -1 0 -1 -1 0
          -1 -1 0 -1 -1 0
          1 1 0 -1 -1 0
          -1 -1 0 -1 -1 0
          -1 -1 0 -1 -1 0
          -1 -1 0 -1 -1 0
          1 1 0 -1 -1 0
          -1 -1 0 1 1 0
          <InformationKey name="L2_NORM_RANGE" location="vtkDataArray" length="2">
            <Value index="0">
              1.4142135624
            </Value>
            <Value index="1">
              1.4142135624
            </Value>
          </InformationKey>
        </DataArray>
        <DataArray type="Float64" Name="Velocity" NumberOfComponents="3" format="ascii" RangeMin="0" RangeMax="1.4149730798898443">
          0 0 0 0.31853798241928477 0.024337158202908004 0
          0.7322425444594476 0.10039487950862863 0 0.5148696020861157 0.03667446525844383 0
          0 0 0 1 0 0
          0.717390042130286 0.026448971013154264 0 0.36954009717264436 0.021677242545968714 0
          0.6437174209441475 0.0380817380900256 0 0.3115592704361895 0.004827898677132035 0
          0.6663711541825771 0.028868919453853434 0 0.56193430866492 0.03272917873025117 0
          0.7022472241265793 -0.09765637877207564 0 0.7198254309520788 0.03334254199590263 0
          0.6860770583793445 0.04744695575120528 0 0 0 0
          0.5050327957924058 0.026586066757236567 0 0.7274756075431795 0.06109085875069448 0
          0.6054152024326879 -0.004520218095530472 0 0.6491903770409228 0.0439023020366159 0
          0.6610176080243314 0.05750952160327728 0 0.687546466640154 0.06446341921573225 0
          0.42333283813333356 0.03636816538654186 0 0.3487332219224441 -0.028468973924227488 0
          0.7341986706280068 0.09919366971681742 0 0.6424939915693606 0.08000815441713922 0
          0.7441042403024433 0.11921067394612955 0 0.7156922216478347 0.10121971029662663 0
          0.32020620708785125 0.012122307096975898 0 0.569664550428879 0.05035194800836052 0
          0.4445544118204042 0.003890207289834104 0 0.6006381141451808 0.09028086458490014 0
          0 0 0 0.6203102671942948 0.08436727416708993 0
          0.7370082294513106 0.15812375446260735 0 0.7586340304520136 0.15525114156971603 0
          0 0 0 0.7803389643145138 0.1914560430188952 0
          0.6536809954760622 0.13963777903318622 0 0.32083084787260263 0.01045437707134455 0
          0.5642212407444619 0.08524864839196065 0 0.2003528400224057 0.005382028277182342 0
          0 0 0 0.4633852914977921 0.05372623346364638 0
          0.765994374685277 0.1832315386576753 0 0.7595146197454147 0.22652066495222714 0
          0.8291968713382879 0.24632165713809448 0 0.680466182550701 0.21036927061703825 0
          0.5149698894498016 0.09800730753486493 0 0.8149637225183727 0.2844202617564844 0
          0.30544150726021674 0.0266200279914294 0 0.4602175635623834 0.024731114780658193 0
          0.7948388467777839 0.15339054584455236 0 0.8783071606101062 0.27586724155503883 0
          0.5541658151726697 0.16826456827953212 0 0.6938449981271319 0.29122287411531383 0
          0.8727125636685349 0.34265445068319206 0 0.3447336710488163 0.04977208168619105 0
          0.8017563574234273 0.37041984765882113 0 0.5905087826528533 0.2545885455062906 0
          0 0 0 0.9501340231335268 0.3638498031306329 0
          0.7084549873801782 0.37252397897590395 0 0.18226117288516325 0.011509898727210201 0
          0.9838548903050213 0.23738030443518143 0 0.3665079896884467 0.0936795372227696 0
          0.4552457257158149 0.19077871061669602 0 0.8760353884022642 0.4233123307184933 0
          0.5928461624587666 0.3322790421908752 0 0 0 0
          0.747250842444582 0.10280221804263132 0 0.46797375059861596 0.2665430130861417 0
          0.7449802441561214 0.46232572300845987 0 1.0546472108798393 0.3585836361994403 0
          0.9666253324465286 0.46218800994175224 0 0.32248408067855877 0.1255991429896507 0
          0.20993224095768825 0.036467067524074775 0 0.5679120968364703 0.4109201804226008 0
          0.8522870097461798 0.5115645626842631 0 1.116845263426654 0.2865183091871893 0
          0.46454341904222357 0.34081584319299046 0 0.7283736234441193 0.5122429838403423 0
          0.3384451258283622 0.18874160786342098 0 0.2399812462675203 0.06439423333485092 0
          1.0348538475248457 0.19341596401234495 0 0.6091302539408794 0.49376419592877024 0
          0.9626861975524873 0.5219521815492055 0 0.34014851151830783 0.2585692871783229 0
          0 0 0 0.8325538568361897 0.08452555390350915 0
          1.1910333818553156 0.38246316486341597 0 0.7911131820130958 0.5625411025873359 0
          0.43865693416092405 0.41933616594697487 0 0.642259755508276 0.5519294632459125 0
          1.2245349540173096 0.2763196838901848 0 0.22859159991301184 0.11904340596840828 0
          0.3122470546458963 0.30525138281254877 0 0.11927017990418842 0.01623252026601592 0
          0.24010566342440262 0.18262421038880558 0 0.47733302070513955 0.011004983107178987 0
          0.9337573172937302 0.5624420956535059 0 0.42236856721459837 0.4765293458352146 0
          1.1486325811311637 0.4718502800236559 0 0.2433509916331759 0.24461820288616673 0
          0.6972796312131844 0.5855321562324903 0 0.27845334965069274 0.3451391853252353 0
          1.168905210154864 0.14236770588440015 0 1.2947647676102199 0.33115802933306754 0
          0.13688138082207824 0.043600499785978804 0 0.5220302037231719 0.556587246220469 0
          0.8064179897413384 0.5700356144683325 0 0.20070761682016564 0.266067072696309 0
          0.3255813741670491 0.4534831066850498 0 1.0820613384031408 0.48501979304212983 0
          0.917855119713544 0.029104667096731287 0 0.13258151861553763 0.07040935914718215 0
          0.5573062982407849 0.5565843678574464 0 0.21653464429517733 0.3459024639835994 0
          1.2711154003866698 0.35799018930693083 0 1.3480771456988287 0.1961190600395717 0
          0.1386762360015813 0.12242272327391683 0 0 0 0
          0.1509318848297604 0.1904464094586623 0 0.3268418768329015 0.47948736827100497 0
          1.356325518920813 0.25977216214704496 0 0.1671570227567171 0.27752172455301816 0
          0.05748791523442252 0.008094085804569485 0 0.6567812289317024 0.5064388019454876 0
          0.15550541906593926 0.3265546510963319 0 0.9884035622955757 0.4233205775635559 0
          0.36408604677895856 0.4547796461525839 0 0.10904987265010249 0.1945086390144205 0
          1.1811028887388135 0.339939293048217 0 0.07603047782759557 0.030467094672883353 0
          0.10057619587891174 0.12755777843914806 0 1.2501621470892526 0.059946494164384544 0
          1.3158789554616608 0.2561367296985627 0 0.16270569089162218 0.3419805233444044 0
          0.08349601782499728 0.18904738596546516 0 1.402718440262164 0.15677200095865415 0
          0.4293347231610779 0.3578139600172539 0 0.0838888735694733 0.09314924229699097 0
          0.07391228345664887 0.23950992278988295 0 0.06843908093831452 0.04297366649683111 0
          0.7665869675813033 0.30821033256124963 0 0.07672350202597526 0.12609383436479688 0
          0.06775949582012501 0.20445426799646146 0 0.07088096175248154 0.20608976078900001 0
          0 0 0 0.08467391814090354 0.21610613640043194 0
          0.9965302763570452 0.2547873092614949 0 1.4001120780029777 0.08354248131404407 0
          1.1958358698487634 0.21241477734630815 0 0.04104378027077284 0.15401857290183224 0
          0.05713200472011152 0.05551440183742828 0 0.046450471989059834 0.11778131937477039 0
          0.9257029915127843 0.007875515991546391 0 0.032123944526067344 0.13579223751095254 0
          0.021622767621012288 0.12045302677253808 0 0 0 0
          0.052982833588699575 0.08316572854530042 0 0.4024672324333472 0.0707782962259281 0
          0 0 0 0.7078950407598957 0.11326720848395089 0
          0 0 0 0.01752304025805393 0.09111962971300873 0
          0.028933579218629348 0.10531164097437358 0 0.037330702772112374 0.013383863211045989 0
          1.329936737010932 0.07355852571158644 0 0 0 0
          0.011047095171891369 0.06738803569251106 0 0.04001838504677298 0.05378908425323487 0
          0.929207462679046 0.07730513979324426 0 0.03161458963194399 0.07273340822860479 0
          0 0 0 0.01839610737409652 0.07457455613550634 0
          0 0 0 1.4148811736676201 0.01612703363578847 0
          0.3550793588252095 0.02813699761455607 0 0.006596346136066536 0.054158356128431756 0
          1.1313719496808223 0.03268908590892042 0 0.017750708658208644 0.06499211916981909 0
          0.6751043641513729 0.04067897748884112 0 0.0302563469149702 0.021547619885815675 0
          0 0 0 0.006779251350668292 0.041970706342427826 0
          1.406699575789419 -0.020898409608948756 0 0 0 0
          0 0 0 0.01325744676052355 0.04491065218677472 0
          0.023589858405203844 0.02487853438032326 0 0.004775610302691475 0.03344987555484085 0
          0.018160237725717527 0.038375052027646635 0 0.33599048452689056 0.000435752107814636 0
          0.012263720358664866 0.03806458509729418 0 0 0 0
          1.2550100521366685 -0.04100965049384766 0 0.6599777430843047 -0.021043242704426358 0
          0.941391238197655 -0.0511501785172103 0 0.004303929879879011 0.0255464534453709 0
          1.1538129647075965 -0.08744972822167883 0 0.016287501262293575 0.0055603253299802684 0
          0 0 0 0 0 0
          0.013832371012159766 0.02199863008979166 0 0 0 0
          1.3146480208022902 -0.1059873164481074 0 0.0078386209724318 0.0246778558856299 0
          0.00359746048976324 0.01924794492125512 0 0.3415436835417922 -0.02573028677209737 0
          0 0 0 1.3933439949092485 -0.1149157782866925 0
          0.007435840152034093 0.01891439258523814 0 0.6735575306812305 -0.11849798546177046 0
          0.010936876845528425 0.009432844025020981 0 0.002811190743215388 0.013689925594487656 0
          0 0 0 0.9256417673630085 -0.16166037941508704 0
          0.0046346551637164324 0.014332317556170395 0 1.3756776528449333 -0.11500565260477434 0
          0 0 0 0.0024360995259587325 0.009806497794885634 0
          1.1290513772357493 -0.1869204593733986 0 0 0 0
          0 0 0 0.3888796006156708 -0.16599053516100104 0
          0.005854701627403715 0.007475160067601229 0 0.0045652086352581805 0.009219242798688212 0
          0.9462237966836009 -0.0448575515037854 0 0.0014290383999742916 0.006361373375769803 0
          1.280077935435827 -0.1948539942673705 0 1.2125939366405545 -0.08898042024828072 0
          0.005809334016979278 0.0019493896235322362 0 0 0 0
          0 0 0 0.6681651086879458 -0.22910760435174263 0
          0 0 0 0 0 0
          0.0008444450780877151 0.004344502879037894 0 0.04564408925266228 -0.07150343793896433 0
          0 0 0 0.0025425910725518784 0.005052951787889416 0
          1.3574482583944005 -0.1953307456213173 0 0.8974815513074766 -0.2600287485163981 0
          0.0032013902885136194 0.0024310091260838205 0 0 0 0
          0.02570885230437243 -0.031009547595555794 0 0.000984119215373091 0.002450102714711932 0
          0.002145562228186994 0.00298673057948856 0 0 0 0
          0.014754155414407945 -0.006065476388310618 0 0 0 0
          0.307596414115295 -0.20270496019583095 0 1.3251447957408207 -0.16999326725330585 0
          0.0009490329586943741 0.0016635766814951712 0 1.0563481577101228 -0.29074466440010815 0
          0.006162406496305302 0.010828390421641897 0 0.0017915202371234606 0.00042181426359291167 0
          0.0007236562886288354 0.001315835341005511 0 0 0 0
          0 0 0 0.1008611105914981 -0.10218173030522595 0
          0 0 0 0.002074273887280004 0.016273885605900887 0
          0 0 0 1.2267303056490269 -0.28159335125388785 0
          0.06355576865318609 -0.053504840931762616 0 0.0009396311873406392 0.0006650736598318183 0
          0 0 0 0.00032367229989608545 0.0004179513026930641 0
          0.25647440964013274 -0.007536585090953522 0 0.536081220745716 -0.27356413160109805 0
          0.0011973277153643595 0.019414191355741513 0 1.1660350378496238 -0.13880765736506295 0
          0 0 0 0 0 0
          0.0009365228718262095 0.02051516715135545 0 0.00017860164175690697 0.00011366257563365136 0
          0.2882802403832331 -0.20311825488328955 0 0.01653575804901083 0.0004799074429308068 0
          0.05142240522927164 -0.03265943732332049 0 0.7695295235475174 -0.31631839364557196 0
          0 0 0 1.2926895782924528 -0.2533404067183888 0
          0.13765861652613387 -0.11201471689194574 0 -0.000003814389873162194 0.021496120668132314 0
          0 0 0 0.010000474795994757 0.014988496610760349 0
          0 0 0 0 0 0
          0.004237566637110365 0.023815576184359633 0 0.0000945735951960974 -0.00015500414535070788 0
          -0.0006392435068406302 0.020884880406164423 0 0.0036946675507756343 0.02838635103038681 0
          0.7976304359352181 -0.08983548851960192 0 0 0 0
          0 0 0 0.47787003515264176 -0.27287960079337104 0
          -0.000553512450624181 0.020028695676287362 0 0.9387106470239055 -0.3326927899546528 0
          1.2504170960365266 -0.22113716661771562 0 0 0 0
          0.03345470090424402 -0.00674641531431648 0 0 0 0
          0.3044164781851035 -0.20618741593778198 0 -0.00032127568792951754 0.03286172624043756 0
          0 0 0 -0.0009010197125378197 0.01863085777728009 0
          0.012369168771609108 0.025501409418884142 0 0 0 0
          -0.0008679957470008984 0.03370679219006295 0 0.15691693728921247 -0.11047273086270895 0
          0 0 0 -0.0012072877025173763 0.016900506430645466 0
          0 0 0 -0.0020536273343327183 0.030309556208604947 0
          0.6568513615302475 -0.3158929221589628 0 0 0 0
          -0.0014809372833069117 0.0144398204830554 0 -0.002751452488563874 0.028228905529840465 0
          1.096775190068123 -0.15990426814370895 0 0.46577218022431555 -0.2654214578306397 0
          0.002790067380151118 0.03584360258402398 0 0 0 0
          -0.0016742465840241239 0.011800477284460547 0 1.2166747164251461 -0.2966478759419259 0
          0.04982078651206184 -0.013155127466763176 0 -0.004934408762543555 0.027106466666843274 0
          1.0438858495967753 -0.35382229261975695 0 0.29748671384537834 -0.1914960651990927 0
          0 0 0 -0.0014494012092202515 0.009292304103550478 0
          -0.004573709439424477 0.03733081587039818 0 0.13391381822053133 -0.08564475412695631 0
          -0.005417666844182717 0.022922502519795163 0 0.027291877986300155 0.009884894254419645 0
          0.8177391577189848 -0.3469234780034358 0 0 0 0
          -0.0013815752005885956 0.006782555018116307 0 -0.00478142219757346 0.017488642075453722 0
          0.6250674210665178 -0.30339124711752596 0 0.716336000050187 -0.08072831446483412 0
          0 0 0 -0.001354234978242155 0.004456715420378655 0
          -0.010929179124676752 0.030097030511272306 0 -0.005145117699081752 0.014298582023694854 0
          0.0033247708817000596 0.029435435409809682 0 0.4516638167745884 -0.24725751331481513 0
          0.07207116300861088 -0.038471947031079944 0 0 0 0
          -0.0011573112260144362 0.0023466388164190694 0 1.113110324786238 -0.34486719963448464 0
          -0.0048171471312417405 0.010159008206042746 0 -0.011245166065984314 0.022916297355173556 0
          0.2953883066459726 -0.1793341412193493 0 1.1618553664523412 -0.2896281078142646 0
          0 0 0 0.9584705976479908 -0.3500042740514652 0
          -0.004373863066189868 0.006646955704148139 0 -0.00046818213853680446 0.0005817984719661586 0
          0.0405930445038668 -0.006286174240778537 0 -0.010738676380622493 0.015619845662711424 0
          0.15080490765467308 -0.09763558253724361 0 -0.003180586532943132 0.0034575660147606346 0
          0.6737155976181384 -0.3054623678910209 0 -0.013476082363082682 0.023235415398723862 0
          0 0 0 1.0253991968164575 -0.20281662664901268 0
          0.3237287617100472 -0.017527831583540387 0 -0.008235533939162008 0.0073312333325757165 0
          -0.019368138684649736 0.02072830785082842 0 -0.01716460717170202 0.017019604712745863 0
          0.09726204961422057 -0.0567021414404478 0 0.4243398281262859 -0.2344208841646806 0
          0 0 0 -0.0037081150873614025 0.0017006388852581409 0
          1.051417812161818 -0.3128268338972788 0 -0.0027059687751326395 -0.005149075542401037 0
          -0.016202776547591797 0.009234343893831756 0 -0.02090791438892993 0.008752692196078627 0
          0.8267668454482793 -0.31497840351265205 0 0.19578769353382977 -0.12975165515395046 0
          0.5653247059461337 -0.07268404570443135 0 -0.023979108853795547 0.010690947397474442 0
          0 0 0 -0.00950995736118893 0.0026561213345276348 0
          0.5637043197327813 -0.273521104827136 0 1.1029456824304955 -0.26070765940894175 0
          0.04100495400845916 -0.05029885040353302 0 0.34014247795247704 -0.20558649243520635 0
          -0.008917108253280518 -0.015614747003751499 0 -0.023359604353492804 -0.0011490827325285236 0
          -0.01675690973339685 0.0022621936154449095 0 0.9865608794688082 -0.30457995182265907 0
          0 0 0 -0.022808692565767105 0.00320678126766193 0
          0.7487454111917112 -0.320605746064428 0 0.48216380762141986 -0.2691497436969573 0
          0 0 0 0.12355152615111681 -0.1154790829997569 0
          0.023953070684417738 -0.05413063525164151 0 0.9891793261440786 -0.09099945800295035 0
          -0.00908502865270572 -0.024399715231452745 0 -0.016572345127039888 0.0011172339862692302 0
          -0.01885762708754467 -0.0068570475706552295 0 0.2688074019565153 -0.20822879784481038 0
          0 0 0 1.0042686194310677 -0.37245848722844116 0
          -0.013751666319767824 -0.000029608399926508622 0 0.09024002712943431 -0.12541048615719178 0
          0.019409924780779284 -0.054983875623812885 0 0.5607320322973515 -0.4097948838721543 0
          -0.0025517003798163945 -0.01631673789723386 0 0.2329841662656588 -0.27876808315479507 0
          0 0 0 0.023125874441702627 -0.03525437210978022 0
          0.08630185525900012 -0.1079833702323538 0 0 0 0
          <InformationKey name="L2_NORM_RANGE" location="vtkDataArray" length="2">
            <Value index="0">
              0
            </Value>
            <Value index="1">
              1.4149730799
            </Value>
          </InformationKey>
        </DataArray>
        <DataArray type="Float64" Name="Pressure" format="ascii" RangeMin="-8.299267956890365" RangeMax="36.936983098691826">
          36.276899770100805 36.434909517748856 36.76132736888274 36.21165306569546 36.02903423060882 36.80292486292124
          36.07435510914279 35.52233192315662 35.38265485399135 34.618629189455994 36.1253839046911 34.40570668136532
          36.936983098691826 35.33354685229525 34.416090396931615 33.61617416592048 33.465000200697254 34.527346784957125
          36.51153939857741 35.56762526732568 33.33061163089872 34.784586148178946 32.40211723148249 36.90194696965141
          33.52845956400495 32.23791268134042 32.35632227318372 33.95451513879909 31.476855710470836 34.95271588159615
          35.927161720654716 30.922175391399154 36.72221583980754 34.22343734513418 33.12241297363258 31.204383960990217
          30.39678253047357 31.618664103788717 33.5743969685653 35.20900271490894 29.548110223554087 35.61958102624988
          36.74273233175691 34.38875006573484 29.7106681163159 32.188599778244445 30.20271612261906 32.85689434519988
          33.8985283323248 30.82734966746706 34.50312858607927 27.59673673019242 27.923664041165107 28.569807852898805
          33.45577628597535 32.133393022441794 29.409265008818316 34.025274638793334 30.288451920351992 32.84219812999447
          34.733109527724956 27.58383861978336 31.240076650941383 34.112270892795266 25.915891582181835 33.8000512899134