<?xml version="1.0"?>
<VTKFile type="UnstructuredGrid" version="0.1" byte_order="LittleEndian" header_type="UInt32" compressor="vtkZLibDataCompressor">
  <UnstructuredGrid>
    <Piece NumberOfPoints="418" NumberOfCells="757">
      <PointData>
        <DataArray type="Float64" Name="nsi_BC" NumberOfComponents="3" format="ascii" RangeMin="0" RangeMax="1">
          0 0 0 0 0 0
          0 0 0 0 0 0
          0 0 0 1 0 0
          0 0 0 0 0 0
          0 0 0 0 0 0
          0 0 0 0 0 0
          0 0 0 0 0 0
          0 0 0 0 0 0
          0 0 0 0 0 0
          0 0 0 0 0 0
          0 0 0 0 0 0
          0 0 0 0 0 0
          0 0 0 0 0 0
          0 0 0 0 0 0
          0 0 0 0 0 0
          0 0 0 0 0 0
          0 0 0 0 0 0
          0 0 0 0 0 0
          0 0 0 0 0 0
          0 0 0 0 0 0
          0 0 0 0 0 0
          0 0 0 0 0 0
          0 0 0 0 0 0
          0 0 0 0 0 0
          0 0 0 0 0 0
          0 0 0 0 0 0
          0 0 0 0 0 0
          0 0 0 0 0 0
          0 0 0 0 0 0
          0 0 0 0 0 0
          0 0 0 0 0 0
          0 0 0 0 0 0
          0 0 0 0 0 0
          0 0 0 0 0 0
          0 0 0 0 0 0
          0 0 0 0 0 0
          0 0 0 0 0 0
          0 0 0 0 0 0
          0 0 0 0 0 0
          0 0 0 0 0 0
          0 0 0 0 0 0
          0 0 0 0 0 0
          0 0 0 0 0 0
          0 0 0 0 0 0
          0 0 0 0 0 0
          0 0 0 0 0 0
          0 0 0 0 0 0
          0 0 0 0 0 0
          0 0 0 0 0 0
          0 0 0 0 0 0
          0 0 0 0 0 0
          0 0 0 0 0 0
          0 0 0 0 0 0
          0 0 0 0 0 0
          0 0 0 0 0 0
          0 0 0 0 0 0
          0 0 0 0 0 0
          0 0 0 0 0 0
          0 0 0 0 0 0
          0 0 0 0 0 0
          0 0 0 0 0 0
          0 0 0 0 0 0
          0 0 0 0 0 0
          0 0 0 0 0 0
          0 0 0 0 0 0
          0 0 0 0 0 0
          0 0 0 0 0 0
          0 0 0 0 0 0
          0 0 0 0 0 0
          0 0 0 0 0 0
          0 0 0 0 0 0
          0 0 0 0 0 0
          0 0 0 0 0 0
          0 0 0 0 0 0
          0 0 0 0 0 0
          0 0 0 0 0 0
          0 0 0 0 0 0
          0 0 0 0 0 0
          0 0 0 0 0 0
          0 0 0 0 0 0
          0 0 0 0 0 0
          0 0 0 0 0 0
          0 0 0 0 0 0
          0 0 0 0 0 0
          0 0 0 0 0 0
          0 0 0 0 0 0
          0 0 0 0 0 0
          0 0 0 0 0 0
          0 0 0 0 0 0
          0 0 0 0 0 0
          0 0 0 0 0 0
          0 0 0 0 0 0
          0 0 0 0 0 0
          0 0 0 0 0 0
          0 0 0 0 0 0
          0 0 0 0 0 0
          0 0 0 0 0 0
          0 0 0 0 0 0
          0 0 0 0 0 0
          0 0 0 0 0 0
          0 0 0 0 0 0
          0 0 0 0 0 0
          0 0 0 0 0 0
          0 0 0 0 0 0
          0 0 0 0 0 0
          0 0 0 0 0 0
          0 0 0 0 0 0
          0 0 0 0 0 0
          0 0 0 0 0 0
          0 0 0 0 0 0
          0 0 0 0 0 0
          0 0 0 0 0 0
          0 0 0 0 0 0
          0 0 0 0 0 0
          0 0 0 0 0 0
          0 0 0 0 0 0
          0 0 0 0 0 0
          0 0 0 0 0 0
          0 0 0 0 0 0
          0 0 0 0 0 0
          0 0 0 0 0 0
          0 0 0 0 0 0
          0 0 0 0 0 0
          0 0 0 0 0 0
          0 0 0 0 0 0
          0 0 0 0 0 0
          0 0 0 0 0 0
          0 0 0 0 0 0
          0 0 0 0 0 0
          0 0 0 0 0 0
          0 0 0 0 0 0
          0 0 0 0 0 0
          0 0 0 0 0 0
          0 0 0 0 0 0
          0 0 0 0 0 0
          0 0 0 0 0 0
          0 0 0 0 0 0
          0 0 0 0 0 0
          0 0 0 0 0 0
          0 0 0 0 0 0
          0 0 0 0 0 0
          0 0 0 0 0 0
          0 0 0 0 0 0
          0 0 0 0 0 0
          0 0 0 0 0 0
          0 0 0 0 0 0
          0 0 0 0 0 0
          0 0 0 0 0 0
          0 0 0 0 0 0
          0 0 0 0 0 0
          0 0 0 0 0 0
          0 0 0 0 0 0
          0 0 0 0 0 0
          0 0 0 0 0 0
          0 0 0 0 0 0
          0 0 0 0 0 0
          0 0 0 0 0 0
          0 0 0 0 0 0
          0 0 0 0 0 0
          0 0 0 0 0 0
          0 0 0 0 0 0
          0 0 0 0 0 0
          0 0 0 0 0 0
          0 0 0 0 0 0
          0 0 0 0 0 0
          0 0 0 0 0 0
          0 0 0 0 0 0
          0 0 0 0 0 0
          0 0 0 0 0 0
          0 0 0 0 0 0
          0 0 0 0 0 0
          0 0 0 0 0 0
          0 0 0 0 0 0
          0 0 0 0 0 0
          0 0 0 0 0 0
          0 0 0 0 0 0
          0 0 0 0 0 0
          0 0 0 0 0 0
          0 0 0 0 0 0
          0 0 0 0 0 0
          0 0 0 0 0 0
          0 0 0 0 0 0
          0 0 0 0 0 0
          0 0 0 0 0 0
          0 0 0 0 0 0
          0 0 0 0 0 0
          0 0 0 0 0 0
          0 0 0 0 0 0
          0 0 0 0 0 0
          0 0 0 0 0 0
          0 0 0 0 0 0
          0 0 0 0 0 0
          0 0 0 0 0 0
          0 0 0 0 0 0
          0 0 0 0 0 0
          0 0 0 0 0 0
          0 0 0 0 0 0
          0 0 0 0 0 0
          0 0 0 0 0 0
          0 0 0 0 0 0
          0 0 0 0 0 0
          0 0 0 0 0 0
          0 0 0 0 0 0
          0 0 0 0 0 0
          0 0 0 0 0 0
          0 0 0 0 0 0
          0 0 0 0 0 0
          0 0 0 0 0 0
          0 0 0 0 0 0
          <InformationKey name="L2_NORM_RANGE" location="vtkDataArray" length="2">
            <Value index="0">
              0
            </Value>
            <Value index="1">
              1
            </Value>
          </InformationKey>
        </DataArray>
        <DataArray type="Float64" Name="nsi_FIXNO" NumberOfComponents="3" format="ascii" RangeMin="1.4142135623730951" RangeMax="1.4142135623730951">
          1 1 0 -1 -1 0
          -1 -1 0 -1 -1 0
          1 1 0 1 1 0
          -1 -1 0 -1 -1 0
          -1 -1 0 -1 -1 0
          -1 -1 0 -1 -1 0
          -1 -1 0 -1 -1 0
          -1 -1 0 1 1 0
          -1 -1 0 -1 -1 0
          -1 -1 0 -1 -1 0
          -1 -1 0 -1 -1 0
          -1 -1 0 -1 -1 0
          -1 -1 0 -1 -1 0
          -1 -1 0 -1 -1 0
          -1 -1 0 -1 -1 0
          -1 -1 0 -1 -1 0
          1 1 0 -1 -1 0
          -1 -1 0 -1 -1 0
          1 1 0 -1 -1 0
          -1 -1 0 -1 -1 0
          -1 -1 0 -1 -1 0
          1 1 0 -1 -1 0
          -1 -1 0 -1 -1 0
          -1 -1 0 -1 -1 0
          -1 -1 0 -1 -1 0
          -1 -1 0 -1 -1 0
          -1 -1 0 -1 -1 0
          -1 -1 0 -1 -1 0
          -1 -1 0 -1 -1 0
          -1 -1 0 -1 -1 0
          1 1 0 -1 -1 0
          -1 -1 0 -1 -1 0
          -1 -1 0 -1 -1 0
          -1 -1 0 -1 -1 0
          -1 -1 0 1 1 0
          -1 -1 0 -1 -1 0
          -1 -1 0 -1 -1 0
          -1 -1 0 -1 -1 0
          -1 -1 0 -1 -1 0
          -1 -1 0 -1 -1 0
          -1 -1 0 -1 -1 0
          -1 -1 0 -1 -1 0
          -1 -1 0 -1 -1 0
          -1 -1 0 -1 -1 0
          1 1 0 -1 -1 0
          -1 -1 0 -1 -1 0
          -1 -1 0 -1 -1 0
          -1 -1 0 -1 -1 0
          -1 -1 0 -1 -1 0
          -1 -1 0 -1 -1 0
          -1 -1 0 -1 -1 0
          -1 -1 0 -1 -1 0
          -1 -1 0 -1 -1 0
          -1 -1 0 -1 -1 0
          -1 -1 0 -1 -1 0
          -1 -1 0 -1 -1 0
          -1 -1 0 -1 -1 0
          -1 -1 0 -1 -1 0
          -1 -1 0 -1 -1 0
          -1 -1 0 -1 -1 0
          -1 -1 0 1 1 0
          -1 -1 0 -1 -1 0
          -1 -1 0 -1 -1 0
          -1 -1 0 -1 -1 0
          -1 -1 0 -1 -1 0
          -1 -1 0 -1 -1 0
          -1 -1 0 -1 -1 0
          -1 -1 0 -1 -1 0
          -1 -1 0 -1 -1 0
          -1 -1 0 -1 -1 0
          -1 -1 0 -1 -1 0
          -1 -1 0 -1 -1 0
          -1 -1 0 -1 -1 0
          -1 -1 0 -1 -1 0
          1 1 0 -1 -1 0
          -1 -1 0 -1 -1 0
          -1 -1 0 -1 -1 0
          -1 -1 0 -1 -1 0
          -1 -1 0 -1 -1 0
          -1 -1 0 1 1 0
          -1 -1 0 -1 -1 0
          1 1 0 -1 -1 0
          1 1 0 -1 -1 0
          -1 -1 0 -1 -1 0
          -1 -1 0 1 1 0
          -1 -1 0 -1 -1 0
          -1 -1 0 -1 -1 0
          1 1 0 -1 -1 0
          1 1 0 -1 -1 0
          -1 -1 0 -1 -1 0
          -1 -1 0 -1 -1 0
          -1 -1 0 -1 -1 0
          1 1 0 -1 -1 0
          -1 -1 0 1 1 0
          1 1 0 -1 -1 0
          -1 -1 0 -1 -1 0
          -1 -1 0 -1 -1 0
          -1 -1 0 1 1 0
          -1 -1 0 -1 -1 0
          -1 -1 0 -1 -1 0
          -1 -1 0 -1 -1 0
          1 1 0 1 1 0
          -1 -1 0 1 1 0
          -1 -1 0 -1 -1 0
          -1 -1 0 -1 -1 0
          1 1 0 -1 -1 0
          -1 -1 0 -1 -1 0
          -1 -1 0 -1 -1 0
          1 1 0 -1 -1 0
          -1 -1 0 -1 -1 0
          1 1 0 -1 -1 0
          -1 -1 0 1 1 0
          1 1 0 -1 -1 0
          -1 -1 0 -1 -1 0
          -1 -1 0 -1 -1 0
          -1 -1 0 -1 -1 0
          -1 -1 0 1 1 0
          1 1 0 -1 -1 0
          1 1 0 1 1 0
          -1 -1 0 -1 -1 0
          1 1 0 -1 -1 0
          -1 -1 0 -1 -1 0
          -1 -1 0 1 1 0
          -1 -1 0 -1 -1 0
          -1 -1 0 1 1 0
          -1 -1 0 1 1 0
          -1 -1 0 -1 -1 0
          -1 -1 0 -1 -1 0
          -1 -1 0 -1 -1 0
          -1 -1 0 1 1 0
          1 1 0 -1 -1 0
          1 1 0 -1 -1 0
          1 1 0 -1 -1 0
          -1 -1 0 -1 -1 0
          1 1 0 -1 -1 0
          -1 -1 0 -1 -1 0
          -1 -1 0 -1 -1 0
          1 1 0 1 1 0
          -1 -1 0 -1 -1 0
          -1 -1 0 -1 -1 0
          -1 -1 0 -1 -1 0
          1 1 0 -1 -1 0
          -1 -1 0 -1 -1 0
          1 1 0 -1 -1 0
          1 1 0 1 1 0
          -1 -1 0 -1 -1 0
          -1 -1 0 -1 -1 0
          -1 -1 0 1 1 0
          1 1 0 -1 -1 0
          -1 -1 0 -1 -1 0
          -1 -1 0 1 1 0
          -1 -1 0 1 1 0
          -1 -1 0 -1 -1 0
          1 1 0 -1 -1 0
          -1 -1 0 1 1 0
          -1 -1 0 -1 -1 0
          1 1 0 -1 -1 0
          1 1 0 -1 -1 0
          -1 -1 0 1 1 0
          -1 -1 0 -1 -1 0
          -1 -1 0 -1 -1 0
          -1 -1 0 1 1 0
          -1 -1 0 -1 -1 0
          -1 -1 0 -1 -1 0
          -1 -1 0 -1 -1 0
          1 1 0 -1 -1 0
          -1 -1 0 -1 -1 0
          -1 -1 0 -1 -1 0
          -1 -1 0 1 1 0
          -1 -1 0 -1 -1 0
          -1 -1 0 -1 -1 0
          1 1 0 -1 -1 0
          -1 -1 0 -1 -1 0
          -1 -1 0 -1 -1 0
          -1 -1 0 1 1 0
          -1 -1 0 -1 -1 0
          -1 -1 0 -1 -1 0
          -1 -1 0 -1 -1 0
          1 1 0 -1 -1 0
          -1 -1 0 -1 -1 0
          -1 -1 0 -1 -1 0
          -1 -1 0 -1 -1 0
          -1 -1 0 -1 -1 0
          1 1 0 -1 -1 0
          -1 -1 0 -1 -1 0
          -1 -1 0 -1 -1 0
          -1 -1 0 -1 -1 0
          1 1 0 -1 -1 0
          -1 -1 0 -1 -1 0
          -1 -1 0 -1 -1 0
          -1 -1 0 -1 -1 0
          -1 -1 0 -1 -1 0
          1 1 0 -1 -1 0
          -1 -1 0 -1 -1 0
          -1 -1 0 -1 -1 0
          -1 -1 0 -1 -1 0
          -1 -1 0 -1 -1 0
          1 1 0 -1 -1 0
          -1 -1 0 -1 -1 0
          1 1 0 -1 -1 0
          -1 -1 0 -1 -1 0
          -1 -1 0 -1 -1 0
          -1 -1 0 -1 -1 0
          1 1 0 -1 -1 0
          -1 -1 0 -1 -1 0
          -1 -1 0 -1 -1 0
          -1 -1 0 -1 -1 0
          1 1 0 -1 -1 0
          -1 -1 0 1 1 0
          <InformationKey name="L2_NORM_RANGE" location="vtkDataArray" length="2">
            <Value index="0">
              1.4142135624
            </Value>
            <Value index="1">
              1.4142135624
            </Value>
          </InformationKey>
        </DataArray>
        <DataArray type="Float64" Name="Velocity" NumberOfComponents="3" format="ascii" RangeMin="0" RangeMax="1.4149921690200813">
          0 0 0 0.31853268728731005 0.024337312488419173 0
          0.7322377589969952 0.10039412717978911 0 0.5148740441158792 0.036695300094429895 0
          0 0 0 1 0 0
          0.7173924509038155 0.026509483986495764 0 0.3695831200648843 0.02172739013704861 0
          0.6437754527835842 0.03820570751210007 0 0.3116543770828632 0.004855284347114005 0
          0.6663679151444208 0.028915751233354277 0 0.5620946900875452 0.032873793046796225 0
          0.7022493561546697 -0.09766227458700871 0 0.7198262916365814 0.03353159619972472 0
          0.6861820372818878 0.04769571686757711 0 0 0 0
          0.5053142729349424 0.02671083185426055 0 0.7274986929379755 0.061379523236586055 0
          0.6054091202618311 -0.004497038805271671 0 0.6491313962717231 0.04402965360449409 0
          0.6612928154134916 0.05774238681585084 0 0.6874583603391117 0.06474445029975297 0
          0.4236379307934224 0.03644392237295447 0 0.3487394246124848 -0.028470935299128867 0
          0.7343290338094387 0.09954188402478749 0 0.6429016746976335 0.0801665565703924 0
          0.7444518227067074 0.11945493956864658 0 0.7156306560092286 0.10158980314192928 0
          0.32047522414331925 0.012137375848333912 0 0.5695256677789208 0.050564596263155404 0
          0.4445201526976737 0.0039449757678909755 0 0.6010969875374982 0.0903372228039875 0
          0 0 0 0.6200989841722937 0.08468510549873325 0
          0.7370301705805777 0.15846899724177238 0 0.7591044993618561 0.15536808208422415 0
          0 0 0 0.7806848879456075 0.1916160189949783 0
          0.6534785550215707 0.1399679745234396 0 0.3207324759904603 0.010509342600466579 0
          0.5646461885296807 0.08523516088859057 0 0.20031810682962609 0.005391719465402775 0
          0 0 0 0.46312234232817834 0.05392293119526658 0
          0.7665111282244645 0.18321208700454145 0 0.7596419200950202 0.22669853543619847 0
          0.8296411162323638 0.24630230414341645 0 0.680348477105286 0.2105684246770632 0
          0.5146028301312937 0.09825225897785411 0 0.8152706007799723 0.2844077137959572 0
          0.3052285794028317 0.02671467812650204 0 0.46048294465436673 0.02470861357897373 0
          0.7953051356947823 0.1532783348294849 0 0.8787804822115356 0.2756983548181824 0
          0.5538087103732919 0.1684387208546729 0 0.6937994809612885 0.29119183207591426 0
          0.8730788964852884 0.3424465385542686 0 0.34435758346821665 0.04988491772290829 0
          0.8019799777715291 0.3701866869812691 0 0.5902624112720394 0.25457604777201637 0
          0 0 0 0.9505102749994742 0.3635206143752796 0
          0.7084616101211973 0.3722482338907194 0 0.18205120153530402 0.011540649955253954 0
          0.9842464214312697 0.237132374934792 0 0.3660129327763175 0.09377323407700389 0
          0.45480581389360225 0.1907568095134653 0 0.8762874619990285 0.4229131657170808 0
          0.5926843378616438 0.3320198112022525 0 0 0 0
          0.7474661639453922 0.10267576942387895 0 0.46762561260941404 0.26632537320455396 0
          0.7450546613938637 0.46185362294939375 0 1.0549629448274063 0.35820914519700897 0
          0.9668750878165231 0.4617067626102966 0 0.3219847250894706 0.12554591580468594 0
          0.209569369559064 0.03650335030288051 0 0.5677865172139644 0.4104413744907631 0
          0.8524238325396208 0.5110114707730863 0 1.1171185889276931 0.2862001248161498 0
          0.46429317485396654 0.3403875947562565 0 0.7284129479418429 0.5116537422991686 0
          0.33798452380450095 0.18854073571279673 0 0.23951105316638485 0.0643897902597457 0
          1.035078782697842 0.19320466534268824 0 0.6090826574109559 0.49314857777946314 0
          0.9628100047353327 0.5213864177440591 0 0.33978301080253165 0.2581918558355154 0
          0 0 0 0.8326660864620646 0.08443739299535985 0
          1.1912158435702984 0.3820549426018966 0 0.7911534452345962 0.5619070994133512 0
          0.4385022106114165 0.4187237643109163 0 0.6422339390476524 0.551265216663655 0
          1.224699419827175 0.27602780906996033 0 0.22813425730063758 0.11887426338736867 0
          0.3119704923604263 0.3047290781096666 0 0.11897387093304487 0.01622713563066386 0
          0.23970055570838672 0.18229386369946954 0 0.4773407472270298 0.010989362819088895 0
          0.9337760523762888 0.5618650557601538 0 0.42226566931199966 0.4758549794231946 0
          1.1487064280479222 0.47138707450814127 0 0.2430356752265433 0.24414287687472505 0
          0.6972483731376627 0.5848902755898304 0 0.2782655062002999 0.34452830050510724 0
          1.1690032790755975 0.1422235141315262 0 1.2948610293228646 0.33083992177750776 0
          0.13650260326610747 0.0435354164626331 0 0.5219719153153778 0.5559274430441944 0
          0.8063701059805535 0.569491928832565 0 0.20048587623349676 0.2655174472241414 0
          0.3254977661153322 0.4528441823859198 0 1.082049320896652 0.48458460357306754 0
          0.9178669901394996 0.029071243749293416 0 0.1322075716395285 0.07026065434790774 0
          0.5572423280801323 0.5560122671765426 0 0.2164133942512091 0.34528444092356897 0
          1.2711364356436583 0.35768455923847936 0 1.34814402466042 0.19595094496455753 0
          0.13835210643191403 0.12211570497734645 0 0 0 0
          0.15069055876701945 0.18998955299515152 0 0.32678088578749015 0.4789126486849241 0
          1.3563795839653048 0.25955761223802853 0 0.16701439763394346 0.27695625338799507 0
          0.057309009513036614 0.00807824311451883 0 0.656698820074586 0.5060065972197857 0
          0.15544374132082545 0.3260233943226543 0 0.9883490684241769 0.42299347204019855 0
          0.3640244252591745 0.4543376921055715 0 0.10889741356764306 0.1940268810507343 0
          1.1810721832111033 0.33969250235101695 0 0.0757684917801248 0.030393864409888196 0
          0.10034390935593734 0.12720178640439303 0 1.2501975080228256 0.05992349845572803 0
          1.3158790201696098 0.25596313302402735 0 0.16267161149218917 0.3415585016834132 0
          0.08340676852925169 0.18858803790104295 0 1.4027447524392413 0.15669961790352177 0
          0.4292564817820603 0.357552665590062 0 0.08366559529233716 0.09286748548973331 0
          0.07388438016828566 0.23913905855223402 0 0.06818913276439272 0.04285145185464487 0
          0.7665253007814206 0.30801215714644736 0 0.07656521906096043 0.12571504945734177 0
          0.06771121440558095 0.20403373114135376 0 0.07084193744886641 0.20571373289789108 0
          0 0 0 0.08465693023748927 0.21586875391643204 0
          0.9964883110481776 0.2546341025556452 0 1.4001612487353403 0.08354957310720434 0
          1.1958065522798353 0.21230173185367252 0 0.04103202758012345 0.15379501364013717 0
          0.056933564570278865 0.05532449762930232 0 0.04637044618560399 0.11742423502240568 0
          0.9257102457476386 0.007897726615529956 0 0.032091321190677494 0.13546617567039454 0
          0.02161262862218093 0.12024315463280788 0 0 0 0
          0.05283884641503871 0.082878551303855 0 0.4024578091037626 0.0707497113152649 0
          0 0 0 0.7078820362564083 0.11321750838784789 0
          0 0 0 0.01751181785062527 0.09092739858490854 0
          0.028896750539425475 0.10501816462937551 0 0.03717647833743621 0.013342644608556194 0
          1.329916673753686 0.07359623102164548 0 0 0 0
          0.011036303980291791 0.06721458056911737 0 0.03988149453467019 0.053580160052047895 0
          0.9291927798853948 0.07729438824800473 0 0.03153757755355401 0.0724663210184899 0
          0 0 0 0.018362975479657182 0.07433574288970367 0
          0 0 0 1.414898901878588 0.01624610263785801 0
          0.35509065282417135 0.028126336585433582 0 0.006587887917613441 0.05400029098035692 0
          1.1313433653341012 0.03274122963424751 0 0.017715224081021042 0.06476267494939096 0
          0.6750990092217738 0.040675271878751716 0 0.030118062259264937 0.021467365316292425 0
          0 0 0 0.006768651533481913 0.04182991794826557 0
          1.40676104743293 -0.02073129679901397 0 0 0 0
          0 0 0 0.01322399496161393 0.04473102118351746 0
          0.023482914161231355 0.024769453693098176 0 0.004765968147900479 0.03332575677283091 0
          0.018096216064116273 0.03820029440616646 0 0.3360032907637351 0.0004436776770404725 0
          0.01222943163798148 0.03789787924892715 0 0 0 0
          1.2551131647363705 -0.040849540536004744 0 0.6599641335656071 -0.020995982625561894 0
          0.9413507869189045 -0.05103800626173905 0 0.004293852471938886 0.025439345838709396 0
          1.153769771180483 -0.08723610089819549 0 0.016207347824940942 0.005537303117023995 0
          0 0 0 0 0 0
          0.01377156952818288 0.021884134680122208 0 0 0 0
          1.3146382646476071 -0.10570292080587283 0 0.007810599343534274 0.024555564711054786 0
          0.0035875865428560676 0.019157671420685328 0 0.3415367354491036 -0.025702462744946013 0
          0 0 0 1.393402001752382 -0.1145801245608057 0
          0.00740743588278093 0.01881225198590408 0 0.6735023549721924 -0.11835384607278401 0
          0.01087340498305525 0.009387357273252269 0 0.002802009603004185 0.013616096408735063 0
          0 0 0 0.9255707299887657 -0.16140162601090763 0
          0.0046114736184608785 0.01424723584495246 0 1.375813548591596 -0.11466464939879167 0
          0 0 0 0.0024266851246779117 0.009747296463102245 0
          1.1289998547081534 -0.18655116527887955 0 0 0 0
          0 0 0 0.3888097654259841 -0.16581948830459362 0
          0.005819363021074529 0.007424648287821 0 0.004542246880856128 0.009157179175519895 0
          0.9463833350587256 -0.04474452129852076 0 0.001422159799200727 0.006316321226055412 0
          1.2800874201488084 -0.1943893763155094 0 1.2128259136591928 -0.08871771513790853 0
          0.005774839821740758 0.001938108055590739 0 0 0 0
          0 0 0 0.6680675483819554 -0.22878768619805315 0
          0 0 0 0 0 0
          0.0008392272917211802 0.004310351626941854 0 0.04562224343096375 -0.07132597430128586 0
          0 0 0 0.0025267750854674775 0.005013807233698018 0
          1.3575667916034637 -0.19481554134162507 0 0.8973898975822575 -0.2595599519517726 0
          0.003176764794378536 0.002413028874658483 0 0 0 0
          0.025696888199887094 -0.03085660770950565 0 0.0009785118626042726 0.0024264329519371876 0
          0.0021312430429635456 0.0029603277083432053 0 0 0 0
          0.014744113958660354 -0.005929602212988002 0 0 0 0
          0.3075117969814039 -0.20230828712056767 0 1.3253974888521194 -0.16950271999048042 0
          0.000939526476962172 0.0016469288768754782 0 1.056300829730013 -0.29011033271458053 0
          0.00615345823939798 0.01094727733633963 0 0.0017785249322727933 0.00041718056395938257 0
          0.0007186998327624979 0.0013000876993968817 0 0 0 0
          0 0 0 0.1008115663575887 -0.10181947738432288 0
          0 0 0 0.0020666083740072776 0.016377600568227922 0
          0 0 0 1.226797668876626 -0.2808889055262514 0
          0.06351939016798487 -0.053175901342613574 0 0.0009308132063021553 0.000657225106489435 0
          0 0 0 0.00032064882375756545 0.0004091521782101739 0
          0.2564938063016426 -0.007526912523009729 0 0.5359662016447313 -0.2729265000951619 0
          0.0011905872131354152 0.01950548684694718 0 1.1664462452471922 -0.13845248050887385 0
          0 0 0 0 0 0
          0.0009281796971949196 0.0205942220691962 0 0.0001762179883226718 0.00010913751196543453 0
          0.28817735460484434 -0.20249291390373336 0 0.01649947750904421 0.000755275834457181 0
          0.05137810592637254 -0.032286187827468234 0 0.7694396838211456 -0.31549799369923914 0
          0 0 0 1.292943183307033 -0.25259549191820374 0
          0.13757748869653436 -0.1114460523902339 0 -0.000011646133627773064 0.02156292293667467 0
          0 0 0 0.00997184777187635 0.01523327202723728 0
          0 0 0 0 0 0
          0.004211420791657044 0.024002482789129774 0 0.00009331352776750378 -0.00015541988172828927 0
          -0.0006456080371213085 0.02093833090877448 0 0.0036686462326570883 0.02855621394590926 0
          0.7979662961046328 -0.08963743142287386 0 0 0 0
          0 0 0 0.47774441700130205 -0.27195814245243943 0
          -0.0005611535913161935 0.020069417345957605 0 0.938710257453868 -0.331629563109389 0
          1.2508978197305007 -0.22048478210514122 0 0 0 0
          0.03337639389747683 -0.006278016396118315 0 0 0 0
          0.3042797282247962 -0.2052840159367961 0 -0.000351954548680599 0.03302343711269652 0
          0 0 0 -0.000909864672468277 0.01865745105248404 0
          0.012306970285423718 0.025838302320930373 0 0 0 0
          -0.0008968904710239135 0.033838063948430405 0 0.1567838697562663 -0.1096508792625394 0
          0 0 0 -0.0012131650519926263 0.016915147462852546 0
          0 0 0 -0.002083749664517244 0.03039762215270596 0
          0.6567694475377595 -0.31466238008455244 0 0 0 0
          -0.0014850090150169382 0.014444917992833458 0 -0.0027765640733583186 0.028291267477767005 0
          1.0974848396076389 -0.15945625625867732 0 0.46561388295106526 -0.2641717935413777 0
          0.002707845491034915 0.03613947055953378 0 0 0 0
          -0.0016808297248815248 0.011794695364287707 0 1.2171920187925467 -0.295611253296221 0
          0.049668216593358405 -0.012474243505370531 0 -0.004955474534566688 0.027153836459679944 0
          1.0441026651767842 -0.3524941674863101 0 0.2972888635511487 -0.19029546240748704 0
          0 0 0 -0.0014532017925841208 0.009277436568133882 0
          -0.004644815377010877 0.03751236278176119 0 0.13369492393189158 -0.08464036298440304 0
          -0.005442374118194111 0.02294260877753905 0 0.027119991696935616 0.010472968730716549 0
          0.8177910983904009 -0.34540443740582 0 0 0 0
          -0.001381925019224603 0.0067646535263838235 0 -0.0048017824351652555 0.017485270902575872 0
          0.6249826214457694 -0.3018049966822664 0 0.7168760803636787 -0.08055759957653726 0
          0 0 0 -0.0013529842281481705 0.00443965359142548 0
          -0.011000087159107715 0.030183129571088915 0 -0.005153256575418158 0.014281297522390045 0
          0.00314938581404925 0.029868682290137106 0 0.4514412983641035 -0.24564549041282374 0
          0.07177933983200258 -0.03754659771005823 0 0 0 0
          -0.0011533487490173427 0.002334724305305903 0 1.1137043252532008 -0.3435049983609076 0
          -0.004818100988543463 0.010135939237148844 0 -0.011298641256544452 0.022943936813883656 0
          0.29508490411513916 -0.17780263784969752 0 1.162796367410771 -0.2885909857641552 0
          0 0 0 0.9588172913419399 -0.34827867191133366 0
          -0.004365933141162124 0.006627445616283579 0 -0.00046593671189888 0.0005774602121341598 0
          0.04028209312667327 -0.005502740676457398 0 -0.010756946142959436 0.015615088465701558 0
          0.15037990345349378 -0.09630486352607726 0 -0.0031699484705929645 0.0034442251741428577 0
          0.6736780460912012 -0.30354758932264925 0 -0.013718598416712533 0.023589368413525134 0
          0 0 0 1.0266690018597562 -0.20226480209981273 0
          0.3240951868138702 -0.01751030956137428 0 -0.008222013383745681 0.0073164967658483826 0
          -0.01953051834783596 0.020911012755592307 0 -0.017253515251868863 0.017095446143544076 0
          0.09678256381619356 -0.055477027250309396 0 0.42398811002779885 -0.2324657736265458 0
          0 0 0 -0.00369585306648905 0.0016951029370013068 0
          1.0522814708756498 -0.3110523636313606 0 -0.003197667328941516 -0.0044487386924923975 0
          -0.016211935036024416 0.009247766607271075 0 -0.02123906171798435 0.009134267741643973 0
          0.8270330272613392 -0.3128605741182607 0 0.19512747834942368 -0.12804504418720136 0
          0.5662363495067723 -0.07253595390764041 0 -0.024178217908681715 0.010873920680355264 0
          0 0 0 -0.00949266871849814 0.002655119453193674 0
          0.5634706090478712 -0.2712996676777931 0 1.1044523359535492 -0.2591517315631231 0
          0.04019061993119332 -0.04919385778268277 0 0.3394240703662715 -0.20347673226591506 0
          -0.00955302150433371 -0.014932483804595002 0 -0.023772958347272808 -0.0008037325925510689 0
          -0.0167640960577684 0.002279222126070316 0 0.9875643033408248 -0.3026519873958142 0
          0 0 0 -0.022999535415137336 0.003342506577545207 0
          0.7489082001114468 -0.3184230386214692 0 0.48161648644218225 -0.26698359060295934 0
          0 0 0 0.12232727036180757 -0.11389062140906757 0
          0.022902087990729566 -0.05311354575995303 0 0.9916127529181924 -0.09011980479378254 0
          -0.009882195588347353 -0.023826757067932785 0 -0.016650413563703604 0.0011765495347308736 0
          -0.019280644078502326 -0.006603100386320563 0 0.26749671305430234 -0.20626773691145212 0
          0 0 0 1.0056919864288576 -0.37087838398241724 0
          -0.0139572388518662 -0.0000058207181415189225 0 0.08860147694327182 -0.12402269663730904 0
          0.01810793164094119 -0.054226337374989955 0 0.5601843605808019 -0.40801455904036804 0
          -0.003130441223603448 -0.016135893642442847 0 0.23101958076937873 -0.27729896426051187 0
          0 0 0 0.021876757771702348 -0.03495124922034179 0
          0.0840425757533099 -0.10704148118363298 0 0 0 0
          <InformationKey name="L2_NORM_RANGE" location="vtkDataArray" length="2">
            <Value index="0">
              0
            </Value>
            <Value index="1">
              1.414992169
            </Value>
          </InformationKey>
        </DataArray>
        <DataArray type="Float64" Name="Pressure" format="ascii" RangeMin="-8.28182626322881" RangeMax="36.94500265957923">
          36.28565313015293 36.443693002020545 36.76979608116841 36.220379582510276 36.038119904317135 36.81116624098368
          36.08280344260068 35.53140807877988 35.391308249580966 34.62817103752758 36.13351808997279 34.41483857628037
          36.94500265957923 35.34182217672457 34.42475245266906 33.6261996326339 33.474599943893054 34.535651835303995
          36.51937004030973 35.575506639985086 33.33975562515253 34.79247360870183 32.41172345103103 36.90974819212901
          33.536906219294316 32.24729600353376 32.365410030476475 33.96228175602603 31.486223087668414 34.96013043061826
          35.93455537008135 30.931302696063096 36.73003925852472 34.23066658754915 33.13001427823398 31.213417391565933
          30.40574674115742 31.627423218482022 33.58145238436846 35.215706768764306 29.55684012226379 35.626308924639886
          36.75031624820936 34.39517841963427 29.71933844204894 32.196286899590916 30.211274871070398 32.863776359339255
          33.904760524062695 30.835593937560464 34.50897468660368 27.604800564101907 27.93191539878102 28.57812867487754
          33.461752464216815 32.14010849845107 29.417581651519917 34.030697999375946 30.296353285569687 32.84809780794601
          34.73891692291342 27.592498606164398 31.247047809395593 34.117399539986764 25.924470153109 33.80488880638043