<?xml version="1.0"?>
<VTKFile type="UnstructuredGrid" version="0.1" byte_order="LittleEndian" header_type="UInt32" compressor="vtkZLibDataCompressor">
  <UnstructuredGrid>
    <Piece NumberOfPoints="418" NumberOfCells="757">
      <PointData>
        <DataArray type="Float64" Name="nsi_BC" NumberOfComponents="3" format="ascii" RangeMin="0" RangeMax="1">
          0 0 0 0 0 0
          0 0 0 0 0 0
          0 0 0 1 0 0
          0 0 0 0 0 0
          0 0 0 0 0 0
          0 0 0 0 0 0
          0 0 0 0 0 0
          0 0 0 0 0 0
          0 0 0 0 0 0
          0 0 0 0 0 0
          0 0 0 0 0 0
          0 0 0 0 0 0
          0 0 0 0 0 0
          0 0 0 0 0 0
          0 0 0 0 0 0
          0 0 0 0 0 0
          0 0 0 0 0 0
          0 0 0 0 0 0
          0 0 0 0 0 0
          0 0 0 0 0 0
          0 0 0 0 0 0
          0 0 0 0 0 0
          0 0 0 0 0 0
          0 0 0 0 0 0
          0 0 0 0 0 0
          0 0 0 0 0 0
          0 0 0 0 0 0
          0 0 0 0 0 0
          0 0 0 0 0 0
          0 0 0 0 0 0
          0 0 0 0 0 0
          0 0 0 0 0 0
          0 0 0 0 0 0
          0 0 0 0 0 0
          0 0 0 0 0 0
          0 0 0 0 0 0
          0 0 0 0 0 0
          0 0 0 0 0 0
          0 0 0 0 0 0
          0 0 0 0 0 0
          0 0 0 0 0 0
          0 0 0 0 0 0
          0 0 0 0 0 0
          0 0 0 0 0 0
          0 0 0 0 0 0
          0 0 0 0 0 0
          0 0 0 0 0 0
          0 0 0 0 0 0
          0 0 0 0 0 0
          0 0 0 0 0 0
          0 0 0 0 0 0
          0 0 0 0 0 0
          0 0 0 0 0 0
          0 0 0 0 0 0
          0 0 0 0 0 0
          0 0 0 0 0 0
          0 0 0 0 0 0
          0 0 0 0 0 0
          0 0 0 0 0 0
          0 0 0 0 0 0
          0 0 0 0 0 0
          0 0 0 0 0 0
          0 0 0 0 0 0
          0 0 0 0 0 0
          0 0 0 0 0 0
          0 0 0 0 0 0
          0 0 0 0 0 0
          0 0 0 0 0 0
          0 0 0 0 0 0
          0 0 0 0 0 0
          0 0 0 0 0 0
          0 0 0 0 0 0
          0 0 0 0 0 0
          0 0 0 0 0 0
          0 0 0 0 0 0
          0 0 0 0 0 0
          0 0 0 0 0 0
          0 0 0 0 0 0
          0 0 0 0 0 0
          0 0 0 0 0 0
          0 0 0 0 0 0
          0 0 0 0 0 0
          0 0 0 0 0 0
          0 0 0 0 0 0
          0 0 0 0 0 0
          0 0 0 0 0 0
          0 0 0 0 0 0
          0 0 0 0 0 0
          0 0 0 0 0 0
          0 0 0 0 0 0
          0 0 0 0 0 0
          0 0 0 0 0 0
          0 0 0 0 0 0
          0 0 0 0 0 0
          0 0 0 0 0 0
          0 0 0 0 0 0
          0 0 0 0 0 0
          0 0 0 0 0 0
          0 0 0 0 0 0
          0 0 0 0 0 0
          0 0 0 0 0 0
          0 0 0 0 0 0
          0 0 0 0 0 0
          0 0 0 0 0 0
          0 0 0 0 0 0
          0 0 0 0 0 0
          0 0 0 0 0 0
          0 0 0 0 0 0
          0 0 0 0 0 0
          0 0 0 0 0 0
          0 0 0 0 0 0
          0 0 0 0 0 0
          0 0 0 0 0 0
          0 0 0 0 0 0
          0 0 0 0 0 0
          0 0 0 0 0 0
          0 0 0 0 0 0
          0 0 0 0 0 0
          0 0 0 0 0 0
          0 0 0 0 0 0
          0 0 0 0 0 0
          0 0 0 0 0 0
          0 0 0 0 0 0
          0 0 0 0 0 0
          0 0 0 0 0 0
          0 0 0 0 0 0
          0 0 0 0 0 0
          0 0 0 0 0 0
          0 0 0 0 0 0
          0 0 0 0 0 0
          0 0 0 0 0 0
          0 0 0 0 0 0
          0 0 0 0 0 0
          0 0 0 0 0 0
          0 0 0 0 0 0
          0 0 0 0 0 0
          0 0 0 0 0 0
          0 0 0 0 0 0
          0 0 0 0 0 0
          0 0 0 0 0 0
          0 0 0 0 0 0
          0 0 0 0 0 0
          0 0 0 0 0 0
          0 0 0 0 0 0
          0 0 0 0 0 0
          0 0 0 0 0 0
          0 0 0 0 0 0
          0 0 0 0 0 0
          0 0 0 0 0 0
          0 0 0 0 0 0
          0 0 0 0 0 0
          0 0 0 0 0 0
          0 0 0 0 0 0
          0 0 0 0 0 0
          0 0 0 0 0 0
          0 0 0 0 0 0
          0 0 0 0 0 0
          0 0 0 0 0 0
          0 0 0 0 0 0
          0 0 0 0 0 0
          0 0 0 0 0 0
          0 0 0 0 0 0
          0 0 0 0 0 0
          0 0 0 0 0 0
          0 0 0 0 0 0
          0 0 0 0 0 0
          0 0 0 0 0 0
          0 0 0 0 0 0
          0 0 0 0 0 0
          0 0 0 0 0 0
          0 0 0 0 0 0
          0 0 0 0 0 0
          0 0 0 0 0 0
          0 0 0 0 0 0
          0 0 0 0 0 0
          0 0 0 0 0 0
          0 0 0 0 0 0
          0 0 0 0 0 0
          0 0 0 0 0 0
          0 0 0 0 0 0
          0 0 0 0 0 0
          0 0 0 0 0 0
          0 0 0 0 0 0
          0 0 0 0 0 0
          0 0 0 0 0 0
          0 0 0 0 0 0
          0 0 0 0 0 0
          0 0 0 0 0 0
          0 0 0 0 0 0
          0 0 0 0 0 0
          0 0 0 0 0 0
          0 0 0 0 0 0
          0 0 0 0 0 0
          0 0 0 0 0 0
          0 0 0 0 0 0
          0 0 0 0 0 0
          0 0 0 0 0 0
          0 0 0 0 0 0
          0 0 0 0 0 0
          0 0 0 0 0 0
          0 0 0 0 0 0
          0 0 0 0 0 0
          0 0 0 0 0 0
          0 0 0 0 0 0
          0 0 0 0 0 0
          0 0 0 0 0 0
          0 0 0 0 0 0
          0 0 0 0 0 0
          0 0 0 0 0 0
          <InformationKey name="L2_NORM_RANGE" location="vtkDataArray" length="2">
            <Value index="0">
              0
            </Value>
            <Value index="1">
              1
            </Value>
          </InformationKey>
        </DataArray>
        <DataArray type="Float64" Name="nsi_FIXNO" NumberOfComponents="3" format="ascii" RangeMin="1.4142135623730951" RangeMax="1.4142135623730951">
          1 1 0 -1 -1 0
          -1 -1 0 -1 -1 0
          1 1 0 1 1 0
          -1 -1 0 -1 -1 0
          -1 -1 0 -1 -1 0
          -1 -1 0 -1 -1 0
          -1 -1 0 -1 -1 0
          -1 -1 0 1 1 0
          -1 -1 0 -1 -1 0
          -1 -1 0 -1 -1 0
          -1 -1 0 -1 -1 0
          -1 -1 0 -1 -1 0
          -1 -1 0 -1 -1 0
          -1 -1 0 -1 -1 0
          -1 -1 0 -1 -1 0
          -1 -1 0 -1 -1 0
          1 1 0 -1 -1 0
          -1 -1 0 -1 -1 0
          1 1 0 -1 -1 0
          -1 -1 0 -1 -1 0
          -1 -1 0 -1 -1 0
          1 1 0 -1 -1 0
          -1 -1 0 -1 -1 0
          -1 -1 0 -1 -1 0
          -1 -1 0 -1 -1 0
          -1 -1 0 -1 -1 0
          -1 -1 0 -1 -1 0
          -1 -1 0 -1 -1 0
          -1 -1 0 -1 -1 0
          -1 -1 0 -1 -1 0
          1 1 0 -1 -1 0
          -1 -1 0 -1 -1 0
          -1 -1 0 -1 -1 0
          -1 -1 0 -1 -1 0
          -1 -1 0 1 1 0
          -1 -1 0 -1 -1 0
          -1 -1 0 -1 -1 0
          -1 -1 0 -1 -1 0
          -1 -1 0 -1 -1 0
          -1 -1 0 -1 -1 0
          -1 -1 0 -1 -1 0
          -1 -1 0 -1 -1 0
          -1 -1 0 -1 -1 0
          -1 -1 0 -1 -1 0
          1 1 0 -1 -1 0
          -1 -1 0 -1 -1 0
          -1 -1 0 -1 -1 0
          -1 -1 0 -1 -1 0
          -1 -1 0 -1 -1 0
          -1 -1 0 -1 -1 0
          -1 -1 0 -1 -1 0
          -1 -1 0 -1 -1 0
          -1 -1 0 -1 -1 0
          -1 -1 0 -1 -1 0
          -1 -1 0 -1 -1 0
          -1 -1 0 -1 -1 0
          -1 -1 0 -1 -1 0
          -1 -1 0 -1 -1 0
          -1 -1 0 -1 -1 0
          -1 -1 0 -1 -1 0
          -1 -1 0 1 1 0
          -1 -1 0 -1 -1 0
          -1 -1 0 -1 -1 0
          -1 -1 0 -1 -1 0
          -1 -1 0 -1 -1 0
          -1 -1 0 -1 -1 0
          -1 -1 0 -1 -1 0
          -1 -1 0 -1 -1 0
          -1 -1 0 -1 -1 0
          -1 -1 0 -1 -1 0
          -1 -1 0 -1 -1 0
          -1 -1 0 -1 -1 0
          -1 -1 0 -1 -1 0
          -1 -1 0 -1 -1 0
          1 1 0 -1 -1 0
          -1 -1 0 -1 -1 0
          -1 -1 0 -1 -1 0
          -1 -1 0 -1 -1 0
          -1 -1 0 -1 -1 0
          -1 -1 0 1 1 0
          -1 -1 0 -1 -1 0
          1 1 0 -1 -1 0
          1 1 0 -1 -1 0
          -1 -1 0 -1 -1 0
          -1 -1 0 1 1 0
          -1 -1 0 -1 -1 0
          -1 -1 0 -1 -1 0
          1 1 0 -1 -1 0
          1 1 0 -1 -1 0
          -1 -1 0 -1 -1 0
          -1 -1 0 -1 -1 0
          -1 -1 0 -1 -1 0
          1 1 0 -1 -1 0
          -1 -1 0 1 1 0
          1 1 0 -1 -1 0
          -1 -1 0 -1 -1 0
          -1 -1 0 -1 -1 0
          -1 -1 0 1 1 0
          -1 -1 0 -1 -1 0
          -1 -1 0 -1 -1 0
          -1 -1 0 -1 -1 0
          1 1 0 1 1 0
          -1 -1 0 1 1 0
          -1 -1 0 -1 -1 0
          -1 -1 0 -1 -1 0
          1 1 0 -1 -1 0
          -1 -1 0 -1 -1 0
          -1 -1 0 -1 -1 0
          1 1 0 -1 -1 0
          -1 -1 0 -1 -1 0
          1 1 0 -1 -1 0
          -1 -1 0 1 1 0
          1 1 0 -1 -1 0
          -1 -1 0 -1 -1 0
          -1 -1 0 -1 -1 0
          -1 -1 0 -1 -1 0
          -1 -1 0 1 1 0
          1 1 0 -1 -1 0
          1 1 0 1 1 0
          -1 -1 0 -1 -1 0
          1 1 0 -1 -1 0
          -1 -1 0 -1 -1 0
          -1 -1 0 1 1 0
          -1 -1 0 -1 -1 0
          -1 -1 0 1 1 0
          -1 -1 0 1 1 0
          -1 -1 0 -1 -1 0
          -1 -1 0 -1 -1 0
          -1 -1 0 -1 -1 0
          -1 -1 0 1 1 0
          1 1 0 -1 -1 0
          1 1 0 -1 -1 0
          1 1 0 -1 -1 0
          -1 -1 0 -1 -1 0
          1 1 0 -1 -1 0
          -1 -1 0 -1 -1 0
          -1 -1 0 -1 -1 0
          1 1 0 1 1 0
          -1 -1 0 -1 -1 0
          -1 -1 0 -1 -1 0
          -1 -1 0 -1 -1 0
          1 1 0 -1 -1 0
          -1 -1 0 -1 -1 0
          1 1 0 -1 -1 0
          1 1 0 1 1 0
          -1 -1 0 -1 -1 0
          -1 -1 0 -1 -1 0
          -1 -1 0 1 1 0
          1 1 0 -1 -1 0
          -1 -1 0 -1 -1 0
          -1 -1 0 1 1 0
          -1 -1 0 1 1 0
          -1 -1 0 -1 -1 0
          1 1 0 -1 -1 0
          -1 -1 0 1 1 0
          -1 -1 0 -1 -1 0
          1 1 0 -1 -1 0
          1 1 0 -1 -1 0
          -1 -1 0 1 1 0
          -1 -1 0 -1 -1 0
          -1 -1 0 -1 -1 0
          -1 -1 0 1 1 0
          -1 -1 0 -1 -1 0
          -1 -1 0 -1 -1 0
          -1 -1 0 -1 -1 0
          1 1 0 -1 -1 0
          -1 -1 0 -1 -1 0
          -1 -1 0 -1 -1 0
          -1 -1 0 1 1 0
          -1 -1 0 -1 -1 0
          -1 -1 0 -1 -1 0
          1 1 0 -1 -1 0
          -1 -1 0 -1 -1 0
          -1 -1 0 -1 -1 0
          -1 -1 0 1 1 0
          -1 -1 0 -1 -1 0
          -1 -1 0 -1 -1 0
          -1 -1 0 -1 -1 0
          1 1 0 -1 -1 0
          -1 -1 0 -1 -1 0
          -1 -1 0 -1 -1 0
          -1 -1 0 -1 -1 0
          -1 -1 0 -1 -1 0
          1 1 0 -1 -1 0
          -1 -1 0 -1 -1 0
          -1 -1 0 -1 -1 0
          -1 -1 0 -1 -1 0
          1 1 0 -1 -1 0
          -1 -1 0 -1 -1 0
          -1 -1 0 -1 -1 0
          -1 -1 0 -1 -1 0
          -1 -1 0 -1 -1 0
          1 1 0 -1 -1 0
          -1 -1 0 -1 -1 0
          -1 -1 0 -1 -1 0
          -1 -1 0 -1 -1 0
          -1 -1 0 -1 -1 0
          1 1 0 -1 -1 0
          -1 -1 0 -1 -1 0
          1 1 0 -1 -1 0
          -1 -1 0 -1 -1 0
          -1 -1 0 -1 -1 0
          -1 -1 0 -1 -1 0
          1 1 0 -1 -1 0
          -1 -1 0 -1 -1 0
          -1 -1 0 -1 -1 0
          -1 -1 0 -1 -1 0
          1 1 0 -1 -1 0
          -1 -1 0 1 1 0
          <InformationKey name="L2_NORM_RANGE" location="vtkDataArray" length="2">
            <Value index="0">
              1.4142135624
            </Value>
            <Value index="1">
              1.4142135624
            </Value>
          </InformationKey>
        </DataArray>
        <DataArray type="Float64" Name="Velocity" NumberOfComponents="3" format="ascii" RangeMin="0" RangeMax="1.4146322172975687">
          0 0 0 0.3185125727491652 0.024340913971387677 0
          0.7323009148451904 0.10034480976731222 0 0.5147989750023387 0.036628983613639025 0
          0 0 0 1 0 0
          0.7174845575408443 0.026302862006256804 0 0.3693929044453704 0.021644016865351032 0
          0.6434895898377281 0.03785797718561139 0 0.3113963335437072 0.004839167096611714 0
          0.6664925930142288 0.028756615841571694 0 0.561477682754863 0.03267639252720925 0
          0.7022618974079399 -0.09756637785913878 0 0.7198063687036823 0.03259587347285972 0
          0.6853422299132386 0.04691515533999205 0 0 0 0
          0.5046539131249598 0.026615999889872562 0 0.7266574767077423 0.059748081781934366 0
          0.6053535501326447 -0.0046256772091218005 0 0.6492657831781216 0.043077951188441495 0
          0.6598312901262696 0.05726572651177564 0 0.6873147042910895 0.06238247612091249 0
          0.4230960805803147 0.036426611819252025 0 0.34866160284018133 -0.02846287109379329 0
          0.7322824851570225 0.09793211370785088 0 0.6413561488688375 0.07994651832205145 0
          0.7417391820222153 0.11872721036310596 0 0.7142875156015419 0.09889894384069843 0
          0.3201846585797999 0.012137648509280636 0 0.5701541498476201 0.04836428706529981 0
          0.44467176373953626 0.0033559696918851445 0 0.5999808364785514 0.0903971039468723 0
          0 0 0 0.6205489809194389 0.0817048747551203 0
          0.7343422160166159 0.15645412209729084 0 0.7564482248623088 0.1552015429842613 0
          0 0 0 0.7771652790902903 0.19120482091389124 0
          0.652771271493898 0.1375019292568044 0 0.3217156189453946 0.009817921201104822 0
          0.5641124146385834 0.08541174805875246 0 0.2006231461039275 0.005276419220142422 0
          0 0 0 0.4651487045066541 0.051721202418319526 0
          0.7644645356870579 0.18350605676535814 0 0.756286975953258 0.22588157404640416 0
          0.8262626087208799 0.2466384778974096 0 0.6782864054957597 0.2094975552041488 0
          0.5166901125573714 0.09605355101821643 0 0.811350345200221 0.2847576537188368 0
          0.3074742032140815 0.025609668333112245 0 0.4604753892159206 0.024770799671638415 0
          0.7942103896066527 0.15369742347852994 0 0.8761047014824819 0.2765116619554188 0
          0.5546578042220633 0.16738187011562217 0 0.6911547052753084 0.291779492704691 0
          0.8694817984701233 0.3436167988304425 0 0.34800577200277877 0.04879009032849594 0
          0.7983811691980646 0.3717068880803769 0 0.5894857133800482 0.25514993824447424 0
          0 0 0 0.9476537856131344 0.3649658588386649 0
          0.705774990906378 0.3742265141556976 0 0.18445540875584465 0.011227629559886572 0
          0.9830957152749098 0.23792437762584404 0 0.3701087028256361 0.09322730801464992 0
          0.45678925494617084 0.19146619970812673 0 0.8730533165490696 0.42499720388294077 0
          0.5912240123088623 0.3342136965456407 0 0 0 0
          0.747724154147726 0.10295373467581652 0 0.46830613572166996 0.26850115949063186 0
          0.7422736667023048 0.46467680529260896 0 1.053071686659112 0.35959673598512093 0
          0.9643002446132616 0.4638192909604699 0 0.3257671986736995 0.12649279268661429 0
          0.21346679765059334 0.03627568506949844 0 0.5663668508412644 0.4138081602626492 0
          0.8498402761670236 0.5138179408023185 0 1.1161790195243821 0.28712659666375134 0
          0.464115953940673 0.34380850622810305 0 0.726159960696255 0.5149648772616554 0
          0.34067367990627323 0.19073711242752073 0 0.24388621184332937 0.06476378305550583 0
          1.0349197660359395 0.1936932147154761 0 0.6074004909493109 0.4969102786944818 0
          0.960760969449704 0.5238898564019798 0 0.34124530238786416 0.26153535347444645 0
          0 0 0 0.8331899413267679 0.08459188580514548 0
          1.1899801708864497 0.3832855973989258 0 0.7892778715767682 0.5650683129559465 0
          0.43784512283805954 0.4229018388995053 0 0.6407150691017719 0.5548882728200325 0
          1.2242305605494677 0.2766550253919537 0 0.23171340579752492 0.12078726258865949 0
          0.3126981914975968 0.30886126319481555 0 0.12213942641330394 0.01638994727441211 0
          0.24228614884277389 0.1853984897835633 0 0.4777907668434171 0.010979681106811207 0
          0.9323919402160509 0.5643004560095828 0 0.4215055832886261 0.48002456894633766 0
          1.1474745896611611 0.4728831762998174 0 0.24452055087968047 0.24812209474870572 0
          0.6960540354841686 0.5880259742101565 0 0.27846154695587066 0.3489178861430995 0
          1.169176007792947 0.142245566792455 0 1.294098589973655 0.33144731479226563 0
          0.14021270694836338 0.04433812910699196 0 0.5210640077847671 0.5594412293718841 0
          0.8054918357877341 0.5717838417511354 0 0.20129949627196003 0.26975835311381 0
          0.3250179489334871 0.45662878772252086 0 1.0811386179850173 0.4860104164133538 0
          0.9184338184958265 0.028896285022713453 0 0.1355315672348547 0.07187587583045157 0
          0.5565856528497862 0.5587280694851625 0 0.2164284746586883 0.34942005615709787 0
          1.270410965703708 0.35825986473145716 0 1.3479364731815213 0.19581128890348853 0
          0.14074649254111238 0.12500249904088873 0 0 0 0
          0.15198951399203817 0.19378438504077894 0 0.32634849739611194 0.48196809776268645 0
          1.355846660354674 0.259628605527549 0 0.1673467228417047 0.28101321071897983 0
          0.05919150438449099 0.008282014223384782 0 0.6562680128815319 0.5077698008347128 0
          0.15531779424761818 0.32929478161226095 0 0.987762785643408 0.42395748934443755 0
          0.3637497434298972 0.456392467692661 0 0.10957548024941458 0.19777331986960545 0
          1.1804823334839516 0.340090245340884 0 0.07840002188250354 0.03120872350935388 0
          0.10197493199979688 0.13033413698808963 0 1.2503507958664952 0.05932549109629728 0
          1.3153605011143816 0.2558615200615649 0 0.1624910959283148 0.34378429548635026 0
          0.08368931712234079 0.19194969909553783 0 1.4023659066923382 0.15596644257389086 0
          0.4291380936130805 0.35855418019630203 0 0.08537293956555782 0.0954457307281326 0
          0.0738292014294297 0.24130155613963963 0 0.07054821328886647 0.04410016434162372 0
          0.7661666436060153 0.30853353711214937 0 0.07754686587301737 0.12891812776142486 0
          0.06777676617500047 0.20684171725803074 0 0.07085663302628842 0.20808168572499688 0
          0 0 0 0.08459339062028169 0.21700872326100035 0
          0.9960425362150034 0.2547791363410207 0 1.3998237648255722 0.08247504442217543 0
          1.1953710731754152 0.21203434085561632 0 0.04100172396090316 0.1550177382336288 0
          0.058652596822302665 0.05717998530563327 0 0.04677809376930077 0.12027950974513887 0
          0.9259314746071744 0.0074628008449014165 0 0.032178574436279084 0.13777075626904045 0
          0.021606753543955578 0.12149414407603971 0 0 0 0
          0.053900859679116356 0.08543563518577209 0 0.40217372657377376 0.07074615413755495 0
          0 0 0 0.7075135454920827 0.11314506427707675 0
          0 0 0 0.017522214288707035 0.0921700502050369 0
          0.02903699602446888 0.10721917656928673 0 0.03873228960612616 0.013769504664740877 0
          1.3296714845950395 0.0723406480978374 0 0 0 0
          0.011064188781374948 0.06842695111353025 0 0.04101658093760221 0.055542587752007544 0
          0.9289150173988789 0.07683647753778605 0 0.03204810022689507 0.07476845546031734 0
          0 0 0 0.018532645588454456 0.07622278032632623 0
          0 0 0 1.414558570739601 0.014434686119662213 0
          0.3548411126451577 0.02808866416319996 0 0.006617013006955563 0.05516674113479763 0
          1.1312081429101164 0.03167288143137098 0 0.017910157678475945 0.06665557648674779 0
          0.6748891043988723 0.04041461347603584 0 0.03146966255309868 0.022273407923882944 0
          0 0 0 0.0068164401550363995 0.04292698868183319 0
          1.4062117747986866 -0.022740728500907453 0 0 0 0
          0 0 0 0.013445886715093886 0.04627943486298681 0
          0.02447508146821469 0.02586037312469244 0 0.004817678767568935 0.03433623849127432 0
          0.01861449819844627 0.039822809198394 0 0.3358674408255208 0.00031314914004213173 0
          0.01246878208356655 0.0393880071773667 0 0 0 0
          1.2543284638361323 -0.04249639017455422 0 0.6600015201831421 -0.02156759696582361 0
          0.9415311881294365 -0.05229854841201828 0 0.004354460959871743 0.02635419576497179 0
          1.1539580801302982 -0.08942883265763453 0 0.017037264001018498 0.005773258126575596 0
          0 0 0 0 0 0
          0.01430903359783868 0.023014221655690933 0 0 0 0
          1.314506154869462 -0.10849649748835002 0 0.008036218799498118 0.025690024664450164 0
          0.0036553734063517365 0.019960487042029865 0 0.34163731744479936 -0.025985251061220842 0
          0 0 0 1.3927780373466312 -0.11773097379317285 0
          0.007642145121017602 0.019785969409741287 0 0.6739994382392076 -0.11971546715682085 0
          0.011523922728769757 0.009859140932243087 0 0.002870693215405889 0.014302542899183276 0
          0 0 0 0.9261363612509541 -0.1637800906617826 0
          0.00482011819478725 0.015085736907005641 0 1.374612207925581 -0.1177189701839051 0
          0 0 0 0.0025045159398194472 0.01031571862799789 0
          1.1293414412701634 -0.18984227282636149 0 0 0 0
          0 0 0 0.3894900815668367 -0.1673738883671922 0
          0.006165360684383587 0.007958719529265914 0 0.0047477232680971735 0.00979091761010323 0
          0.9451266599249988 -0.0458372335157593 0 0.0014830454192223598 0.006766206856894987 0
          1.2798736505343982 -0.19841120629254277 0 1.210958093392682 -0.09104068688170985 0
          0.006145814819443616 0.0020589580640577513 0 0 0 0
          0 0 0 0.6689570685796028 -0.23159599556541013 0
          0 0 0 0 0 0
          0.0008870974448249787 0.004661198025251454 0 0.04583094754959264 -0.0729215237437416 0
          0 0 0 0.002680939114384753 0.0054289942771012815 0
          1.356478362588304 -0.19915514450809346 0 0.8981747204734268 -0.2635516092419864 0
          0.00344361420327061 0.002610556424234561 0 0 0 0
          0.02580455213401466 -0.03224645548941888 0 0.0010302664199849808 0.0026817945443387593 0
          0.0022739651593702216 0.0032498414480039753 0 0 0 0
          0.014824382843772117 -0.007179612336362941 0 0 0 0
          0.3082977796217838 -0.2057539305120934 0 1.3232753030641933 -0.17356779156350283 0
          0.0010443320573536113 0.001837353135257813 0 1.056659073917386 -0.29534715445521287 0
          0.006218681458755571 0.00982547597129543 0 0.0019242519811920598 0.00047066377176671533 0
          0.0007679916557285643 0.0014772508213342867 0 0 0 0
          0 0 0 0.10123516559064388 -0.10500045614670026 0
          0 0 0 0.0021191775988207468 0.015361814852632933 0
          0 0 0 1.2261582016879655 -0.28660426653723386 0
          0.06381827599417572 -0.05610617635007333 0 0.0010315360965699183 0.000750634081837289 0
          0 0 0 0.0003530007602917963 0.0005154632776172144 0
          0.25626332422592446 -0.007597964161594364 0 0.5369796953759617 -0.2782560719234435 0
          0.001238302647564913 0.018576938703720697 0 1.1631335145691917 -0.1413866617036556 0
          0 0 0 0 0 0
          0.0009891259363543517 0.019754302513912424 0 0.00020424958466485146 0.00016682706361132978 0
          0.2890461172063328 -0.20777614492787438 0 0.016751875067271337 -0.0017785276638012453 0
          0.051711909029488044 -0.03563063828820885 0 0.7702046814497299 -0.3221766449106262 0
          0 0 0 1.290826084055471 -0.2585437094378115 0
          0.13820929493385284 -0.11631313173602988 0 0.00004951362246128566 0.02081495736157545 0
          0 0 0 0.010173475914966968 0.012914956956629255 0
          0 0 0 0 0 0
          0.004401489133315213 0.02215802557388548 0 0.00010834911204666821 -0.00014718653302343723 0
          -0.0005924702982586015 0.020297961719665584 0 0.0038634197508548933 0.026830006718978307 0
          0.7952055094281116 -0.09121069347630964 0 0 0 0
          0 0 0 0.47876620201902426 -0.27948964778008967 0
          -0.0004956248782341108 0.019536534947422222 0 0.9386993959482743 -0.3400441930898485 0
          1.2470287781175173 -0.22567412628557287 0 0 0 0
          0.03392642348439713 -0.010472808460488175 0 0 0 0
          0.30532438905973364 -0.21274472027746205 0 -0.00010517632119796582 0.0313247384080093 0
          0 0 0 -0.0008314229007782988 0.018248151060367302 0
          0.012766345149244313 0.022644372891010883 0 0 0 0
          -0.0006547680292535243 0.03238632175239038 0 0.15774039226596856 -0.11655634029706051 0
          0 0 0 -0.001154992036228633 0.016615692038325237 0
          0 0 0 -0.0018227806660235562 0.02933808532185484 0
          0.6573859517023347 -0.32442800426096385 0 0 0 0
          -0.0014383767661579057 0.014244977847076951 0 -0.0025497379960629537 0.027460926448991587 0
          1.0918029945137544 -0.16298692293036834 0 0.46676476672260253 -0.2741654017031163 0
          0.0033736521832262874 0.03323106882450274 0 0 0 0
          -0.0016100316281667337 0.011709184953849087 0 1.2130933275856879 -0.3036466175489903 0
          0.050767814803086724 -0.01839036883875377 0 -0.0047373299566772385 0.026445015566271747 0
          1.042351502074482 -0.36275258425229745 0 0.2986752810658198 -0.20001766169434215 0
          0 0 0 -0.001405078134279951 0.00929431228865059 0
          -0.004024446521383581 0.035556687689278686 0 0.13523966321465844 -0.09300704591290523 0
          -0.005186395700302131 0.022499196438453467 0 0.028430147748324874 0.005228149507265791 0
          0.8172978438657578 -0.3571540626223412 0 0 0 0
          -0.0013638801257566306 0.006835258756798785 0 -0.004579577500574603 0.01730072449949513 0
          0.6255194681368789 -0.3141345653398724 0 0.7124969374367631 -0.08189998546239899 0
          0 0 0 -0.0013474708213127295 0.004530259822841949 0
          -0.01030727652418512 0.02907721211833302 0 -0.005026076912935092 0.01424561061681132 0
          0.004599773039049352 0.02583464568824971 0 0.4529303620386919 -0.2582495060225904 0
          0.07393694421454645 -0.04533010121999938 0 0 0 0
          -0.0011728041171078102 0.002408020512706974 0 1.1090864771655295 -0.3538891234593205 0
          -0.004753560670816357 0.010200462278069825 0 -0.010725571789828919 0.022405869250796673 0
          0.2971786763827619 -0.189900485970941 0 1.1554830943567351 -0.29649483030169904 0
          0 0 0 0.9560816211203538 -0.36135748498798215 0
          -0.004377783213071359 0.006706480968703741 0 -0.0004799934672980256 0.0006077802638968478 0
          0.04272800252597625 -0.012188280591837129 0 -0.010471493494427898 0.015439605344687767 0
          0.15345252818028515 -0.10697122443515815 0 -0.0032209011882224194 0.0035124357335833078 0
          0.6737860193546815 -0.31808873682689687 0 -0.011587213033122474 0.02026092246860287 0
          0 0 0 1.0167273684923759 -0.20642884451744606 0
          0.32111958403610547 -0.01762821141568403 0 -0.008230184807334432 0.007339109596568165 0
          -0.017958990690438208 0.019054361435815823 0 -0.016294748144669385 0.016198972034034566 0
          0.10040721226234857 -0.06533378940905574 0 0.4263521252864422 -0.2473115125969934 0
          0 0 0 -0.0037514487912391624 0.001719009788847141 0
          1.0457255844275426 -0.3242654531553551 0 0.0008775726702528152 -0.01035032131735675 0
          -0.01591625734605251 0.008986180519901157 0 -0.018244004488845292 0.005745603991759814 0
          0.8249119164636064 -0.32854006975947553 0 0.19993389897924077 -0.14115142499600142 0
          0.5590599451196198 -0.07357127824182025 0 -0.02219803509783317 0.009143421619298826 0
          0 0 0 -0.00950764999412912 0.002620165042314892 0
          0.5649649803560229 -0.2876779512230839 0 1.0930492358086 -0.27055663211265846 0
          0.046650458980759237 -0.057839780487722134 0 0.3445043583948385 -0.2190822923254146 0
          -0.004164058580858257 -0.020438501423642175 0 -0.020005063545307872 -0.003700597456639624 0
          -0.01645992560267154 0.0020961083119169642 0 0.9801089697865046 -0.31664639621187035 0
          0 0 0 -0.021068596808609313 0.00213803625250991 0
          0.7475874212378549 -0.3341444667791979 0 0.4854467607642215 -0.28260119210840334 0
          0 0 0 0.1316729072026966 -0.12557608260574143 0
          0.03139408398175176 -0.06077126515246342 0 0.9730310508545041 -0.09628780221690092 0
          -0.0031303407346457194 -0.028206109956002128 0 -0.015747119708056524 0.00065815922160835 0
          -0.015477857599370233 -0.008609210855186449 0 0.2771554158008162 -0.22021445435424686 0
          0 0 0 0.9952727431431776 -0.38202707717633827 0
          -0.012044426335868953 -0.00021133399468615106 0 0.10125713078954224 -0.1338784666846884 0
          0.028615513992584933 -0.059690907338073265 0 0.5641114992255751 -0.4204408738177179 0
          0.001682408910366849 -0.017393143311428823 0 0.24565913912726922 -0.2872363343644568 0
          0 0 0 0.031808141292401816 -0.0370229196949915 0
          0.10141173066205005 -0.11353956538531498 0 0 0 0
          <InformationKey name="L2_NORM_RANGE" location="vtkDataArray" length="2">
            <Value index="0">
              0
            </Value>
            <Value index="1">
              1.4146322173
            </Value>
          </InformationKey>
        </DataArray>
        <DataArray type="Float64" Name="Pressure" format="ascii" RangeMin="-8.404560517993206" RangeMax="36.90793382203772">
          36.246020232435356 36.40463491015639 36.73100696366567 36.18141360761542 35.99894557877532 36.77307364920833
          36.04346128449193 35.49171498871167 35.351449041817155 34.58707987120413 36.09511590232148 34.37388410127517
          36.90793382203772 35.3018864429315 34.38395234188225 33.58394187129943 33.43201875121785 34.49434310181234
          36.48283780328175 35.53693705335004 33.29711969558454 34.752626198286464 32.36734542484865 36.873943206113765
          33.49362665120898 32.20198357764691 32.318909199244644 33.92088760417245 31.440144187527068 34.92228288488866
          35.89970579556775 30.88388879420744 36.6939616455393 34.19182354422107 33.08638451182534 31.164789216176768
          30.357864092649976 31.576994448552053 33.54001983702853 35.18429431525367 29.50724690810751 35.5967386793594
          36.716013274179 34.362145829264236 29.669330911425558 32.14966824251295 30.160134539963067 32.81936399532163
          33.86916470439868 30.783124182880375 34.48144124501476 27.55123650846667 27.87899865529317 28.525523363503854
          33.42294414083701 32.09143987119385 29.362313182685874 34.00163760123518 30.2392841789925 32.80448953831946
          34.71449199671218 27.534017447753943 31.1927135857912 34.09278512460174 25.866261393031422 33.7752443790704