<?xml version="1.0"?>
<VTKFile type="UnstructuredGrid" version="0.1" byte_order="LittleEndian" header_type="UInt32" compressor="vtkZLibDataCompressor">
  <UnstructuredGrid>
    <Piece NumberOfPoints="418" NumberOfCells="757">
      <PointData>
        <DataArray type="Float64" Name="nsi_BC" NumberOfComponents="3" format="ascii" RangeMin="0" RangeMax="1">
          0 0 0 0 0 0
          0 0 0 0 0 0
          0 0 0 1 0 0
          0 0 0 0 0 0
          0 0 0 0 0 0
          0 0 0 0 0 0
          0 0 0 0 0 0
          0 0 0 0 0 0
          0 0 0 0 0 0
          0 0 0 0 0 0
          0 0 0 0 0 0
          0 0 0 0 0 0
          0 0 0 0 0 0
          0 0 0 0 0 0
          0 0 0 0 0 0
          0 0 0 0 0 0
          0 0 0 0 0 0
          0 0 0 0 0 0
          0 0 0 0 0 0
          0 0 0 0 0 0
          0 0 0 0 0 0
          0 0 0 0 0 0
          0 0 0 0 0 0
          0 0 0 0 0 0
          0 0 0 0 0 0
          0 0 0 0 0 0
          0 0 0 0 0 0
          0 0 0 0 0 0
          0 0 0 0 0 0
          0 0 0 0 0 0
          0 0 0 0 0 0
          0 0 0 0 0 0
          0 0 0 0 0 0
          0 0 0 0 0 0
          0 0 0 0 0 0
          0 0 0 0 0 0
          0 0 0 0 0 0
          0 0 0 0 0 0
          0 0 0 0 0 0
          0 0 0 0 0 0
          0 0 0 0 0 0
          0 0 0 0 0 0
          0 0 0 0 0 0
          0 0 0 0 0 0
          0 0 0 0 0 0
          0 0 0 0 0 0
          0 0 0 0 0 0
          0 0 0 0 0 0
          0 0 0 0 0 0
          0 0 0 0 0 0
          0 0 0 0 0 0
          0 0 0 0 0 0
          0 0 0 0 0 0
          0 0 0 0 0 0
          0 0 0 0 0 0
          0 0 0 0 0 0
          0 0 0 0 0 0
          0 0 0 0 0 0
          0 0 0 0 0 0
          0 0 0 0 0 0
          0 0 0 0 0 0
          0 0 0 0 0 0
          0 0 0 0 0 0
          0 0 0 0 0 0
          0 0 0 0 0 0
          0 0 0 0 0 0
          0 0 0 0 0 0
          0 0 0 0 0 0
          0 0 0 0 0 0
          0 0 0 0 0 0
          0 0 0 0 0 0
          0 0 0 0 0 0
          0 0 0 0 0 0
          0 0 0 0 0 0
          0 0 0 0 0 0
          0 0 0 0 0 0
          0 0 0 0 0 0
          0 0 0 0 0 0
          0 0 0 0 0 0
          0 0 0 0 0 0
          0 0 0 0 0 0
          0 0 0 0 0 0
          0 0 0 0 0 0
          0 0 0 0 0 0
          0 0 0 0 0 0
          0 0 0 0 0 0
          0 0 0 0 0 0
          0 0 0 0 0 0
          0 0 0 0 0 0
          0 0 0 0 0 0
          0 0 0 0 0 0
          0 0 0 0 0 0
          0 0 0 0 0 0
          0 0 0 0 0 0
          0 0 0 0 0 0
          0 0 0 0 0 0
          0 0 0 0 0 0
          0 0 0 0 0 0
          0 0 0 0 0 0
          0 0 0 0 0 0
          0 0 0 0 0 0
          0 0 0 0 0 0
          0 0 0 0 0 0
          0 0 0 0 0 0
          0 0 0 0 0 0
          0 0 0 0 0 0
          0 0 0 0 0 0
          0 0 0 0 0 0
          0 0 0 0 0 0
          0 0 0 0 0 0
          0 0 0 0 0 0
          0 0 0 0 0 0
          0 0 0 0 0 0
          0 0 0 0 0 0
          0 0 0 0 0 0
          0 0 0 0 0 0
          0 0 0 0 0 0
          0 0 0 0 0 0
          0 0 0 0 0 0
          0 0 0 0 0 0
          0 0 0 0 0 0
          0 0 0 0 0 0
          0 0 0 0 0 0
          0 0 0 0 0 0
          0 0 0 0 0 0
          0 0 0 0 0 0
          0 0 0 0 0 0
          0 0 0 0 0 0
          0 0 0 0 0 0
          0 0 0 0 0 0
          0 0 0 0 0 0
          0 0 0 0 0 0
          0 0 0 0 0 0
          0 0 0 0 0 0
          0 0 0 0 0 0
          0 0 0 0 0 0
          0 0 0 0 0 0
          0 0 0 0 0 0
          0 0 0 0 0 0
          0 0 0 0 0 0
          0 0 0 0 0 0
          0 0 0 0 0 0
          0 0 0 0 0 0
          0 0 0 0 0 0
          0 0 0 0 0 0
          0 0 0 0 0 0
          0 0 0 0 0 0
          0 0 0 0 0 0
          0 0 0 0 0 0
          0 0 0 0 0 0
          0 0 0 0 0 0
          0 0 0 0 0 0
          0 0 0 0 0 0
          0 0 0 0 0 0
          0 0 0 0 0 0
          0 0 0 0 0 0
          0 0 0 0 0 0
          0 0 0 0 0 0
          0 0 0 0 0 0
          0 0 0 0 0 0
          0 0 0 0 0 0
          0 0 0 0 0 0
          0 0 0 0 0 0
          0 0 0 0 0 0
          0 0 0 0 0 0
          0 0 0 0 0 0
          0 0 0 0 0 0
          0 0 0 0 0 0
          0 0 0 0 0 0
          0 0 0 0 0 0
          0 0 0 0 0 0
          0 0 0 0 0 0
          0 0 0 0 0 0
          0 0 0 0 0 0
          0 0 0 0 0 0
          0 0 0 0 0 0
          0 0 0 0 0 0
          0 0 0 0 0 0
          0 0 0 0 0 0
          0 0 0 0 0 0
          0 0 0 0 0 0
          0 0 0 0 0 0
          0 0 0 0 0 0
          0 0 0 0 0 0
          0 0 0 0 0 0
          0 0 0 0 0 0
          0 0 0 0 0 0
          0 0 0 0 0 0
          0 0 0 0 0 0
          0 0 0 0 0 0
          0 0 0 0 0 0
          0 0 0 0 0 0
          0 0 0 0 0 0
          0 0 0 0 0 0
          0 0 0 0 0 0
          0 0 0 0 0 0
          0 0 0 0 0 0
          0 0 0 0 0 0
          0 0 0 0 0 0
          0 0 0 0 0 0
          0 0 0 0 0 0
          0 0 0 0 0 0
          0 0 0 0 0 0
          0 0 0 0 0 0
          0 0 0 0 0 0
          0 0 0 0 0 0
          0 0 0 0 0 0
          0 0 0 0 0 0
          0 0 0 0 0 0
          <InformationKey name="L2_NORM_RANGE" location="vtkDataArray" length="2">
            <Value index="0">
              0
            </Value>
            <Value index="1">
              1
            </Value>
          </InformationKey>
        </DataArray>
        <DataArray type="Float64" Name="nsi_FIXNO" NumberOfComponents="3" format="ascii" RangeMin="1.4142135623730951" RangeMax="1.4142135623730951">
          1 1 0 -1 -1 0
          -1 -1 0 -1 -1 0
          1 1 0 1 1 0
          -1 -1 0 -1 -1 0
          -1 -1 0 -1 -1 0
          -1 -1 0 -1 -1 0
          -1 -1 0 -1 -1 0
          -1 -1 0 1 1 0
          -1 -1 0 -1 -1 0
          -1 -1 0 -1 -1 0
          -1 -1 0 -1 -1 0
          -1 -1 0 -1 -1 0
          -1 -1 0 -1 -1 0
          -1 -1 0 -1 -1 0
          -1 -1 0 -1 -1 0
          -1 -1 0 -1 -1 0
          1 1 0 -1 -1 0
          -1 -1 0 -1 -1 0
          1 1 0 -1 -1 0
          -1 -1 0 -1 -1 0
          -1 -1 0 -1 -1 0
          1 1 0 -1 -1 0
          -1 -1 0 -1 -1 0
          -1 -1 0 -1 -1 0
          -1 -1 0 -1 -1 0
          -1 -1 0 -1 -1 0
          -1 -1 0 -1 -1 0
          -1 -1 0 -1 -1 0
          -1 -1 0 -1 -1 0
          -1 -1 0 -1 -1 0
          1 1 0 -1 -1 0
          -1 -1 0 -1 -1 0
          -1 -1 0 -1 -1 0
          -1 -1 0 -1 -1 0
          -1 -1 0 1 1 0
          -1 -1 0 -1 -1 0
          -1 -1 0 -1 -1 0
          -1 -1 0 -1 -1 0
          -1 -1 0 -1 -1 0
          -1 -1 0 -1 -1 0
          -1 -1 0 -1 -1 0
          -1 -1 0 -1 -1 0
          -1 -1 0 -1 -1 0
          -1 -1 0 -1 -1 0
          1 1 0 -1 -1 0
          -1 -1 0 -1 -1 0
          -1 -1 0 -1 -1 0
          -1 -1 0 -1 -1 0
          -1 -1 0 -1 -1 0
          -1 -1 0 -1 -1 0
          -1 -1 0 -1 -1 0
          -1 -1 0 -1 -1 0
          -1 -1 0 -1 -1 0
          -1 -1 0 -1 -1 0
          -1 -1 0 -1 -1 0
          -1 -1 0 -1 -1 0
          -1 -1 0 -1 -1 0
          -1 -1 0 -1 -1 0
          -1 -1 0 -1 -1 0
          -1 -1 0 -1 -1 0
          -1 -1 0 1 1 0
          -1 -1 0 -1 -1 0
          -1 -1 0 -1 -1 0
          -1 -1 0 -1 -1 0
          -1 -1 0 -1 -1 0
          -1 -1 0 -1 -1 0
          -1 -1 0 -1 -1 0
          -1 -1 0 -1 -1 0
          -1 -1 0 -1 -1 0
          -1 -1 0 -1 -1 0
          -1 -1 0 -1 -1 0
          -1 -1 0 -1 -1 0
          -1 -1 0 -1 -1 0
          -1 -1 0 -1 -1 0
          1 1 0 -1 -1 0
          -1 -1 0 -1 -1 0
          -1 -1 0 -1 -1 0
          -1 -1 0 -1 -1 0
          -1 -1 0 -1 -1 0
          -1 -1 0 1 1 0
          -1 -1 0 -1 -1 0
          1 1 0 -1 -1 0
          1 1 0 -1 -1 0
          -1 -1 0 -1 -1 0
          -1 -1 0 1 1 0
          -1 -1 0 -1 -1 0
          -1 -1 0 -1 -1 0
          1 1 0 -1 -1 0
          1 1 0 -1 -1 0
          -1 -1 0 -1 -1 0
          -1 -1 0 -1 -1 0
          -1 -1 0 -1 -1 0
          1 1 0 -1 -1 0
          -1 -1 0 1 1 0
          1 1 0 -1 -1 0
          -1 -1 0 -1 -1 0
          -1 -1 0 -1 -1 0
          -1 -1 0 1 1 0
          -1 -1 0 -1 -1 0
          -1 -1 0 -1 -1 0
          -1 -1 0 -1 -1 0
          1 1 0 1 1 0
          -1 -1 0 1 1 0
          -1 -1 0 -1 -1 0
          -1 -1 0 -1 -1 0
          1 1 0 -1 -1 0
          -1 -1 0 -1 -1 0
          -1 -1 0 -1 -1 0
          1 1 0 -1 -1 0
          -1 -1 0 -1 -1 0
          1 1 0 -1 -1 0
          -1 -1 0 1 1 0
          1 1 0 -1 -1 0
          -1 -1 0 -1 -1 0
          -1 -1 0 -1 -1 0
          -1 -1 0 -1 -1 0
          -1 -1 0 1 1 0
          1 1 0 -1 -1 0
          1 1 0 1 1 0
          -1 -1 0 -1 -1 0
          1 1 0 -1 -1 0
          -1 -1 0 -1 -1 0
          -1 -1 0 1 1 0
          -1 -1 0 -1 -1 0
          -1 -1 0 1 1 0
          -1 -1 0 1 1 0
          -1 -1 0 -1 -1 0
          -1 -1 0 -1 -1 0
          -1 -1 0 -1 -1 0
          -1 -1 0 1 1 0
          1 1 0 -1 -1 0
          1 1 0 -1 -1 0
          1 1 0 -1 -1 0
          -1 -1 0 -1 -1 0
          1 1 0 -1 -1 0
          -1 -1 0 -1 -1 0
          -1 -1 0 -1 -1 0
          1 1 0 1 1 0
          -1 -1 0 -1 -1 0
          -1 -1 0 -1 -1 0
          -1 -1 0 -1 -1 0
          1 1 0 -1 -1 0
          -1 -1 0 -1 -1 0
          1 1 0 -1 -1 0
          1 1 0 1 1 0
          -1 -1 0 -1 -1 0
          -1 -1 0 -1 -1 0
          -1 -1 0 1 1 0
          1 1 0 -1 -1 0
          -1 -1 0 -1 -1 0
          -1 -1 0 1 1 0
          -1 -1 0 1 1 0
          -1 -1 0 -1 -1 0
          1 1 0 -1 -1 0
          -1 -1 0 1 1 0
          -1 -1 0 -1 -1 0
          1 1 0 -1 -1 0
          1 1 0 -1 -1 0
          -1 -1 0 1 1 0
          -1 -1 0 -1 -1 0
          -1 -1 0 -1 -1 0
          -1 -1 0 1 1 0
          -1 -1 0 -1 -1 0
          -1 -1 0 -1 -1 0
          -1 -1 0 -1 -1 0
          1 1 0 -1 -1 0
          -1 -1 0 -1 -1 0
          -1 -1 0 -1 -1 0
          -1 -1 0 1 1 0
          -1 -1 0 -1 -1 0
          -1 -1 0 -1 -1 0
          1 1 0 -1 -1 0
          -1 -1 0 -1 -1 0
          -1 -1 0 -1 -1 0
          -1 -1 0 1 1 0
          -1 -1 0 -1 -1 0
          -1 -1 0 -1 -1 0
          -1 -1 0 -1 -1 0
          1 1 0 -1 -1 0
          -1 -1 0 -1 -1 0
          -1 -1 0 -1 -1 0
          -1 -1 0 -1 -1 0
          -1 -1 0 -1 -1 0
          1 1 0 -1 -1 0
          -1 -1 0 -1 -1 0
          -1 -1 0 -1 -1 0
          -1 -1 0 -1 -1 0
          1 1 0 -1 -1 0
          -1 -1 0 -1 -1 0
          -1 -1 0 -1 -1 0
          -1 -1 0 -1 -1 0
          -1 -1 0 -1 -1 0
          1 1 0 -1 -1 0
          -1 -1 0 -1 -1 0
          -1 -1 0 -1 -1 0
          -1 -1 0 -1 -1 0
          -1 -1 0 -1 -1 0
          1 1 0 -1 -1 0
          -1 -1 0 -1 -1 0
          1 1 0 -1 -1 0
          -1 -1 0 -1 -1 0
          -1 -1 0 -1 -1 0
          -1 -1 0 -1 -1 0
          1 1 0 -1 -1 0
          -1 -1 0 -1 -1 0
          -1 -1 0 -1 -1 0
          -1 -1 0 -1 -1 0
          1 1 0 -1 -1 0
          -1 -1 0 1 1 0
          <InformationKey name="L2_NORM_RANGE" location="vtkDataArray" length="2">
            <Value index="0">
              1.4142135624
            </Value>
            <Value index="1">
              1.4142135624
            </Value>
          </InformationKey>
        </DataArray>
        <DataArray type="Float64" Name="Velocity" NumberOfComponents="3" format="ascii" RangeMin="0" RangeMax="1.363138494349907">
          0 0 0 0.33380939593726516 0.04230372472398344 0
          0.7129068593200485 0.14571633617491117 0 0.541520844320119 0.07166303570575429 0
          0 0 0 1 0 0
          0.6619853308058742 0.048783539744474774 0 0.4214504974062283 0.04140782078297318 0
          0.6156200042806205 0.05440779482027432 0 0.3867629604543297 0.0022428700675032956 0
          0.5996490818751881 0.012143394330294918 0 0.5807551133401341 0.04261224584949456 0
          0.6837191820238504 -0.11961893487333591 0 0.6119245394687222 0.032771607289443096 0
          0.6143227479114785 0.05167854357959578 0 0 0 0
          0.5845122975816411 0.016920917179067362 0 0.6122039795721778 0.05750996397321295 0
          0.6045195955519721 -0.032458112945514754 0 0.5854850780188378 0.026079335251709145 0
          0.6364659802541767 0.05148980053570158 0 0.5886528717377659 0.05322284395009945 0
          0.4983936341286208 0.038387308087223626 0 0.3461768445200695 -0.042063179183391274 0
          0.628286790407055 0.08553752283365783 0 0.6667070164894632 0.06845568526020687 0
          0.6751966072247446 0.1018677544659507 0 0.5941909092517722 0.0854330864614539 0
          0.39222686607408813 0.005439690693839674 0 0.5450842553016289 0.03904091374800578 0
          0.48103970519512174 -0.017507899986596093 0 0.6555377175225945 0.08013566848183841 0
          0 0 0 0.5544296923449403 0.07032187693159128 0
          0.6090336430551038 0.1357156496747087 0 0.7220423410693165 0.12903914036306302 0
          0 0 0 0.688000948652638 0.16164854965410752 0
          0.558997477470355 0.1231742152976365 0 0.3986279517747067 0.011012584753269675 0
          0.6414316041434164 0.07412330956302433 0 0.2534653362344989 0.011391289714374624 0
          0 0 0 0.48861041513507686 0.04308142725318193 0
          0.7582413724281459 0.15334994293240584 0 0.6387950101729005 0.1913734528171311 0
          0.7498907021266323 0.20375221281470238 0 0.5728118744169123 0.18546483971051128 0
          0.49957103016530746 0.09084325480562479 0 0.703136068361177 0.23868712424632313 0
          0.38766700115506825 0.021028908024198902 0 0.524240061754174 0.016267859132281813 0
          0.8129249811130256 0.1227749350003444 0 0.8165905492272452 0.22655503034765273 0
          0.503095672937892 0.15806492262707836 0 0.5891124080737568 0.2609818317466728 0
          0.7705755159007016 0.2883518205740664 0 0.4163817434623144 0.05004704425415482 0
          0.6961570036723107 0.32259787449390515 0 0.5189153104940344 0.2385760699855717 0
          0 0 0 0.8601813156579025 0.30773504078830133 0
          0.6161367041151257 0.3428018463893259 0 0.2560995377752251 0.013354514325944332 0
          0.9503548878760678 0.18825870994027752 0 0.4144222800747215 0.09917665588869984 0
          0.4402751424363513 0.19335521155758578 0 0.7785972713352775 0.37602839536423543 0
          0.523733752085383 0.31980544774014874 0 0 0 0
          0.7887652909074634 0.07673083520455473 0 0.43802274246412165 0.2717045513327507 0
          0.6630510196653819 0.4351017800221016 0 0.978491795623326 0.3039723624883134 0
          0.879662811997553 0.414342580390986 0 0.3668018988125725 0.14030510498428367 0
          0.3018750237594475 0.040580143478594635 0 0.514518182234176 0.41320997704508433 0
          0.7761732860377034 0.4831448882573793 0 1.058008902467331 0.23709875605075031 0
          0.4330807712719559 0.3570646912253643 0 0.668916942169238 0.505351821945694 0
          0.3563426288722025 0.21035699351492126 0 0.31895779716155426 0.0792017063950891 0
          1.0142090977775116 0.15684401068462664 0 0.563178856371756 0.5077151729210185 0
          0.901481442948607 0.49884365242763934 0 0.3414940704342971 0.29006801610535804 0
          0 0 0 0.8592131153989632 0.07171400622014522 0
          1.1176051743513618 0.33407095198188275 0 0.7495129605631444 0.569253424645789 0
          0.41660150931873896 0.4592554011946639 0 0.6137189872660967 0.5811645432397042 0
          1.1599789408727426 0.22797146596127815 0 0.2868768026546466 0.14778874349922014 0
          0.3106866105366411 0.35614429055998237 0 0.19627909987433273 0.023736375718896602 0
          0.27429841928225157 0.22574372491750652 0 0.4947269734270039 0.006275969828462175 0
          0.9145587375205496 0.5717999190896054 0 0.40884766923294724 0.5367671859266872 0
          1.104611568034545 0.4455291955408017 0 0.25869362189320966 0.3023833241743399 0
          0.6904210839696191 0.6284899531139838 0 0.2783138442994304 0.4148086314986068 0
          1.1265800322814994 0.10768642999167288 0 1.23061420633251 0.2854734932612174 0
          0.2186407827676779 0.06104299096597113 0 0.5188663681966103 0.6206907919093048 0
          0.8222822367169504 0.6122712019812198 0 0.21135068696030718 0.3426322612740216 0
          0.3250239115881641 0.5337012374974328 0 1.0890156178348105 0.4888198942744762 0
          0.9249545947289445 0.01100755445337794 0 0.20386239153331132 0.10010391195217157 0
          0.5750369240636748 0.6263755548953883 0 0.22030991908220537 0.43309123114883735 0
          1.246951590937618 0.331881868844754 0 1.2769438419606411 0.15487399657074208 0
          0.1852956658825335 0.1770050094665045 0 0 0 0
          0.17366397651463253 0.2657125430574643 0 0.3345918559152973 0.5632461430162616 0
          1.2990413053194172 0.22271622229269758 0 0.1743400581188451 0.36578060630172454 0
          0.10585413678120331 0.013735336810200557 0 0.6983680174731545 0.5657099495878433 0
          0.15917805835531118 0.4129468112793954 0 1.0373017966778144 0.44473640311780777 0
          0.38802553937401346 0.5301045124179422 0 0.1229870572795144 0.2817921986848444 0
          1.2105702913909608 0.33421749793700856 0 0.14364626044635784 0.047584299702467144 0
          0.13452505283819347 0.19558500575650933 0 1.1962669931288834 0.03243803634421096 0
          1.3052722498230716 0.22895588792388868 0 0.16933547778957256 0.41667201537475423 0
          0.09183827201409551 0.27536412339225247 0 1.3510843702877458 0.11332465508051057 0
          0.470913233472539 0.4082282631481796 0 0.1218707161938927 0.15223755254593713 0
          0.07672633291401681 0.30905116303899294 0 0.12902866883168354 0.07087813935188741 0
          0.8350862528773221 0.33572486343512525 0 0.09766953604680606 0.20525795868007593 0
          0.07236966473978297 0.28657007460111666 0 0.07623654255571265 0.27851681821623386 0
          0 0 0 0.09045912436124882 0.2605883052077717 0
          1.0660857468447194 0.25844491439746875 0 1.3222527522421865 0.04309771407830091 0
          1.240234809476899 0.19337649943264992 0 0.04350951376262418 0.1971139839349746 0
          0.10243124093709169 0.10035205918985021 0 0.056193901546586794 0.19598218932502817 0
          0.9210325952221781 0.001154502751963193 0 0.03422317732138134 0.2041915367091077 0
          0.022919531580614463 0.1625121993745026 0 0 0 0
          0.07793873868894909 0.15071334874750633 0 0.44819634110614426 0.07569790067195575 0
          0 0 0 0.7831597677928548 0.11336759790461645 0
          0 0 0 0.01885553958048648 0.13093994077759244 0
          0.03389966016672978 0.17050241897838853 0 0.08220790368233928 0.023728221418863757 0
          1.3394463639173175 0.028200331152684523 0 0 0 0
          0.012225063257528347 0.1053401734927151 0 0.07000624040317976 0.10805313999031209 0
          1.013739857143095 0.05801322808747861 0 0.043633320148170895 0.13974432679071006 0
          0 0 0 0.02264465072818057 0.13152701385334026 0
          0 0 0 1.362840387546606 -0.028506715881496482 0
          0.40161627258313615 0.02728698061876071 0 0.007468041117516069 0.09078366410211518 0
          1.1951249192093165 -0.008543325908021404 0 0.023027730334085117 0.12222077496769039 0
          0.757265098428994 0.02968893225369187 0 0.07062185845511243 0.04317147574594423 0
          0 0 0 0.008429060598540514 0.07612156991434854 0
          1.3163069422967248 -0.05448811749297474 0 0 0 0
          0 0 0 0.018604586142426948 0.09340750605573528 0
          0.054337893491911676 0.056661359919627396 0 0.006011029049703769 0.06529254723059191 0
          0.03211732725240851 0.0896765851545917 0 0.3869289112342546 -0.005511072421555801 0
          0.01851557971704632 0.08563440082887452 0 0 0 0
          1.1810913633797742 -0.05748735217481389 0 0.7520973746904804 -0.04578147322234311 0
          1.039426301754152 -0.10015910428084582 0 0.006006807827710879 0.054754036994560634 0
          1.2120433013596374 -0.15336950215423883 0 0.042814632264562204 0.012427575861709917 0
          0 0 0 0 0 0
          0.03050203268920538 0.05915524020594596 0 0 0 0
          1.3064086046793413 -0.16900478863491464 0 0.013905007376866682 0.062480100314265895 0
          0.005229440409565912 0.04565540908104961 0 0.40111972739238 -0.040683863730629814 0
          0 0 0 1.3209344086583763 -0.16419676532781716 0
          0.014045088673597668 0.052400407433435395 0 0.780219300629848 -0.18438523096833012 0
          0.033046743770476644 0.024234058396121725 0 0.004708748370458285 0.037002258529205925 0
          0 0 0 1.021943934598212 -0.25012626685069567 0
          0.01134593309015365 0.04407515759893886 0 1.2695402451315985 -0.1444051427513164 0
          0 0 0 0.004574265458624763 0.029868066314564554 0
          1.1739970033167382 -0.2754490579763841 0 0 0 0
          0 0 0 0.4719274839912969 -0.25462222923705435 0
          0.018232782200319403 0.026856094326335272 0 0.011494950956230864 0.0325759678202467 0
          0.9201228625529613 -0.05410003128092413 0 0.003304223319110581 0.022990095504156507 0
          1.2542451860098756 -0.26601244059134516 0 1.131839211139918 -0.10405374743939086 0
          0.018738969330636835 0.006054949305051217 0 0 0 0
          0 0 0 0.7693192532751416 -0.3512268019116319 0
          0 0 0 0 0 0
          0.002534269345687296 0.017722499943054647 0 0.06049773781515256 -0.1554138593327721 0
          0 0 0 0.008114500184558438 0.02087156248796867 0
          1.2670027342779766 -0.24032410179276242 0 0.9723825901056994 -0.38339357684917835 0
          0.013183966797976326 0.009915825276751488 0 0 0 0
          0.03321532642963931 -0.10495794165320424 0 0.0028237567094658495 0.012517819012012018 0
          0.007430487398779394 0.014293305346205295 0 0 0 0
          0.019006659778279807 -0.07253685727073059 0 0 0 0
          0.3741162599386633 -0.35755587516332044 0 1.2069161814658669 -0.18995228100191616 0
          0.005163915775616081 0.009203359782928723 0 1.0735715649189561 -0.40011192108971533 0
          0.008942537871373833 -0.04975803464861739 0 0.007151696043534195 0.002622586347328435 0
          0.0025573761684437838 0.008474782836685237 0 0 0 0
          0 0 0 0.12529620378308742 -0.2457857261789002 0
          0 0 0 0.0037523354063231087 -0.04092270708213975 0
          0 0 0 1.1669573481354767 -0.3493180757147191 0
          0.08097772983767829 -0.18811867508456276 0 0.0048092793404797525 0.0044551432252979885 0
          0 0 0 0.0016109176194808498 0.0048577529544708425 0
          0.258118365918738 -0.007301366924379854 0 0.6093048223966577 -0.45031054334202913 0
          0.003473469470595224 -0.03389774767446639 0 1.080934750045733 -0.14365588715609998 0
          0 0 0 0 0 0
          0.0034225727463204503 -0.029030837075369863 0 0.0013216760845909503 0.0025174902835800694 0
          0.3406423396166786 -0.39165686478191236 0 0.023612667917264286 -0.1177528197879565 0
          0.06674580265058247 -0.18094534713952312 0 0.8144483962472622 -0.4730399448921224 0
          0 0 0 1.1776850774136738 -0.2800087634912245 0
          0.16570494556970208 -0.29058811355371583 0 0.002453709346734396 -0.0237586862233469 0
          0 0 0 0.018304779670601762 -0.09569266995020378 0
          0 0 0 0 0 0
          0.011484586374538704 -0.06883004851727045 0 0.0006542691926440362 0.00024703425972337283 0
          0.0018572764564242724 -0.01983749606132282 0 0.0121581710668435 -0.05931387864964304 0
          0.7780796620833641 -0.08828840923312642 0 0 0 0
          0 0 0 0.5290320589276303 -0.4659078814976684 0
          0.0023789743409180944 -0.015672744649775746 0 0.9224189375516573 -0.4448230143974589 0
          1.1221786040811363 -0.22021849654609166 0 0 0 0
          0.051786928102708955 -0.16661013029000787 0 0 0 0
          0.3467788130477705 -0.4102257133831144 0 0.00934523031428347 -0.05342006449728887 0
          0 0 0 0.0021538035004295937 -0.012297420656601566 0
          0.030249665324798714 -0.10734851978857428 0 0 0 0
          0.009911616691392962 -0.04301011851295286 0 0.18910942964686486 -0.3092136040291559 0
          0 0 0 0.0014284945294264165 -0.00933459829821685 0
          0 0 0 0.007319370919319914 -0.030965095075605895 0
          0.6709549695180833 -0.4737121034444912 0 0 0 0
          0.0010982517359435344 -0.007023124389742486 0 0.006439626177457453 -0.024582946683337013 0
          1.0156264677312108 -0.14709666072986638 0 0.4958636354274876 -0.4488168806679354 0
          0.027885453957332874 -0.08145606514975537 0 0 0 0
          0.001604151973190697 -0.0044390943857193265 0 1.0744868997850516 -0.2996131224459833 0
          0.08402750824556518 -0.1842251845153264 0 0.005277869476084666 -0.021418305970514678 0
          0.9492282223315633 -0.4058516984487948 0 0.33215944488716687 -0.38754953661482605 0
          0 0 0 0.0011462757569965052 -0.0021412487788307344 0
          0.017670589179936004 -0.05141891606235583 0 0.17613249996939903 -0.2812091974946321 0
          0.005951261725435142 -0.015352775948976775 0 0.06858071005166476 -0.1439832994428457 0
          0.7716781633862932 -0.44431280484485 0 0 0 0
          0.000590765052810574 -0.0006291733047820031 0 0.005047647500955272 -0.009033467224566707 0
          0.6150937459956862 -0.4320806170118514 0 0.7022554527695885 -0.06718022321220325 0
          0 0 0 0.00046120231728200516 0.00030400339712363395 0
          0.016136280761876575 -0.03145663257576763 0 0.0035180284384041765 -0.005801256084170302 0
          0.05005015241204352 -0.09568076950080184 0 0.46736239864570045 -0.40119290686603243 0
          0.128368859353172 -0.20867424575436205 0 0 0 0
          0.000011408434882970108 0.0006940743334542332 0 0.967098321329865 -0.33592335805966256 0
          0.002404836015826405 -0.0027197154992088138 0 0.01317687980608983 -0.01890897149072045 0
          0.3339243975983604 -0.3446974623272274 0 1.010912032688545 -0.2560740281729444 0
          0 0 0 0.8474140524804794 -0.37283354591513995 0
          0.0013307993612966535 -0.0011929767478645813 0 -0.00019044657388457225 0.00044485245805311993 0
          0.10870538428838754 -0.14967182990989486 0 0.008295708488191928 -0.010107098031828155 0
          0.21340256655141482 -0.2563913268122987 0 0.00012678977610378273 -0.00014198390362660525 0
          0.632902984048549 -0.3833216616009139 0 0.05032319552010392 -0.07363014213006717 0
          0 0 0 0.9516370023620042 -0.17787313892045098 0
          0.3353651819152267 -0.022224532571695595 0 0.0029850900341580333 -0.0030413996077696182 0
          0.03444467137663684 -0.043396700140124866 0 0.02221660095036844 -0.024370946684837906 0
          0.1783770098216208 -0.19523214398697863 0 0.44044665790400034 -0.3309053617152948 0
          0 0 0 0.0004304906958000698 -0.0003365109978597383 0
          0.8934807147967286 -0.26919986592753026 0 0.09256928436152566 -0.1079251324217788 0
          0.011763363440087752 -0.009706163411998288 0 0.06360732995861262 -0.06391687672136523 0
          0.7216746414737527 -0.30297414017279156 0 0.2736714445354035 -0.23396391428015587 0
          0.56498077614854 -0.08880175691311581 0 0.04313852925927121 -0.034975038653882774 0
          0 0 0 0.003940180327385093 -0.0021999246273200954 0
          0.5371016748621706 -0.28361419644900754 0 0.9458289965958017 -0.18711524821827283 0
          0.16010511024853832 -0.1302005635852011 0 0.3883620479699637 -0.24399762527241275 0
          0.10789035437120509 -0.08126411193849152 0 0.07378374196961072 -0.044709301927276554 0
          0.012970831995887024 -0.00391791146335292 0 0.823719511615347 -0.22963550200957852 0
          0 0 0 0.042271088627750725 -0.02038804584716373 0
          0.6543019198206995 -0.24587898313863224 0 0.48479023048550496 -0.22746030022777874 0
          0 0 0 0.2485021788835166 -0.14254188186977687 0
          0.16460496178196285 -0.09038035730865929 0 0.977338840987344 -0.10282335127057758 0
          0.11690600382444634 -0.05140309088524693 0 0.02182251938345857 -0.00785705822286653 0
          0.06935255941971367 -0.024171037538490644 0 0.35680718701102376 -0.17336169525600711 0
          0 0 0 0.8308163078320372 -0.2665067692053747 0
          0.033815345923406036 -0.003298781577830408 0 0.2353081878175023 -0.11031910627784224 0
          0.16271609488684338 -0.05487671967069108 0 0.5382953957325016 -0.26641738761129574 0
          0.06941893827355575 -0.012057212656691917 0 0.3379866778875732 -0.1852119779073005 0
          0 0 0 0.13111607194266164 -0.026545650268095595 0
          0.21793739289576727 -0.08589995223062402 0 0 0 0
          <InformationKey name="L2_NORM_RANGE" location="vtkDataArray" length="2">
            <Value index="0">
              0
            </Value>
            <Value index="1">
              1.3631384943
            </Value>
          </InformationKey>
        </DataArray>
        <DataArray type="Float64" Name="Pressure" format="ascii" RangeMin="-9.22588296168737" RangeMax="56.8940719428805">
          56.60660834071232 55.204564657592165 55.97598782813443 54.040814158027565 53.17631984601125 56.8940719428805
          53.69721390518098 51.71544473339589 51.41861540549711 49.32621466068057 53.91757208612137 48.78217883030502
          56.19785397235414 51.03356806971065 48.690140322178124 46.67658859412657 46.58152477095522 48.80125056440851
          53.933683977967014 51.39943681192211 46.32523120854542 49.05638769177501 44.1212409320411 55.53340629343919
          46.412590940209846 43.89947076659193 44.12009412252789 46.94568981909135 42.19954492521106 49.171149565077755
          51.561837153749295 41.29574231966942 56.68073450822842 47.23795743638492 45.012968416022886 41.87016257537242
          39.98852359404518 42.43414550164416 45.57447673952794 49.42973791775102 38.90289598496059 50.7705969218301
          54.242608329258374 47.361237638144495 39.36103864738917 43.13526428995928 40.179627942729 44.008725873795
          45.9642748955121 40.947674060039134 47.47792121054206 35.67340391620702 36.52506243889248 37.754918089500734
          44.75473252885479 42.60793518070384 38.846999594847404 46.08177318477603 39.89284504575767 43.49586678608757
          48.08992669880214 36.33443836714741 41.11868867745466 46.425907025952625 33.78804778414009 45.19410533990994