<?xml version="1.0"?>
<VTKFile type="UnstructuredGrid" version="0.1" byte_order="LittleEndian" header_type="UInt32" compressor="vtkZLibDataCompressor">
  <UnstructuredGrid>
    <Piece NumberOfPoints="418" NumberOfCells="757">
      <PointData>
        <DataArray type="Float64" Name="nsi_BC" NumberOfComponents="3" format="ascii" RangeMin="0" RangeMax="1">
          0 0 0 0 0 0
          0 0 0 0 0 0
          0 0 0 1 0 0
          0 0 0 0 0 0
          0 0 0 0 0 0
          0 0 0 0 0 0
          0 0 0 0 0 0
          0 0 0 0 0 0
          0 0 0 0 0 0
          0 0 0 0 0 0
          0 0 0 0 0 0
          0 0 0 0 0 0
          0 0 0 0 0 0
          0 0 0 0 0 0
          0 0 0 0 0 0
          0 0 0 0 0 0
          0 0 0 0 0 0
          0 0 0 0 0 0
          0 0 0 0 0 0
          0 0 0 0 0 0
          0 0 0 0 0 0
          0 0 0 0 0 0
          0 0 0 0 0 0
          0 0 0 0 0 0
          0 0 0 0 0 0
          0 0 0 0 0 0
          0 0 0 0 0 0
          0 0 0 0 0 0
          0 0 0 0 0 0
          0 0 0 0 0 0
          0 0 0 0 0 0
          0 0 0 0 0 0
          0 0 0 0 0 0
          0 0 0 0 0 0
          0 0 0 0 0 0
          0 0 0 0 0 0
          0 0 0 0 0 0
          0 0 0 0 0 0
          0 0 0 0 0 0
          0 0 0 0 0 0
          0 0 0 0 0 0
          0 0 0 0 0 0
          0 0 0 0 0 0
          0 0 0 0 0 0
          0 0 0 0 0 0
          0 0 0 0 0 0
          0 0 0 0 0 0
          0 0 0 0 0 0
          0 0 0 0 0 0
          0 0 0 0 0 0
          0 0 0 0 0 0
          0 0 0 0 0 0
          0 0 0 0 0 0
          0 0 0 0 0 0
          0 0 0 0 0 0
          0 0 0 0 0 0
          0 0 0 0 0 0
          0 0 0 0 0 0
          0 0 0 0 0 0
          0 0 0 0 0 0
          0 0 0 0 0 0
          0 0 0 0 0 0
          0 0 0 0 0 0
          0 0 0 0 0 0
          0 0 0 0 0 0
          0 0 0 0 0 0
          0 0 0 0 0 0
          0 0 0 0 0 0
          0 0 0 0 0 0
          0 0 0 0 0 0
          0 0 0 0 0 0
          0 0 0 0 0 0
          0 0 0 0 0 0
          0 0 0 0 0 0
          0 0 0 0 0 0
          0 0 0 0 0 0
          0 0 0 0 0 0
          0 0 0 0 0 0
          0 0 0 0 0 0
          0 0 0 0 0 0
          0 0 0 0 0 0
          0 0 0 0 0 0
          0 0 0 0 0 0
          0 0 0 0 0 0
          0 0 0 0 0 0
          0 0 0 0 0 0
          0 0 0 0 0 0
          0 0 0 0 0 0
          0 0 0 0 0 0
          0 0 0 0 0 0
          0 0 0 0 0 0
          0 0 0 0 0 0
          0 0 0 0 0 0
          0 0 0 0 0 0
          0 0 0 0 0 0
          0 0 0 0 0 0
          0 0 0 0 0 0
          0 0 0 0 0 0
          0 0 0 0 0 0
          0 0 0 0 0 0
          0 0 0 0 0 0
          0 0 0 0 0 0
          0 0 0 0 0 0
          0 0 0 0 0 0
          0 0 0 0 0 0
          0 0 0 0 0 0
          0 0 0 0 0 0
          0 0 0 0 0 0
          0 0 0 0 0 0
          0 0 0 0 0 0
          0 0 0 0 0 0
          0 0 0 0 0 0
          0 0 0 0 0 0
          0 0 0 0 0 0
          0 0 0 0 0 0
          0 0 0 0 0 0
          0 0 0 0 0 0
          0 0 0 0 0 0
          0 0 0 0 0 0
          0 0 0 0 0 0
          0 0 0 0 0 0
          0 0 0 0 0 0
          0 0 0 0 0 0
          0 0 0 0 0 0
          0 0 0 0 0 0
          0 0 0 0 0 0
          0 0 0 0 0 0
          0 0 0 0 0 0
          0 0 0 0 0 0
          0 0 0 0 0 0
          0 0 0 0 0 0
          0 0 0 0 0 0
          0 0 0 0 0 0
          0 0 0 0 0 0
          0 0 0 0 0 0
          0 0 0 0 0 0
          0 0 0 0 0 0
          0 0 0 0 0 0
          0 0 0 0 0 0
          0 0 0 0 0 0
          0 0 0 0 0 0
          0 0 0 0 0 0
          0 0 0 0 0 0
          0 0 0 0 0 0
          0 0 0 0 0 0
          0 0 0 0 0 0
          0 0 0 0 0 0
          0 0 0 0 0 0
          0 0 0 0 0 0
          0 0 0 0 0 0
          0 0 0 0 0 0
          0 0 0 0 0 0
          0 0 0 0 0 0
          0 0 0 0 0 0
          0 0 0 0 0 0
          0 0 0 0 0 0
          0 0 0 0 0 0
          0 0 0 0 0 0
          0 0 0 0 0 0
          0 0 0 0 0 0
          0 0 0 0 0 0
          0 0 0 0 0 0
          0 0 0 0 0 0
          0 0 0 0 0 0
          0 0 0 0 0 0
          0 0 0 0 0 0
          0 0 0 0 0 0
          0 0 0 0 0 0
          0 0 0 0 0 0
          0 0 0 0 0 0
          0 0 0 0 0 0
          0 0 0 0 0 0
          0 0 0 0 0 0
          0 0 0 0 0 0
          0 0 0 0 0 0
          0 0 0 0 0 0
          0 0 0 0 0 0
          0 0 0 0 0 0
          0 0 0 0 0 0
          0 0 0 0 0 0
          0 0 0 0 0 0
          0 0 0 0 0 0
          0 0 0 0 0 0
          0 0 0 0 0 0
          0 0 0 0 0 0
          0 0 0 0 0 0
          0 0 0 0 0 0
          0 0 0 0 0 0
          0 0 0 0 0 0
          0 0 0 0 0 0
          0 0 0 0 0 0
          0 0 0 0 0 0
          0 0 0 0 0 0
          0 0 0 0 0 0
          0 0 0 0 0 0
          0 0 0 0 0 0
          0 0 0 0 0 0
          0 0 0 0 0 0
          0 0 0 0 0 0
          0 0 0 0 0 0
          0 0 0 0 0 0
          0 0 0 0 0 0
          0 0 0 0 0 0
          0 0 0 0 0 0
          0 0 0 0 0 0
          0 0 0 0 0 0
          0 0 0 0 0 0
          0 0 0 0 0 0
          0 0 0 0 0 0
          <InformationKey name="L2_NORM_RANGE" location="vtkDataArray" length="2">
            <Value index="0">
              0
            </Value>
            <Value index="1">
              1
            </Value>
          </InformationKey>
        </DataArray>
        <DataArray type="Float64" Name="nsi_FIXNO" NumberOfComponents="3" format="ascii" RangeMin="1.4142135623730951" RangeMax="1.4142135623730951">
          1 1 0 -1 -1 0
          -1 -1 0 -1 -1 0
          1 1 0 1 1 0
          -1 -1 0 -1 -1 0
          -1 -1 0 -1 -1 0
          -1 -1 0 -1 -1 0
          -1 -1 0 -1 -1 0
          -1 -1 0 1 1 0
          -1 -1 0 -1 -1 0
          -1 -1 0 -1 -1 0
          -1 -1 0 -1 -1 0
          -1 -1 0 -1 -1 0
          -1 -1 0 -1 -1 0
          -1 -1 0 -1 -1 0
          -1 -1 0 -1 -1 0
          -1 -1 0 -1 -1 0
          1 1 0 -1 -1 0
          -1 -1 0 -1 -1 0
          1 1 0 -1 -1 0
          -1 -1 0 -1 -1 0
          -1 -1 0 -1 -1 0
          1 1 0 -1 -1 0
          -1 -1 0 -1 -1 0
          -1 -1 0 -1 -1 0
          -1 -1 0 -1 -1 0
          -1 -1 0 -1 -1 0
          -1 -1 0 -1 -1 0
          -1 -1 0 -1 -1 0
          -1 -1 0 -1 -1 0
          -1 -1 0 -1 -1 0
          1 1 0 -1 -1 0
          -1 -1 0 -1 -1 0
          -1 -1 0 -1 -1 0
          -1 -1 0 -1 -1 0
          -1 -1 0 1 1 0
          -1 -1 0 -1 -1 0
          -1 -1 0 -1 -1 0
          -1 -1 0 -1 -1 0
          -1 -1 0 -1 -1 0
          -1 -1 0 -1 -1 0
          -1 -1 0 -1 -1 0
          -1 -1 0 -1 -1 0
          -1 -1 0 -1 -1 0
          -1 -1 0 -1 -1 0
          1 1 0 -1 -1 0
          -1 -1 0 -1 -1 0
          -1 -1 0 -1 -1 0
          -1 -1 0 -1 -1 0
          -1 -1 0 -1 -1 0
          -1 -1 0 -1 -1 0
          -1 -1 0 -1 -1 0
          -1 -1 0 -1 -1 0
          -1 -1 0 -1 -1 0
          -1 -1 0 -1 -1 0
          -1 -1 0 -1 -1 0
          -1 -1 0 -1 -1 0
          -1 -1 0 -1 -1 0
          -1 -1 0 -1 -1 0
          -1 -1 0 -1 -1 0
          -1 -1 0 -1 -1 0
          -1 -1 0 1 1 0
          -1 -1 0 -1 -1 0
          -1 -1 0 -1 -1 0
          -1 -1 0 -1 -1 0
          -1 -1 0 -1 -1 0
          -1 -1 0 -1 -1 0
          -1 -1 0 -1 -1 0
          -1 -1 0 -1 -1 0
          -1 -1 0 -1 -1 0
          -1 -1 0 -1 -1 0
          -1 -1 0 -1 -1 0
          -1 -1 0 -1 -1 0
          -1 -1 0 -1 -1 0
          -1 -1 0 -1 -1 0
          1 1 0 -1 -1 0
          -1 -1 0 -1 -1 0
          -1 -1 0 -1 -1 0
          -1 -1 0 -1 -1 0
          -1 -1 0 -1 -1 0
          -1 -1 0 1 1 0
          -1 -1 0 -1 -1 0
          1 1 0 -1 -1 0
          1 1 0 -1 -1 0
          -1 -1 0 -1 -1 0
          -1 -1 0 1 1 0
          -1 -1 0 -1 -1 0
          -1 -1 0 -1 -1 0
          1 1 0 -1 -1 0
          1 1 0 -1 -1 0
          -1 -1 0 -1 -1 0
          -1 -1 0 -1 -1 0
          -1 -1 0 -1 -1 0
          1 1 0 -1 -1 0
          -1 -1 0 1 1 0
          1 1 0 -1 -1 0
          -1 -1 0 -1 -1 0
          -1 -1 0 -1 -1 0
          -1 -1 0 1 1 0
          -1 -1 0 -1 -1 0
          -1 -1 0 -1 -1 0
          -1 -1 0 -1 -1 0
          1 1 0 1 1 0
          -1 -1 0 1 1 0
          -1 -1 0 -1 -1 0
          -1 -1 0 -1 -1 0
          1 1 0 -1 -1 0
          -1 -1 0 -1 -1 0
          -1 -1 0 -1 -1 0
          1 1 0 -1 -1 0
          -1 -1 0 -1 -1 0
          1 1 0 -1 -1 0
          -1 -1 0 1 1 0
          1 1 0 -1 -1 0
          -1 -1 0 -1 -1 0
          -1 -1 0 -1 -1 0
          -1 -1 0 -1 -1 0
          -1 -1 0 1 1 0
          1 1 0 -1 -1 0
          1 1 0 1 1 0
          -1 -1 0 -1 -1 0
          1 1 0 -1 -1 0
          -1 -1 0 -1 -1 0
          -1 -1 0 1 1 0
          -1 -1 0 -1 -1 0
          -1 -1 0 1 1 0
          -1 -1 0 1 1 0
          -1 -1 0 -1 -1 0
          -1 -1 0 -1 -1 0
          -1 -1 0 -1 -1 0
          -1 -1 0 1 1 0
          1 1 0 -1 -1 0
          1 1 0 -1 -1 0
          1 1 0 -1 -1 0
          -1 -1 0 -1 -1 0
          1 1 0 -1 -1 0
          -1 -1 0 -1 -1 0
          -1 -1 0 -1 -1 0
          1 1 0 1 1 0
          -1 -1 0 -1 -1 0
          -1 -1 0 -1 -1 0
          -1 -1 0 -1 -1 0
          1 1 0 -1 -1 0
          -1 -1 0 -1 -1 0
          1 1 0 -1 -1 0
          1 1 0 1 1 0
          -1 -1 0 -1 -1 0
          -1 -1 0 -1 -1 0
          -1 -1 0 1 1 0
          1 1 0 -1 -1 0
          -1 -1 0 -1 -1 0
          -1 -1 0 1 1 0
          -1 -1 0 1 1 0
          -1 -1 0 -1 -1 0
          1 1 0 -1 -1 0
          -1 -1 0 1 1 0
          -1 -1 0 -1 -1 0
          1 1 0 -1 -1 0
          1 1 0 -1 -1 0
          -1 -1 0 1 1 0
          -1 -1 0 -1 -1 0
          -1 -1 0 -1 -1 0
          -1 -1 0 1 1 0
          -1 -1 0 -1 -1 0
          -1 -1 0 -1 -1 0
          -1 -1 0 -1 -1 0
          1 1 0 -1 -1 0
          -1 -1 0 -1 -1 0
          -1 -1 0 -1 -1 0
          -1 -1 0 1 1 0
          -1 -1 0 -1 -1 0
          -1 -1 0 -1 -1 0
          1 1 0 -1 -1 0
          -1 -1 0 -1 -1 0
          -1 -1 0 -1 -1 0
          -1 -1 0 1 1 0
          -1 -1 0 -1 -1 0
          -1 -1 0 -1 -1 0
          -1 -1 0 -1 -1 0
          1 1 0 -1 -1 0
          -1 -1 0 -1 -1 0
          -1 -1 0 -1 -1 0
          -1 -1 0 -1 -1 0
          -1 -1 0 -1 -1 0
          1 1 0 -1 -1 0
          -1 -1 0 -1 -1 0
          -1 -1 0 -1 -1 0
          -1 -1 0 -1 -1 0
          1 1 0 -1 -1 0
          -1 -1 0 -1 -1 0
          -1 -1 0 -1 -1 0
          -1 -1 0 -1 -1 0
          -1 -1 0 -1 -1 0
          1 1 0 -1 -1 0
          -1 -1 0 -1 -1 0
          -1 -1 0 -1 -1 0
          -1 -1 0 -1 -1 0
          -1 -1 0 -1 -1 0
          1 1 0 -1 -1 0
          -1 -1 0 -1 -1 0
          1 1 0 -1 -1 0
          -1 -1 0 -1 -1 0
          -1 -1 0 -1 -1 0
          -1 -1 0 -1 -1 0
          1 1 0 -1 -1 0
          -1 -1 0 -1 -1 0
          -1 -1 0 -1 -1 0
          -1 -1 0 -1 -1 0
          1 1 0 -1 -1 0
          -1 -1 0 1 1 0
          <InformationKey name="L2_NORM_RANGE" location="vtkDataArray" length="2">
            <Value index="0">
              1.4142135624
            </Value>
            <Value index="1">
              1.4142135624
            </Value>
          </InformationKey>
        </DataArray>
        <DataArray type="Float64" Name="Velocity" NumberOfComponents="3" format="ascii" RangeMin="0" RangeMax="1.414955164214352">
          0 0 0 0.31853894219752565 0.024336247744927545 0
          0.7322450789673677 0.10039199013643928 0 0.5148639414400594 0.03666164480149246 0
          0 0 0 1 0 0
          0.7173916949612617 0.02641783906587464 0 0.3695143105070743 0.021652114139889465 0
          0.6436891293655947 0.03802155991833532 0 0.31150832001186995 0.004815938824979211 0
          0.6663755233005686 0.02884753130484998 0 0.5618548052704313 0.03266518750892149 0
          0.7022468585501783 -0.09765424544181063 0 0.7198308524110895 0.03324927807356663 0
          0.6860246894091229 0.04733083322097397 0 0 0 0
          0.5048990049325 0.02653832925534045 0 0.7274588122001377 0.06094348143073249 0
          0.6054181146122783 -0.00452978691960181 0 0.6492204286066844 0.04383782741217149 0
          0.6608793329528504 0.05741136134313025 0 0.6875867464145505 0.0643060502840765 0
          0.4231954059274943 0.03634449070987107 0 0.3487309392178383 -0.02846817486727425 0
          0.7341135972350402 0.09902485455047184 0 0.6422980562735797 0.0799548304799404 0
          0.7439117112113875 0.11911203177093205 0 0.7156975755337528 0.10101583322118621 0
          0.3200946460789244 0.012120105030520816 0 0.5697342979600538 0.05022553701685439 0
          0.44457006321535364 0.003861481693994367 0 0.6004370793056107 0.09027627225468998 0
          0 0 0 0.6204078972663508 0.0841751376675559 0
          0.7369467157064591 0.15794557465064515 0 0.7583917500978439 0.1552234711385688 0
          0 0 0 0.7801235889283225 0.19140295208648675 0
          0.6537479859924433 0.1394480146657431 0 0.3208845139891344 0.010419680548165899 0
          0.5640561365816609 0.08527066937944276 0 0.2003694903798824 0.005376679247192697 0
          0 0 0 0.4635280592151401 0.053597307102114744 0
          0.7657528627538567 0.18326730854656004 0 0.7593863528335626 0.2264411908442525 0
          0.8289437445705145 0.24635868250338702 0 0.6804623740589631 0.21026536006810412 0
          0.515158407646914 0.09785196467809568 0 0.8147457456430747 0.28445028987361326 0
          0.3055675543865699 0.0265561894242891 0 0.46013233938484077 0.024743988430660335 0
          0.7946486504866609 0.15345414652644088 0 0.8780632196575527 0.2759674254739897 0
          0.5543205659037882 0.16816244848251577 0 0.6937895640357036 0.2912513432858992 0
          0.8724767234806216 0.34277649534911536 0 0.3449575454116397 0.049695818533816556 0
          0.8015697031470393 0.37055615341917997 0 0.5905767669877859 0.25460259387834755 0
          0 0 0 0.9499152620550836 0.364017810610145 0
          0.708372032157693 0.37268147466033996 0 0.18239328635009844 0.011488951462951183 0
          0.9836904936664121 0.2374964210887643 0 0.3667923587659921 0.09361878552968692 0
          0.45545699611273166 0.19079525009989662 0 0.8758454124843436 0.4235208397483466 0
          0.5928586102616616 0.33243161451674136 0 0 0 0
          0.7471962292810255 0.10285403089651461 0 0.46811380236634204 0.26667509325340794 0
          0.7448650832049459 0.4625768703820861 0 1.054480684023603 0.3587578175224252 0
          0.9664550444587524 0.4624209230798235 0 0.3227639376667666 0.12563487050639852 0
          0.21016268000521762 0.036441971550755695 0 0.5679084928686065 0.4111848896027169 0
          0.8521535370268765 0.5118413191720825 0 1.116725937361694 0.28665489596744265 0
          0.4646209184765284 0.3410621233223773 0 0.7282846530872372 0.5125460059918472 0
          0.33868214524767043 0.18886727870382508 0 0.24026781936398472 0.06439839876115273 0
          1.0347808726591579 0.19349950642889271 0 0.6090884791872605 0.4940886963968334 0
          0.9625726495732428 0.5222202778146955 0 0.3403158749221492 0.2587939818676016 0
          0 0 0 0.8325417950554899 0.08455726489043963 0
          1.190930653128468 0.38263494343015864 0 0.7910336340322813 0.5628519293039996 0
          0.438684817669457 0.4196708414582707 0 0.6422145935351691 0.5522641461587616 0
          1.2244673263425785 0.2764309013401113 0 0.228853735222323 0.1191523127923212 0
          0.3123606223239783 0.3055524618187182 0 0.11946301565729048 0.016236845074034178 0
          0.24032080876084846 0.1828265336092808 0 0.4773487751958317 0.011008852762836072 0
          0.9336995080768158 0.5627078299146615 0 0.4223746389016172 0.4768841629422331 0
          1.1485630813292298 0.47204658657685455 0 0.24350175367725815 0.24489877061549045 0
          0.6972455873728294 0.58584184357681 0 0.2785196386015192 0.34547974664564 0
          1.1688833373932974 0.14240884229751632 0 1.2947063041819173 0.33127546199904123 0
          0.1371213805747503 0.04364363037960849 0 0.5220155696660945 0.556914961844522 0
          0.8063990207258315 0.5702843732343161 0 0.2008057301806011 0.2663827221718376 0
          0.3255905486091201 0.4538132043084359 0 1.0820295361905985 0.4852035930211021 0
          0.9178730645834063 0.029105964449211638 0 0.13280958380288357 0.07050625609316566 0
          0.5573013054776254 0.5568564358066493 0 0.21657293065374544 0.3462377862923505 0
          1.2710809647375476 0.358102107558183 0 1.348049713221212 0.19616085076554482 0
          0.13885926201882642 0.12261376287079362 0 0 0 0
          0.1510526110299062 0.19071726408055234 0 0.32684498989695177 0.4797719894129111 0
          1.356289069710999 0.25983668447883324 0 0.16721333489319984 0.2778374625853288 0
          0.057605345541144534 0.008105083687947332 0 0.6567891931130574 0.5066335792355551 0
          0.15552004208753192 0.32683322799951436 0 0.9883967469924054 0.42345401928213566 0
          0.3640942752526667 0.4549877655649956 0 0.10912125507051479 0.1947872370795168 0
          1.1810890590725174 0.34002692048163785 0 0.07620003464779891 0.030515637315129594 0
          0.10070472465601843 0.12777461528093872 0 1.250157918964636 0.05992787648348396 0
          1.3158591092253604 0.25618308682009205 0 0.1627094928887947 0.3421886673581119 0
          0.08353371821531613 0.1893065235669886 0 1.4026968722097397 0.15676395679735586 0
          0.4293532679947796 0.3579290677351082 0 0.08401707760892542 0.09332407110608779 0
          0.07391890767858639 0.23970014869112358 0 0.06859676839452263 0.043052862820622435 0
          0.766591169286968 0.30828863015237934 0 0.07680695858551409 0.1263212938026116 0
          0.06777675240160863 0.20468236266876036 0 0.0708935123355553 0.2062887626149805 0
          0 0 0 0.08467666028772598 0.21621919308022994 0
          0.9965252882923639 0.2548377844444026 0 1.4000858241791319 0.08349791002032325 0
          1.19582784234804 0.21243752154080384 0 0.04104625580211401 0.15413041789835344 0
          0.05725268601328061 0.055635937165483595 0 0.0464896700533456 0.11799091435201871 0
          0.9257080063153824 0.007851426497116345 0 0.03213715799921784 0.1359735228336581 0
          0.02162567890584453 0.12056166968840834 0 0 0 0
          0.05306430811100991 0.08334254788756901 0 0.4024590979767531 0.0707866026371701 0
          0 0 0 0.7078846376632497 0.11327902112979231 0
          0 0 0 0.01752687118105542 0.09122253903960216 0
          0.02894993202883532 0.10547915150257578 0 0.037431447273827426 0.01341083141567659 0
          1.3299339273822282 0.07349955295041274 0 0 0 0
          0.011051424530641505 0.06748406530804482 0 0.040100054354371625 0.05392106190083905 0
          0.9292010199997476 0.07729086855498211 0 0.03165632698054517 0.07289575938349033 0
          0 0 0 0.018412364893031944 0.07471415166178677 0
          0 0 0 1.4148644370083254 0.016023159051146048 0
          0.3550665027376905 0.02813867225488117 0 0.006599994236270596 0.05424798829955937 0
          1.1313753250192504 0.032633521529696896 0 0.01776858109859795 0.06512891270705896 0
          0.6750977695264974 0.04067014858961787 0 0.03034552418530332 0.021599846290979913 0
          0 0 0 0.006784221197725237 0.042052542089005863 0
          1.406662301636666 -0.021023667584830444 0 0 0 0
          0 0 0 0.013275587036177046 0.04502000623476538 0
          0.023657276294942856 0.024949604410624073 0 0.004780423194182604 0.03352349121093918 0
          0.018198036179027963 0.03848523264816437 0 0.33598157437513226 0.00042854658665121743 0
          0.012282727437411848 0.03816783680669601 0 0 0 0
          1.2549507133098305 -0.04111850085736901 0 0.6599828969428219 -0.021078279714623796 0
          0.941409715655704 -0.05122966887589268 0 0.004309189342751307 0.02561142728711175 0
          1.1538332973041496 -0.08759331140849047 0 0.01634072737661065 0.0055755016133005875 0
          0 0 0 0 0 0
          0.013869851941287929 0.02207302240365435 0 0 0 0
          1.3146476075730482 -0.10617416008890096 0 0.007855130141138958 0.024755012261788657 0
          0.003602894885721875 0.01930377653728492 0 0.34154944449696106 -0.025748760070119094 0
          0 0 0 1.3933057399625328 -0.11513082143007239 0
          0.007452779359355595 0.018979730903857704 0 0.6735919909856513 -0.11858943525639058 0
          0.010978908884120632 0.009463077854743656 0 0.0028164354816023417 0.013736589117919203 0
          0 0 0 0.9256840584080669 -0.1618225542836228 0
          0.0046490774707231685 0.014387668117628705 0 1.375594678700817 -0.11521795874819807 0
          0 0 0 0.0024417144604222925 0.009844531559195525 0
          1.1290807361832622 -0.187148702477771 0 0 0 0
          0 0 0 0.38892501390320605 -0.16609571114314356 0
          0.00587764321352105 0.007509188817810419 0 0.004579473633420311 0.009260363158079514 0
          0.9461296733825609 -0.04493100600272238 0 0.0014332809881925786 0.006390912140242603 0
          1.280069721840177 -0.1951370866410223 0 1.2124574177471128 -0.08914232644027892 0
          0.005832730558768197 0.0019570311539177996 0 0 0 0
          0 0 0 0.6682272208279101 -0.2293015320691564 0
          0 0 0 0 0 0
          0.0008477292167510506 0.00436722737220179 0 0.0456584121031928 -0.07161030921210441 0
          0 0 0 0.0025528409432982978 0.0050794020776906415 0
          1.357375599568209 -0.19563966102066258 0 0.8975392543615125 -0.2603095107616374 0
          0.003218195372676021 0.002443373178973353 0 0 0 0
          0.025716617871496907 -0.03110104722480705 0 0.0009876590059809019 0.002466257621529638 0
          0.0021549475294238805 0.0030048818977433957 0 0 0 0
          0.014760460814696428 -0.006146241491530233 0 0 0 0
          0.3076511666583008 -0.20294162998682738 0 1.3249941674411618 -0.1702838103963244 0
          0.0009555932984622085 0.001675273564237258 0 1.0563786043241505 -0.29111915329666965 0
          0.006167857605673495 0.010758083978660422 0 0.0018005362690376953 0.00042509237911295274 0
          0.0007269029824042864 0.001326821383573102 0 0 0 0
          0 0 0 0.10089262458215936 -0.10239667404891992 0
          0 0 0 0.002078842900986215 0.016212632084238947 0
          0 0 0 1.2266906260232373 -0.28200598641247465 0
          0.06357879544015262 -0.05369931539470945 0 0.0009458163410541157 0.0006707074775742589 0
          0 0 0 0.0003257285992491728 0.0004243280104983019 0
          0.25645880390993364 -0.007541842759516711 0 0.5361549951528074 -0.2739397208626323 0
          0.0012013503923386285 0.019360367980102353 0 1.165793528665744 -0.13901534390137193 0
          0 0 0 0 0 0
          0.0009414238085262743 0.020468555255722273 0 0.00018030268142638054 0.00011703808472070875 0
          0.288345557912801 -0.2034858846756121 0 0.016557319495048812 0.00031810928700262854 0
          0.05144969827795011 -0.032879007256803566 0 0.7695880294366135 -0.3167977209836971 0
          0 0 0 1.2925399704406053 -0.2537727839487188 0
          0.13770904788028104 -0.11234820105048458 0 7.560470362059223e-7 0.021456717576954915 0
          0 0 0 0.010017567533691728 0.014844878642729733 0
          0 0 0 0 0 0
          0.0042529266770415675 0.0237059083566566 0 0.0000954777866495537 -0.00015459628220898967 0
          -0.0006355297553381017 0.020853252677759487 0 0.0037099658973527533 0.02828672140706663 0
          0.7974315227242198 -0.08994734210058682 0 0 0 0
          0 0 0 0.47794991647619717 -0.273416397172957 0
          -0.000549065347051037 0.020004485771324923 0 0.9387156799277013 -0.3333080542433382 0
          1.2501354728268337 -0.22151206667635906 0 0 0 0
          0.03350115562086396 -0.0070196885316138125 0 0 0 0
          0.3045013625083985 -0.20671336765112613 0 -0.00030342550942075836 0.03276691198496534 0
          0 0 0 -0.0008958982173298788 0.018614827815089014 0
          0.012405683100178052 0.02530486009224688 0 0 0 0
          -0.0008511579101726426 0.03362966879714183 0 0.15699755965194603 -0.11095059587141314 0
          0 0 0 -0.0012038696060323781 0.016891406163941657 0
          0 0 0 -0.0020361962727565167 0.030257535327049237 0
          0.6569055549942614 -0.3166040933617239 0 0 0 0
          -0.0014785512185509278 0.014436280429771589 0 -0.0027368968398416554 0.02819177102678263 0
          1.0963608299934895 -0.16015812163825574 0 0.46587033177217396 -0.26614397786095706 0
          0.0028378610535341833 0.035671148204118396 0 0 0 0
          -0.001670403472683467 0.011803276665974954 0 1.2163737633918277 -0.2972408276076924 0
          0.049910331744303364 -0.01354983586936058 0 -0.004922131907838979 0.027077951102265456 0
          1.0437630426250963 -0.3545837034691798 0 0.2976062243810614 -0.19219031904192266 0
          0 0 0 -0.0014471508228247856 0.009300429413506568 0
          -0.004532562160172478 0.03722448102084524 0 0.1340431408849858 -0.08622588863619074 0
          -0.005403276605449331 0.02290980820834001 0 0.027391874428620667 0.00954405039384254 0
          0.8177142869445109 -0.3477957891630297 0 0 0 0
          -0.0013813159468304915 0.006792535987716602 0 -0.0047695074640742114 0.017489706963408957 0
          0.6251225899489016 -0.30430319235091924 0 0.7160210112598021 -0.08082360078696456 0
          0 0 0 -0.0013548882471265426 0.004466322373424704 0
          -0.01088800599173381 0.03004583387193325 0 -0.005140201122289497 0.014307771113717763 0
          0.00342626945777672 0.029184029215021935 0 0.4517979575358333 -0.24818504834419705 0
          0.07224095259499137 -0.0390065349526267 0 0 0 0
          -0.0011595340613301983 0.002353392092756302 0 1.1127676835240323 -0.3456444975459688 0
          -0.004816366324872727 0.010171744745358072 0 -0.011213900006409662 0.022899061339199982 0
          0.2955677178685676 -0.18021581410519383 0 1.161309901010495 -0.29021739682878633 0
          0 0 0 0.9582734297240927 -0.35099163043648707 0
          -0.00437819235760951 0.006657832588265479 0 -0.00046945508502943843 0.0005842747315464663 0
          0.04077316418053129 -0.006738651310096028 0 -0.010727602996050186 0.015621650289279598 0
          0.15105217966907697 -0.09840183273097355 0 -0.003186548703766554 0.0034650678176648964 0
          0.6737425819138823 -0.30656054599987453 0 -0.013335990979230489 0.02302984075478831 0
          0 0 0 1.024664524577006 -0.2031287165035081 0
          0.3235169925817409 -0.01753716460695963 0 -0.008242857988222822 0.00733929060390715 0
          -0.019273827519217242 0.02062157089577583 0 -0.017112499072538808 0.016974748770402632 0
          0.0975396070474383 -0.05740732424422477 0 0.4245469890249033 -0.23554325901831205 0
          0 0 0 -0.003714976494530786 0.001703734081865558 0
          1.050920533867545 -0.31384169007232476 0 -0.002422699864382903 -0.005553119505838208 0
          -0.016196524485295127 0.009225963309309285 0 -0.0207163294395829 0.008531803479168343 0
          0.82661668635348 -0.31619203258865214 0 0.19616976515377155 -0.13073218897884809 0
          0.5647990509428455 -0.07276768565492803 0 -0.023863050932537707 0.010584573823843011 0
          0 0 0 -0.009519350912629407 0.002656515719718616 0
          0.563842994777346 -0.2747959412017685 0 1.1020760832537244 -0.2615990900883951 0
          0.0414736185248195 -0.050934448301821963 0 0.3405585549759492 -0.20679796500490294 0
          -0.008550465935487623 -0.016007713779234517 0 -0.023120001050881654 -0.0013484188515008571 0
          -0.016751686355026205 0.0022522090609034926 0 0.9859834938832182 -0.3056862365730318 0
          0 0 0 -0.022697127023753882 0.0031282066731690597 0
          0.748654371997611 -0.3218601978480248 0 0.4824820995139076 -0.2703947788768092 0
          0 0 0 0.12425566378441609 -0.11639213060333353 0
          0.024557945807683966 -0.054715554775510024 0 0.9877763288974263 -0.09150652567003507 0
          -0.00862478976933738 -0.02472926193510376 0 -0.01652619393817978 0.0010828852808301695 0
          -0.01861230436313099 -0.007003371993226526 0 0.2695619560210965 -0.20935670301369286 0
          0 0 0 1.0034485604723407 -0.37336646242618743 0
          -0.013632027618839604 -0.0000433329613370105 0 0.09118213678313548 -0.12620875452140334 0
          0.02016045098062723 -0.05541958657843137 0 0.5610504766369334 -0.4108206228484847 0
          -0.0022170655107179413 -0.01642044662235754 0 0.23411387590020877 -0.2796146144438261 0
          0 0 0 0.02384655025977699 -0.03542823691200251 0
          0.0876039804087652 -0.10852449738967977 0 0 0 0
          <InformationKey name="L2_NORM_RANGE" location="vtkDataArray" length="2">
            <Value index="0">
              0
            </Value>
            <Value index="1">
              1.4149551642
            </Value>
          </InformationKey>
        </DataArray>
        <DataArray type="Float64" Name="Pressure" format="ascii" RangeMin="-8.309119322209833" RangeMax="36.932607948066966">
          36.272177511070126 36.43018740827384 36.756747480419385 36.20697214172903 36.024196326335435 36.798449587100734
          36.06978469436085 35.51751721474864 35.378012405007574 34.61364988233769 36.12094576625885 34.40088390601518
          36.932607948066966 35.32904775809507 34.41144909008369 33.61103986451188 33.45999491443435 34.522817560929276
          36.50726093189625 35.5632973078866 33.325773722152476 34.780245731848346 32.39714653187828 36.897679402505005
          33.523864981053904 32.23297470888175 32.351451793202436 33.95020943009776 31.472020034162618 34.94858959147491
          35.923083246093114 30.917364485903963 36.71792705716917 34.21937495006803 33.118146204106566 31.19951818269123
          30.392140983311503 31.61384694741737 33.57036579147627 35.2052808696336 29.543438056700303 35.61586927433
          36.73857347087808 34.38511193861229 29.705947668701896 32.184246263777744 30.197952941635716 32.85288020708859
          33.89492701318289 30.822656612979387 34.49984195020365 27.592242979505777 27.919073565586892 28.56512290219293
          33.452208542895406 32.12931988293658 29.404459183379284 34.02214325788763 30.283724715789116 32.83855006287185
          34.72990250163122 27.57883029092433 31.235748322822335 34.109362821514466 25.9110148036107 33.79714312914109