<?xml version="1.0"?>
<VTKFile type="UnstructuredGrid" version="0.1" byte_order="LittleEndian" header_type="UInt32" compressor="vtkZLibDataCompressor">
  <UnstructuredGrid>
    <Piece NumberOfPoints="418" NumberOfCells="757">
      <PointData>
        <DataArray type="Float64" Name="nsi_BC" NumberOfComponents="3" format="ascii" RangeMin="0" RangeMax="1">
          0 0 0 0 0 0
          0 0 0 0 0 0
          0 0 0 1 0 0
          0 0 0 0 0 0
          0 0 0 0 0 0
          0 0 0 0 0 0
          0 0 0 0 0 0
          0 0 0 0 0 0
          0 0 0 0 0 0
          0 0 0 0 0 0
          0 0 0 0 0 0
          0 0 0 0 0 0
          0 0 0 0 0 0
          0 0 0 0 0 0
          0 0 0 0 0 0
          0 0 0 0 0 0
          0 0 0 0 0 0
          0 0 0 0 0 0
          0 0 0 0 0 0
          0 0 0 0 0 0
          0 0 0 0 0 0
          0 0 0 0 0 0
          0 0 0 0 0 0
          0 0 0 0 0 0
          0 0 0 0 0 0
          0 0 0 0 0 0
          0 0 0 0 0 0
          0 0 0 0 0 0
          0 0 0 0 0 0
          0 0 0 0 0 0
          0 0 0 0 0 0
          0 0 0 0 0 0
          0 0 0 0 0 0
          0 0 0 0 0 0
          0 0 0 0 0 0
          0 0 0 0 0 0
          0 0 0 0 0 0
          0 0 0 0 0 0
          0 0 0 0 0 0
          0 0 0 0 0 0
          0 0 0 0 0 0
          0 0 0 0 0 0
          0 0 0 0 0 0
          0 0 0 0 0 0
          0 0 0 0 0 0
          0 0 0 0 0 0
          0 0 0 0 0 0
          0 0 0 0 0 0
          0 0 0 0 0 0
          0 0 0 0 0 0
          0 0 0 0 0 0
          0 0 0 0 0 0
          0 0 0 0 0 0
          0 0 0 0 0 0
          0 0 0 0 0 0
          0 0 0 0 0 0
          0 0 0 0 0 0
          0 0 0 0 0 0
          0 0 0 0 0 0
          0 0 0 0 0 0
          0 0 0 0 0 0
          0 0 0 0 0 0
          0 0 0 0 0 0
          0 0 0 0 0 0
          0 0 0 0 0 0
          0 0 0 0 0 0
          0 0 0 0 0 0
          0 0 0 0 0 0
          0 0 0 0 0 0
          0 0 0 0 0 0
          0 0 0 0 0 0
          0 0 0 0 0 0
          0 0 0 0 0 0
          0 0 0 0 0 0
          0 0 0 0 0 0
          0 0 0 0 0 0
          0 0 0 0 0 0
          0 0 0 0 0 0
          0 0 0 0 0 0
          0 0 0 0 0 0
          0 0 0 0 0 0
          0 0 0 0 0 0
          0 0 0 0 0 0
          0 0 0 0 0 0
          0 0 0 0 0 0
          0 0 0 0 0 0
          0 0 0 0 0 0
          0 0 0 0 0 0
          0 0 0 0 0 0
          0 0 0 0 0 0
          0 0 0 0 0 0
          0 0 0 0 0 0
          0 0 0 0 0 0
          0 0 0 0 0 0
          0 0 0 0 0 0
          0 0 0 0 0 0
          0 0 0 0 0 0
          0 0 0 0 0 0
          0 0 0 0 0 0
          0 0 0 0 0 0
          0 0 0 0 0 0
          0 0 0 0 0 0
          0 0 0 0 0 0
          0 0 0 0 0 0
          0 0 0 0 0 0
          0 0 0 0 0 0
          0 0 0 0 0 0
          0 0 0 0 0 0
          0 0 0 0 0 0
          0 0 0 0 0 0
          0 0 0 0 0 0
          0 0 0 0 0 0
          0 0 0 0 0 0
          0 0 0 0 0 0
          0 0 0 0 0 0
          0 0 0 0 0 0
          0 0 0 0 0 0
          0 0 0 0 0 0
          0 0 0 0 0 0
          0 0 0 0 0 0
          0 0 0 0 0 0
          0 0 0 0 0 0
          0 0 0 0 0 0
          0 0 0 0 0 0
          0 0 0 0 0 0
          0 0 0 0 0 0
          0 0 0 0 0 0
          0 0 0 0 0 0
          0 0 0 0 0 0
          0 0 0 0 0 0
          0 0 0 0 0 0
          0 0 0 0 0 0
          0 0 0 0 0 0
          0 0 0 0 0 0
          0 0 0 0 0 0
          0 0 0 0 0 0
          0 0 0 0 0 0
          0 0 0 0 0 0
          0 0 0 0 0 0
          0 0 0 0 0 0
          0 0 0 0 0 0
          0 0 0 0 0 0
          0 0 0 0 0 0
          0 0 0 0 0 0
          0 0 0 0 0 0
          0 0 0 0 0 0
          0 0 0 0 0 0
          0 0 0 0 0 0
          0 0 0 0 0 0
          0 0 0 0 0 0
          0 0 0 0 0 0
          0 0 0 0 0 0
          0 0 0 0 0 0
          0 0 0 0 0 0
          0 0 0 0 0 0
          0 0 0 0 0 0
          0 0 0 0 0 0
          0 0 0 0 0 0
          0 0 0 0 0 0
          0 0 0 0 0 0
          0 0 0 0 0 0
          0 0 0 0 0 0
          0 0 0 0 0 0
          0 0 0 0 0 0
          0 0 0 0 0 0
          0 0 0 0 0 0
          0 0 0 0 0 0
          0 0 0 0 0 0
          0 0 0 0 0 0
          0 0 0 0 0 0
          0 0 0 0 0 0
          0 0 0 0 0 0
          0 0 0 0 0 0
          0 0 0 0 0 0
          0 0 0 0 0 0
          0 0 0 0 0 0
          0 0 0 0 0 0
          0 0 0 0 0 0
          0 0 0 0 0 0
          0 0 0 0 0 0
          0 0 0 0 0 0
          0 0 0 0 0 0
          0 0 0 0 0 0
          0 0 0 0 0 0
          0 0 0 0 0 0
          0 0 0 0 0 0
          0 0 0 0 0 0
          0 0 0 0 0 0
          0 0 0 0 0 0
          0 0 0 0 0 0
          0 0 0 0 0 0
          0 0 0 0 0 0
          0 0 0 0 0 0
          0 0 0 0 0 0
          0 0 0 0 0 0
          0 0 0 0 0 0
          0 0 0 0 0 0
          0 0 0 0 0 0
          0 0 0 0 0 0
          0 0 0 0 0 0
          0 0 0 0 0 0
          0 0 0 0 0 0
          0 0 0 0 0 0
          0 0 0 0 0 0
          0 0 0 0 0 0
          0 0 0 0 0 0
          0 0 0 0 0 0
          0 0 0 0 0 0
          0 0 0 0 0 0
          <InformationKey name="L2_NORM_RANGE" location="vtkDataArray" length="2">
            <Value index="0">
              0
            </Value>
            <Value index="1">
              1
            </Value>
          </InformationKey>
        </DataArray>
        <DataArray type="Float64" Name="nsi_FIXNO" NumberOfComponents="3" format="ascii" RangeMin="1.4142135623730951" RangeMax="1.4142135623730951">
          1 1 0 -1 -1 0
          -1 -1 0 -1 -1 0
          1 1 0 1 1 0
          -1 -1 0 -1 -1 0
          -1 -1 0 -1 -1 0
          -1 -1 0 -1 -1 0
          -1 -1 0 -1 -1 0
          -1 -1 0 1 1 0
          -1 -1 0 -1 -1 0
          -1 -1 0 -1 -1 0
          -1 -1 0 -1 -1 0
          -1 -1 0 -1 -1 0
          -1 -1 0 -1 -1 0
          -1 -1 0 -1 -1 0
          -1 -1 0 -1 -1 0
          -1 -1 0 -1 -1 0
          1 1 0 -1 -1 0
          -1 -1 0 -1 -1 0
          1 1 0 -1 -1 0
          -1 -1 0 -1 -1 0
          -1 -1 0 -1 -1 0
          1 1 0 -1 -1 0
          -1 -1 0 -1 -1 0
          -1 -1 0 -1 -1 0
          -1 -1 0 -1 -1 0
          -1 -1 0 -1 -1 0
          -1 -1 0 -1 -1 0
          -1 -1 0 -1 -1 0
          -1 -1 0 -1 -1 0
          -1 -1 0 -1 -1 0
          1 1 0 -1 -1 0
          -1 -1 0 -1 -1 0
          -1 -1 0 -1 -1 0
          -1 -1 0 -1 -1 0
          -1 -1 0 1 1 0
          -1 -1 0 -1 -1 0
          -1 -1 0 -1 -1 0
          -1 -1 0 -1 -1 0
          -1 -1 0 -1 -1 0
          -1 -1 0 -1 -1 0
          -1 -1 0 -1 -1 0
          -1 -1 0 -1 -1 0
          -1 -1 0 -1 -1 0
          -1 -1 0 -1 -1 0
          1 1 0 -1 -1 0
          -1 -1 0 -1 -1 0
          -1 -1 0 -1 -1 0
          -1 -1 0 -1 -1 0
          -1 -1 0 -1 -1 0
          -1 -1 0 -1 -1 0
          -1 -1 0 -1 -1 0
          -1 -1 0 -1 -1 0
          -1 -1 0 -1 -1 0
          -1 -1 0 -1 -1 0
          -1 -1 0 -1 -1 0
          -1 -1 0 -1 -1 0
          -1 -1 0 -1 -1 0
          -1 -1 0 -1 -1 0
          -1 -1 0 -1 -1 0
          -1 -1 0 -1 -1 0
          -1 -1 0 1 1 0
          -1 -1 0 -1 -1 0
          -1 -1 0 -1 -1 0
          -1 -1 0 -1 -1 0
          -1 -1 0 -1 -1 0
          -1 -1 0 -1 -1 0
          -1 -1 0 -1 -1 0
          -1 -1 0 -1 -1 0
          -1 -1 0 -1 -1 0
          -1 -1 0 -1 -1 0
          -1 -1 0 -1 -1 0
          -1 -1 0 -1 -1 0
          -1 -1 0 -1 -1 0
          -1 -1 0 -1 -1 0
          1 1 0 -1 -1 0
          -1 -1 0 -1 -1 0
          -1 -1 0 -1 -1 0
          -1 -1 0 -1 -1 0
          -1 -1 0 -1 -1 0
          -1 -1 0 1 1 0
          -1 -1 0 -1 -1 0
          1 1 0 -1 -1 0
          1 1 0 -1 -1 0
          -1 -1 0 -1 -1 0
          -1 -1 0 1 1 0
          -1 -1 0 -1 -1 0
          -1 -1 0 -1 -1 0
          1 1 0 -1 -1 0
          1 1 0 -1 -1 0
          -1 -1 0 -1 -1 0
          -1 -1 0 -1 -1 0
          -1 -1 0 -1 -1 0
          1 1 0 -1 -1 0
          -1 -1 0 1 1 0
          1 1 0 -1 -1 0
          -1 -1 0 -1 -1 0
          -1 -1 0 -1 -1 0
          -1 -1 0 1 1 0
          -1 -1 0 -1 -1 0
          -1 -1 0 -1 -1 0
          -1 -1 0 -1 -1 0
          1 1 0 1 1 0
          -1 -1 0 1 1 0
          -1 -1 0 -1 -1 0
          -1 -1 0 -1 -1 0
          1 1 0 -1 -1 0
          -1 -1 0 -1 -1 0
          -1 -1 0 -1 -1 0
          1 1 0 -1 -1 0
          -1 -1 0 -1 -1 0
          1 1 0 -1 -1 0
          -1 -1 0 1 1 0
          1 1 0 -1 -1 0
          -1 -1 0 -1 -1 0
          -1 -1 0 -1 -1 0
          -1 -1 0 -1 -1 0
          -1 -1 0 1 1 0
          1 1 0 -1 -1 0
          1 1 0 1 1 0
          -1 -1 0 -1 -1 0
          1 1 0 -1 -1 0
          -1 -1 0 -1 -1 0
          -1 -1 0 1 1 0
          -1 -1 0 -1 -1 0
          -1 -1 0 1 1 0
          -1 -1 0 1 1 0
          -1 -1 0 -1 -1 0
          -1 -1 0 -1 -1 0
          -1 -1 0 -1 -1 0
          -1 -1 0 1 1 0
          1 1 0 -1 -1 0
          1 1 0 -1 -1 0
          1 1 0 -1 -1 0
          -1 -1 0 -1 -1 0
          1 1 0 -1 -1 0
          -1 -1 0 -1 -1 0
          -1 -1 0 -1 -1 0
          1 1 0 1 1 0
          -1 -1 0 -1 -1 0
          -1 -1 0 -1 -1 0
          -1 -1 0 -1 -1 0
          1 1 0 -1 -1 0
          -1 -1 0 -1 -1 0
          1 1 0 -1 -1 0
          1 1 0 1 1 0
          -1 -1 0 -1 -1 0
          -1 -1 0 -1 -1 0
          -1 -1 0 1 1 0
          1 1 0 -1 -1 0
          -1 -1 0 -1 -1 0
          -1 -1 0 1 1 0
          -1 -1 0 1 1 0
          -1 -1 0 -1 -1 0
          1 1 0 -1 -1 0
          -1 -1 0 1 1 0
          -1 -1 0 -1 -1 0
          1 1 0 -1 -1 0
          1 1 0 -1 -1 0
          -1 -1 0 1 1 0
          -1 -1 0 -1 -1 0
          -1 -1 0 -1 -1 0
          -1 -1 0 1 1 0
          -1 -1 0 -1 -1 0
          -1 -1 0 -1 -1 0
          -1 -1 0 -1 -1 0
          1 1 0 -1 -1 0
          -1 -1 0 -1 -1 0
          -1 -1 0 -1 -1 0
          -1 -1 0 1 1 0
          -1 -1 0 -1 -1 0
          -1 -1 0 -1 -1 0
          1 1 0 -1 -1 0
          -1 -1 0 -1 -1 0
          -1 -1 0 -1 -1 0
          -1 -1 0 1 1 0
          -1 -1 0 -1 -1 0
          -1 -1 0 -1 -1 0
          -1 -1 0 -1 -1 0
          1 1 0 -1 -1 0
          -1 -1 0 -1 -1 0
          -1 -1 0 -1 -1 0
          -1 -1 0 -1 -1 0
          -1 -1 0 -1 -1 0
          1 1 0 -1 -1 0
          -1 -1 0 -1 -1 0
          -1 -1 0 -1 -1 0
          -1 -1 0 -1 -1 0
          1 1 0 -1 -1 0
          -1 -1 0 -1 -1 0
          -1 -1 0 -1 -1 0
          -1 -1 0 -1 -1 0
          -1 -1 0 -1 -1 0
          1 1 0 -1 -1 0
          -1 -1 0 -1 -1 0
          -1 -1 0 -1 -1 0
          -1 -1 0 -1 -1 0
          -1 -1 0 -1 -1 0
          1 1 0 -1 -1 0
          -1 -1 0 -1 -1 0
          1 1 0 -1 -1 0
          -1 -1 0 -1 -1 0
          -1 -1 0 -1 -1 0
          -1 -1 0 -1 -1 0
          1 1 0 -1 -1 0
          -1 -1 0 -1 -1 0
          -1 -1 0 -1 -1 0
          -1 -1 0 -1 -1 0
          1 1 0 -1 -1 0
          -1 -1 0 1 1 0
          <InformationKey name="L2_NORM_RANGE" location="vtkDataArray" length="2">
            <Value index="0">
              1.4142135624
            </Value>
            <Value index="1">
              1.4142135624
            </Value>
          </InformationKey>
        </DataArray>
        <DataArray type="Float64" Name="Velocity" NumberOfComponents="3" format="ascii" RangeMin="0" RangeMax="1.4157247427970996">
          0 0 0 0.3185684997847272 0.02463295007015998 0
          0.7326508827323098 0.1008470479898276 0 0.5157370270861529 0.03841358471536599 0
          0 0 0 0.9999999999999999 0 0
          0.7167244040802345 0.028208093508816916 0 0.37181210460714054 0.023482452900538818 0
          0.6434542336652345 0.04059950661692016 0 0.31531211914156204 0.005487596107279283 0
          0.6666325129968628 0.027678185394271665 0 0.564334527498401 0.03528928123679449 0
          0.7023192437387477 -0.09661009055281172 0 0.715048995055915 0.03241175190637693 0
          0.6811820363989728 0.04897581450774165 0 0 0 0
          0.5109649644587905 0.02747726165606176 0 0.7176259697455799 0.05836538329779907 0
          0.6050080429121806 -0.0065355494250133265 0 0.6473637558941274 0.038717161010355466 0
          0.6597103798316101 0.058401152008842244 0 0.6801491544631796 0.05682362194840312 0
          0.4291951800482665 0.03649778970141076 0 0.34779464998380283 -0.028418596706446694 0
          0.7216185476712519 0.09681967045715631 0 0.644625613641913 0.07920386354325899 0
          0.7361610594932672 0.11727178399114555 0 0.7011997259090543 0.09461185598225427 0
          0.32506535629904765 0.011806115949502663 0 0.5704218610871559 0.04168289758403522 0
          0.44614523467545536 -0.00044580059193401016 0 0.6051059134214413 0.08935657853768877 0
          0 0 0 0.6161292659974278 0.07595934551981327 0
          0.7182861267422257 0.1534514192741884 0 0.7546723887576807 0.15312422878085247 0
          0 0 0 0.7679444391157881 0.18913370802112492 0
          0.6425533436918177 0.13392819023170582 0 0.3272558348565113 0.0074153393313017785 0
          0.5696771580953977 0.08425758752063062 0 0.20323874039996864 0.004581879091971249 0
          0 0 0 0.471277058485429 0.04721730839046474 0
          0.7657317426222103 0.1814932337890082 0 0.7414008268882949 0.22334593000545996 0
          0.820332507761357 0.24437673683235012 0 0.6642951575525023 0.2078088131273555 0
          0.5193085153541143 0.09316594825059023 0 0.7992900426478468 0.2828862260023303 0
          0.3161742756437968 0.02361407211841799 0 0.4640991307161229 0.024263058614955143 0
          0.7976236816538863 0.1518213604754341 0 0.8736439172514947 0.2746378830076282 0
          0.5511825177924753 0.16687197325208447 0 0.6770560243016989 0.2922588545324307 0
          0.8607961906283047 0.3424868307439913 0 0.35917672802635964 0.047658366806640665 0
          0.7865897284721808 0.3720561544929113 0 0.5807926105254193 0.25687927311378667 0
          0 0 0 0.9427077298595713 0.36381444412889774 0
          0.6933896264083822 0.37654014430911187 0 0.19242193392062523 0.010977259738815106 0
          0.9850725596284728 0.23587434915435954 0 0.3802326450569402 0.09385005040330631 0
          0.45782194368756723 0.1943786606447227 0 0.863975079617223 0.42570647697065506 0
          0.5814533104593382 0.33838561785135013 0 0 0 0
          0.7506579973537229 0.10160386569932545 0 0.4653083237348953 0.27390473128804227 0
          0.7313822020713743 0.4678910139620981 0 1.0512821438599733 0.3585354359800153 0
          0.9584570147901914 0.46422236391002153 0 0.33437579663341327 0.13001948787220863 0
          0.2246035811704967 0.03648611978706215 0 0.5578718643494321 0.4199059066081299 0
          0.8415718772797914 0.5162187023185815 0 1.1175854533657634 0.2853120011261726 0
          0.4591915730238005 0.3512071680380559 0 0.7171880249009658 0.5191258031783765 0
          0.3450672336516806 0.19688839042974324 0 0.25502658732189526 0.06670022049292149 0
          1.0373672222092152 0.19202082343201538 0 0.5994288811416093 0.5027501674847453 0
          0.9549814599463035 0.5253063035220228 0 0.34187291900654515 0.26969456466381003 0
          0 0 0 0.8352802927662414 0.08358826890001081 0
          1.1892873924692315 0.382079778814152 0 0.7822909024280661 0.5682773767608562 0
          0.4325297547581107 0.43087830327911386 0 0.6339094828864121 0.5596861201308687 0
          1.2260868299899557 0.27479358884598665 0 0.2399618297946406 0.126164662068786 0
          0.31161165275678676 0.3182088863085393 0 0.13063270390443887 0.017073266132868928 0
          0.24721304183698115 0.1933457494269631 0 0.4785414428578587 0.010661868703209896 0
          0.9274570648280803 0.5656838150463818 0 0.4166888283811839 0.4871065188489676 0
          1.1447576532504748 0.47234834434934786 0 0.24615315393197412 0.25758675779503515 0
          0.6906764640199772 0.5912969505642949 0 0.2764746682511968 0.35801639486060277 0
          1.1712393502507839 0.14019968464943186 0 1.2942711257149269 0.32951942520256156 0
          0.14965667685984452 0.04671775512584332 0 0.5163614686971673 0.5640371966090946 0
          0.8012818602607091 0.573130326519385 0 0.2014886557264236 0.27917178858122865 0
          0.321703306891037 0.4626961116908277 0 1.0778143342673352 0.48566760184918406 0
          0.9190933780695887 0.02774554234622074 0 0.1436873347970723 0.07624544243633873 0
          0.5528548967780501 0.5613527061152477 0 0.2147147328822817 0.3572920190335426 0
          1.2691547774585292 0.3565514173596017 0 1.3497930474526105 0.19302476102378793 0
          0.14597009725571597 0.13232935234025484 0 0 0 0
          0.15392042029557423 0.20267741133991646 0 0.3235837703679184 0.4859562710618249 0
          1.356469298523782 0.25716790766098546 0 0.16666017925057833 0.28935761153230233 0
          0.06410029911957164 0.008872626677975592 0 0.6531879287665788 0.5085979559472903 0
          0.15387269581554777 0.33486914724309014 0 0.9846533753658406 0.42327350402110403 0
          0.3616171976854508 0.45823903266141414 0 0.11021425498905663 0.20603769344737982 0
          1.178201583777863 0.33845870028584063 0 0.08507302346026836 0.03343036261476141 0
          0.10537412722060578 0.13791111714579415 0 1.2515053182636053 0.056565285080562626 0
          1.3146427195007078 0.2533664227068443 0 0.16120997680237828 0.34665404942371825 0
          0.08358965702624982 0.19894808066984593 0 1.4033347999738301 0.15230360221705322 0
          0.4273678956845289 0.358766854100432 0 0.08916257541746014 0.10178872927419234 0
          0.07318203455540213 0.2446824950299364 0 0.07640962649135974 0.047329401712442355 0
          0.7635646749270079 0.3078194359791963 0 0.07934436258591446 0.13639763719246836 0
          0.06735023344639775 0.21213611150651274 0 0.07033606362256276 0.21223376753205592 0
          0 0 0 0.08406038419748527 0.2181663213524857 0
          0.9935208861972727 0.25336421378883345 0 1.4011559445589 0.07837626271821482 0
          1.1936414095262486 0.20967497773620083 0 0.04069533496726019 0.15672855509775316 0
          0.06271379079723474 0.061878023946452795 0 0.047329402022618774 0.12664171301290403 0
          0.9250679787556549 0.0057151585385315385 0 0.03208451653537584 0.14237960939331618 0
          0.021431376745986525 0.12352436843513184 0 0 0 0
          0.05619254420767219 0.091549517932215 0 0.400634114986308 0.0703264034142564 0
          0 0 0 0.7054406263577699 0.11222863189982589 0
          0 0 0 0.017400996001976008 0.09442622750722744 0
          0.029091773832132163 0.1118642916986107 0 0.042632494299940156 0.014876699877383628 0
          1.3296670401057415 0.06808163257945356 0 0 0 0
          0.011025853538488287 0.07082796177709139 0 0.04363558756636603 0.060343110844693536 0
          0.9272583243122131 0.07503078928757104 0 0.033051490048802375 0.08012678117614344 0
          0 0 0 0.018765118813170303 0.08036465074192518 0
          0 0 0 1.4156974600270873 0.00878914334663452 0
          0.3536856425805484 0.027814087760342814 0 0.006619692164819348 0.057592705003183 0
          1.1304566911050182 0.02831982726334642 0 0.018209617127588153 0.07093551186445088 0
          0.6734839967829754 0.03941929371260683 0 0.0348190594905492 0.024303565757795697 0
          0 0 0 0.0068621998001176885 0.04531178965822824 0
          1.4068529520327848 -0.028815182378064203 0 0 0 0
          0 0 0 0.013882337841810954 0.0498649580576167 0
          0.026857360674209876 0.028588908392731895 0 0.004895705806813248 0.036598703046527695 0
          0.019796388169176442 0.043715306921828796 0 0.33513303686697415 -0.00007032011587418467 0
          0.01295780321757807 0.04290162417565484 0 0 0 0
          1.2527595598116787 -0.04740785895643309 0 0.6593992975524035 -0.023120807510700073 0
          0.9413217091839685 -0.05570801992013423 0 0.004459819941864231 0.02846371568300202 0
          1.1544764502742466 -0.09530951843732396 0 0.01911841367885988 0.006369348223665846 0
          0 0 0 0 0 0
          0.01557063740979782 0.025788987547357516 0 0 0 0
          1.315333860079443 -0.11601656192227792 0 0.008549390570123001 0.028404691584399268 0
          0.003793169680787614 0.021848600598496117 0 0.34152771956416184 -0.02671131152455186 0
          0 0 0 1.3935055436850101 -0.12621439417272595 0
          0.008182498171063977 0.02213658943549322 0 0.674629407362346 -0.12321462997937757 0
          0.013145398212585974 0.011043489029946023 0 0.0030185826665026275 0.015949638357833067 0
          0 0 0 0.9270471523763354 -0.16990578172751808 0
          0.005314558864248444 0.017131104827919894 0 1.3736129351233166 -0.1258550242740432 0
          0 0 0 0.002684413283260318 0.011693933748867392 0
          1.1303895808686801 -0.19833276802630528 0 0 0 0
          0 0 0 0.39082228770230565 -0.17141275453490978 0
          0.007003707932358926 0.009294216724555873 0 0.00522913515846635 0.011354117652984214 0
          0.9403477509243713 -0.048937618465451485 0 0.0016272724000244566 0.007869546968423615 0
          1.2806581664323824 -0.20878881910832678 0 1.2067667167574958 -0.09710264970613193 0
          0.007083251859699061 0.0023640260729724523 0 0 0 0
          0 0 0 0.6705495127125648 -0.2388156272916099 0
          0 0 0 0 0 0
          0.0010006008082233207 0.005528679162848641 0 0.04624771562379569 -0.07746900984879351 0
          0 0 0 0.003053497871568574 0.0064665432186212955 0
          1.3561698836846392 -0.21025917381392797 0 0.8996730235299752 -0.27373684134731374 0
          0.004118550294256999 0.0031079522915258982 0 0 0 0
          0.025974067326132524 -0.036485026117435766 0 0.0011526773295269732 0.0033238382264312023 0
          0.002621661665880649 0.003981891797297016 0 0 0 0
          0.01491583505835913 -0.011236897142715307 0 0 0 0
          0.3097216737932828 -0.21499486887823252 0 1.3199393322727144 -0.18350079458576485 0
          0.0013096744410829113 0.0023259214265656048 0 1.0576662477513474 -0.3085902504664842 0
          0.006285310335515212 0.005902868368150832 0 0.0022977333214972686 0.0006065083037291507 0
          0.0008878349608043892 0.001929526360472145 0 0 0 0
          0 0 0 0.10184630670009974 -0.11411373555076255 0
          0 0 0 0.00216797651522042 0.011549540048725625 0
          0 0 0 1.2258807527520814 -0.30085636526581727 0
          0.06418303017582 -0.06499220694506538 0 0.0012916222243342195 0.0009930389265435826 0
          0 0 0 0.0004338832844703306 0.0007938267349952694 0
          0.25462897238169147 -0.007770154539597044 0 0.5385596894903881 -0.29192008788859725 0
          0.0013031391927846088 0.014866498418022112 0 1.1556018840134172 -0.14799115371816499 0
          0 0 0 0 0 0
          0.0011054439723653837 0.016203161849144346 0 0.00027715812711758323 0.00032095571901601447 0
          0.29018168127014404 -0.22191328025097357 0 0.01701515045983606 -0.01025498492543978 0
          0.052047973363167535 -0.04612191414370444 0 0.7712901592311294 -0.33871908652487787 0
          0 0 0 1.287960532310772 -0.2724181734637677 0
          0.13884669457975057 -0.13004266724391866 0 0.0002018252029065235 0.01746056172985298 0
          0 0 0 0.010412140561623429 0.004698024026684455 0
          0 0 0 0 0 0
          0.004748560281550635 0.015160980227626034 0 0.00014824013432751946 -0.0001228300176492737 0
          -0.000432272594898722 0.01724217355503924 0 0.004269744174027504 0.020011502130768015 0
          0.7868868106607985 -0.0943262562460384 0 0 0 0
          0 0 0 0.4797528414040189 -0.29856639171333227 0
          -0.00028511852049612575 0.016816439218982678 0 0.9384006292108837 -0.3598017096943689 0
          1.2393796813902658 -0.23669721744532907 0 0 0 0
          0.03459433337757894 -0.023920922884832267 0 0 0 0
          0.30616138102693746 -0.23232420106067617 0 0.0005689678986660936 0.02435469570440632 0
          0 0 0 -0.0005651363484282756 0.015937624806936935 0
          0.013667668735200384 0.01129181600355169 0 0 0 0
          0.00008118855366306895 0.02611362507828637 0 0.1585495219648581 -0.135714414039718 0
          0 0 0 -0.0009259930988843797 0.014702041245079806 0
          0 0 0 -0.0009821961109692126 0.024397413404866244 0
          0.6571302868535899 -0.3475503479190877 0 0 0 0
          -0.0012221475642210822 0.012747258552591883 0 -0.0017589152325874532 0.02328891013546751 0
          1.0795702789107613 -0.16926887345118943 0 0.46709394826891065 -0.2984899704925072 0
          0.005229249111082342 0.022455452057637222 0 0 0 0
          -0.0013099792479807206 0.01068889858721011 0 1.205546471063337 -0.3194476959564846 0
          0.05259481669492453 -0.03626557800130397 0 -0.0038400074015831967 0.02265275029863646 0
          1.0383508405820672 -0.38443474989948545 0 0.29946589906902943 -0.22462548128584106 0
          0 0 0 -0.001178372895789386 0.008714736881871254 0
          -0.002006224211656062 0.027552332950409424 0 0.13719130193036408 -0.11592558600919263 0
          -0.004139522082550107 0.019703333531167395 0 0.031456735021105076 -0.011316276945274595 0
          0.814652171695613 -0.38243607013947534 0 0 0 0
          -0.0012256892054688699 0.006567499733250649 0 -0.003659697224985429 0.01558147184137123 0
          0.6239756516386362 -0.3412310086174435 0 0.7013093118623119 -0.08373099129624209 0
          0 0 0 -0.0012430204381899792 0.004469927789625314 0
          -0.007696175671093402 0.0238984979586714 0 -0.004337090893243116 0.013132872422787654 0
          0.008832684326523238 0.012351208502643169 0 0.45296224107959665 -0.2866521972740619 0
          0.0782773736261863 -0.0669179585077546 0 0 0 0
          -0.0011470373517465731 0.0024460819615230367 0 1.0995286700324869 -0.37243073212310585 0
          -0.004260539948594557 0.009643832018477468 0 -0.008414663265657327 0.019257621620879423 0
          0.29905550122247254 -0.2181606817755591 0 1.1411520857905935 -0.30847046220521374 0
          0 0 0 0.9491176919792553 -0.3850383845711419 0
          -0.004107020809090604 0.006435083842528017 0 -0.0004903539072759312 0.0006496249229075647 0
          0.048990176728433504 -0.03101492241034087 0 -0.008966918985969012 0.01377145258770767 0
          0.15881668637128837 -0.13286213460521734 0 -0.0031408699461280593 0.003438993702304274 0
          0.6705488817123529 -0.3460335994130341 0 -0.004752169576803276 0.00932874073480847 0
          0 0 0 0.9981219044310228 -0.21066869612085595 0
          0.31402428275608785 -0.01755842848298892 0 -0.007673583280623906 0.0068221491554477905 0
          -0.01236720597909588 0.012368862031253255 0 -0.012538577840396983 0.012396169796127518 0
          0.10848208534208206 -0.08907643716250874 0 0.42754825620163733 -0.276076749227877 0
          0 0 0 -0.0036279022447213453 0.0016503206696172096 0
          1.0323126926560018 -0.34166997725904563 0 0.01242641528211536 -0.025916792073046525 0
          -0.013946139888686707 0.00746082602912911 0 -0.00861844313183519 -0.004021738071719505 0
          0.8172225537229209 -0.3511372714667 0 0.20882658046673283 -0.1674126059738263 0
          0.5454533898680332 -0.07348519855896268 0 -0.01521256477631233 0.0036330670575567756 0
          0 0 0 -0.008814342855702189 0.002275823808634722 0
          0.5633657944494529 -0.31163275597598405 0 1.0723737339972101 -0.27965123981340034 0
          0.06290968728399912 -0.07564049940710604 0 0.35177576138337213 -0.2434818761645957 0
          0.01113029054072778 -0.03282617984034253 0 -0.008435201902875545 -0.01083747500774473 0
          -0.014320554156977285 0.0014128637350055556 0 0.964450533276134 -0.32934903174295416 0
          0 0 0 -0.014331139974960442 -0.0012287869139722737 0
          0.7404346906340249 -0.348752788631378 0 0.48840780854360555 -0.2994982202178299 0
          0 0 0 0.15203564002082834 -0.14244547504180388 0
          0.052651701733868794 -0.07325368949741183 0 0.9459016335896643 -0.09784201115139954 0
          0.014613712604916165 -0.035928737274901014 0 -0.012122964929421843 -0.000680239863783764 0
          -0.0045535830176387316 -0.012494213206383808 0 0.2946865803716446 -0.23424815671933555 0
          0 0 0 0.9754104782383233 -0.3869924462342148 0
          -0.006446972130918068 -0.0007573900970339949 0 0.12813942592276514 -0.14395425426233452 0
          0.05224964040692906 -0.06602455988970368 0 0.5659858770334798 -0.42445160867828724 0
          0.012613457399840863 -0.01865803221241873 0 0.2716611325593261 -0.290412350412188 0
          0 0 0 0.05151484836548946 -0.03885674876976877 0
          0.1314565163925034 -0.11927783342846056 0 0 0 0
          <InformationKey name="L2_NORM_RANGE" location="vtkDataArray" length="2">
            <Value index="0">
              0
            </Value>
            <Value index="1">
              1.4157247428
            </Value>
          </InformationKey>
        </DataArray>
        <DataArray type="Float64" Name="Pressure" format="ascii" RangeMin="-8.594304059681704" RangeMax="36.94125517257372">
          36.275222043085826 36.44071701651924 36.76106948853005 36.213709006916496 36.043046915791805 36.804576690334606
          36.06811458170163 35.52803222426886 35.372474432085376 34.61621407329917 36.12042699124098 34.39670238640686
          36.94125517257372 35.31094308646666 34.39550586773403 33.60510875598605 33.45084818683992 34.49997272350645
          36.51018591001911 35.55291506952117 33.305216810508846 34.75589687904287 32.3588521424421 36.909630174669836
          33.48405601031457 32.18884393905946 32.29808306489852 33.90628632200568 31.40281612342506 34.932689321426366
          35.934787173986905 30.839931333540456 36.72795555536293 34.18195313885756 33.051008873796796 31.125415740833873
          30.29080717341588 31.529928411080324 33.50428954412293 35.213695267167886 29.437186605701342 35.643017543990496
          36.75954019463184 34.36852155970512 29.607497103794135 32.09921471922181 30.10224581812407 32.76352233237792
          33.846411774546034 30.71396901348856 34.50036072545948 27.447450401216113 27.78983148387591 28.45097515496094
          33.37559561079685 32.016036446595 29.284144728919202 33.993509110613715 30.147893605754078 32.73419170098232
          34.75197831242918 27.44872795213497 31.09785694625302 34.098561018748754 25.767568291892964 33.749553434180314