<?xml version="1.0"?>
<VTKFile type="UnstructuredGrid" version="0.1" byte_order="LittleEndian" header_type="UInt32" compressor="vtkZLibDataCompressor">
  <UnstructuredGrid>
    <Piece NumberOfPoints="418" NumberOfCells="757">
      <PointData>
        <DataArray type="Float64" Name="nsi_BC" NumberOfComponents="3" format="ascii" RangeMin="0" RangeMax="1">
          0 0 0 0 0 0
          0 0 0 0 0 0
          0 0 0 1 0 0
          0 0 0 0 0 0
          0 0 0 0 0 0
          0 0 0 0 0 0
          0 0 0 0 0 0
          0 0 0 0 0 0
          0 0 0 0 0 0
          0 0 0 0 0 0
          0 0 0 0 0 0
          0 0 0 0 0 0
          0 0 0 0 0 0
          0 0 0 0 0 0
          0 0 0 0 0 0
          0 0 0 0 0 0
          0 0 0 0 0 0
          0 0 0 0 0 0
          0 0 0 0 0 0
          0 0 0 0 0 0
          0 0 0 0 0 0
          0 0 0 0 0 0
          0 0 0 0 0 0
          0 0 0 0 0 0
          0 0 0 0 0 0
          0 0 0 0 0 0
          0 0 0 0 0 0
          0 0 0 0 0 0
          0 0 0 0 0 0
          0 0 0 0 0 0
          0 0 0 0 0 0
          0 0 0 0 0 0
          0 0 0 0 0 0
          0 0 0 0 0 0
          0 0 0 0 0 0
          0 0 0 0 0 0
          0 0 0 0 0 0
          0 0 0 0 0 0
          0 0 0 0 0 0
          0 0 0 0 0 0
          0 0 0 0 0 0
          0 0 0 0 0 0
          0 0 0 0 0 0
          0 0 0 0 0 0
          0 0 0 0 0 0
          0 0 0 0 0 0
          0 0 0 0 0 0
          0 0 0 0 0 0
          0 0 0 0 0 0
          0 0 0 0 0 0
          0 0 0 0 0 0
          0 0 0 0 0 0
          0 0 0 0 0 0
          0 0 0 0 0 0
          0 0 0 0 0 0
          0 0 0 0 0 0
          0 0 0 0 0 0
          0 0 0 0 0 0
          0 0 0 0 0 0
          0 0 0 0 0 0
          0 0 0 0 0 0
          0 0 0 0 0 0
          0 0 0 0 0 0
          0 0 0 0 0 0
          0 0 0 0 0 0
          0 0 0 0 0 0
          0 0 0 0 0 0
          0 0 0 0 0 0
          0 0 0 0 0 0
          0 0 0 0 0 0
          0 0 0 0 0 0
          0 0 0 0 0 0
          0 0 0 0 0 0
          0 0 0 0 0 0
          0 0 0 0 0 0
          0 0 0 0 0 0
          0 0 0 0 0 0
          0 0 0 0 0 0
          0 0 0 0 0 0
          0 0 0 0 0 0
          0 0 0 0 0 0
          0 0 0 0 0 0
          0 0 0 0 0 0
          0 0 0 0 0 0
          0 0 0 0 0 0
          0 0 0 0 0 0
          0 0 0 0 0 0
          0 0 0 0 0 0
          0 0 0 0 0 0
          0 0 0 0 0 0
          0 0 0 0 0 0
          0 0 0 0 0 0
          0 0 0 0 0 0
          0 0 0 0 0 0
          0 0 0 0 0 0
          0 0 0 0 0 0
          0 0 0 0 0 0
          0 0 0 0 0 0
          0 0 0 0 0 0
          0 0 0 0 0 0
          0 0 0 0 0 0
          0 0 0 0 0 0
          0 0 0 0 0 0
          0 0 0 0 0 0
          0 0 0 0 0 0
          0 0 0 0 0 0
          0 0 0 0 0 0
          0 0 0 0 0 0
          0 0 0 0 0 0
          0 0 0 0 0 0
          0 0 0 0 0 0
          0 0 0 0 0 0
          0 0 0 0 0 0
          0 0 0 0 0 0
          0 0 0 0 0 0
          0 0 0 0 0 0
          0 0 0 0 0 0
          0 0 0 0 0 0
          0 0 0 0 0 0
          0 0 0 0 0 0
          0 0 0 0 0 0
          0 0 0 0 0 0
          0 0 0 0 0 0
          0 0 0 0 0 0
          0 0 0 0 0 0
          0 0 0 0 0 0
          0 0 0 0 0 0
          0 0 0 0 0 0
          0 0 0 0 0 0
          0 0 0 0 0 0
          0 0 0 0 0 0
          0 0 0 0 0 0
          0 0 0 0 0 0
          0 0 0 0 0 0
          0 0 0 0 0 0
          0 0 0 0 0 0
          0 0 0 0 0 0
          0 0 0 0 0 0
          0 0 0 0 0 0
          0 0 0 0 0 0
          0 0 0 0 0 0
          0 0 0 0 0 0
          0 0 0 0 0 0
          0 0 0 0 0 0
          0 0 0 0 0 0
          0 0 0 0 0 0
          0 0 0 0 0 0
          0 0 0 0 0 0
          0 0 0 0 0 0
          0 0 0 0 0 0
          0 0 0 0 0 0
          0 0 0 0 0 0
          0 0 0 0 0 0
          0 0 0 0 0 0
          0 0 0 0 0 0
          0 0 0 0 0 0
          0 0 0 0 0 0
          0 0 0 0 0 0
          0 0 0 0 0 0
          0 0 0 0 0 0
          0 0 0 0 0 0
          0 0 0 0 0 0
          0 0 0 0 0 0
          0 0 0 0 0 0
          0 0 0 0 0 0
          0 0 0 0 0 0
          0 0 0 0 0 0
          0 0 0 0 0 0
          0 0 0 0 0 0
          0 0 0 0 0 0
          0 0 0 0 0 0
          0 0 0 0 0 0
          0 0 0 0 0 0
          0 0 0 0 0 0
          0 0 0 0 0 0
          0 0 0 0 0 0
          0 0 0 0 0 0
          0 0 0 0 0 0
          0 0 0 0 0 0
          0 0 0 0 0 0
          0 0 0 0 0 0
          0 0 0 0 0 0
          0 0 0 0 0 0
          0 0 0 0 0 0
          0 0 0 0 0 0
          0 0 0 0 0 0
          0 0 0 0 0 0
          0 0 0 0 0 0
          0 0 0 0 0 0
          0 0 0 0 0 0
          0 0 0 0 0 0
          0 0 0 0 0 0
          0 0 0 0 0 0
          0 0 0 0 0 0
          0 0 0 0 0 0
          0 0 0 0 0 0
          0 0 0 0 0 0
          0 0 0 0 0 0
          0 0 0 0 0 0
          0 0 0 0 0 0
          0 0 0 0 0 0
          0 0 0 0 0 0
          0 0 0 0 0 0
          0 0 0 0 0 0
          0 0 0 0 0 0
          0 0 0 0 0 0
          0 0 0 0 0 0
          0 0 0 0 0 0
          0 0 0 0 0 0
          <InformationKey name="L2_NORM_RANGE" location="vtkDataArray" length="2">
            <Value index="0">
              0
            </Value>
            <Value index="1">
              1
            </Value>
          </InformationKey>
        </DataArray>
        <DataArray type="Float64" Name="nsi_FIXNO" NumberOfComponents="3" format="ascii" RangeMin="1.4142135623730951" RangeMax="1.4142135623730951">
          1 1 0 -1 -1 0
          -1 -1 0 -1 -1 0
          1 1 0 1 1 0
          -1 -1 0 -1 -1 0
          -1 -1 0 -1 -1 0
          -1 -1 0 -1 -1 0
          -1 -1 0 -1 -1 0
          -1 -1 0 1 1 0
          -1 -1 0 -1 -1 0
          -1 -1 0 -1 -1 0
          -1 -1 0 -1 -1 0
          -1 -1 0 -1 -1 0
          -1 -1 0 -1 -1 0
          -1 -1 0 -1 -1 0
          -1 -1 0 -1 -1 0
          -1 -1 0 -1 -1 0
          1 1 0 -1 -1 0
          -1 -1 0 -1 -1 0
          1 1 0 -1 -1 0
          -1 -1 0 -1 -1 0
          -1 -1 0 -1 -1 0
          1 1 0 -1 -1 0
          -1 -1 0 -1 -1 0
          -1 -1 0 -1 -1 0
          -1 -1 0 -1 -1 0
          -1 -1 0 -1 -1 0
          -1 -1 0 -1 -1 0
          -1 -1 0 -1 -1 0
          -1 -1 0 -1 -1 0
          -1 -1 0 -1 -1 0
          1 1 0 -1 -1 0
          -1 -1 0 -1 -1 0
          -1 -1 0 -1 -1 0
          -1 -1 0 -1 -1 0
          -1 -1 0 1 1 0
          -1 -1 0 -1 -1 0
          -1 -1 0 -1 -1 0
          -1 -1 0 -1 -1 0
          -1 -1 0 -1 -1 0
          -1 -1 0 -1 -1 0
          -1 -1 0 -1 -1 0
          -1 -1 0 -1 -1 0
          -1 -1 0 -1 -1 0
          -1 -1 0 -1 -1 0
          1 1 0 -1 -1 0
          -1 -1 0 -1 -1 0
          -1 -1 0 -1 -1 0
          -1 -1 0 -1 -1 0
          -1 -1 0 -1 -1 0
          -1 -1 0 -1 -1 0
          -1 -1 0 -1 -1 0
          -1 -1 0 -1 -1 0
          -1 -1 0 -1 -1 0
          -1 -1 0 -1 -1 0
          -1 -1 0 -1 -1 0
          -1 -1 0 -1 -1 0
          -1 -1 0 -1 -1 0
          -1 -1 0 -1 -1 0
          -1 -1 0 -1 -1 0
          -1 -1 0 -1 -1 0
          -1 -1 0 1 1 0
          -1 -1 0 -1 -1 0
          -1 -1 0 -1 -1 0
          -1 -1 0 -1 -1 0
          -1 -1 0 -1 -1 0
          -1 -1 0 -1 -1 0
          -1 -1 0 -1 -1 0
          -1 -1 0 -1 -1 0
          -1 -1 0 -1 -1 0
          -1 -1 0 -1 -1 0
          -1 -1 0 -1 -1 0
          -1 -1 0 -1 -1 0
          -1 -1 0 -1 -1 0
          -1 -1 0 -1 -1 0
          1 1 0 -1 -1 0
          -1 -1 0 -1 -1 0
          -1 -1 0 -1 -1 0
          -1 -1 0 -1 -1 0
          -1 -1 0 -1 -1 0
          -1 -1 0 1 1 0
          -1 -1 0 -1 -1 0
          1 1 0 -1 -1 0
          1 1 0 -1 -1 0
          -1 -1 0 -1 -1 0
          -1 -1 0 1 1 0
          -1 -1 0 -1 -1 0
          -1 -1 0 -1 -1 0
          1 1 0 -1 -1 0
          1 1 0 -1 -1 0
          -1 -1 0 -1 -1 0
          -1 -1 0 -1 -1 0
          -1 -1 0 -1 -1 0
          1 1 0 -1 -1 0
          -1 -1 0 1 1 0
          1 1 0 -1 -1 0
          -1 -1 0 -1 -1 0
          -1 -1 0 -1 -1 0
          -1 -1 0 1 1 0
          -1 -1 0 -1 -1 0
          -1 -1 0 -1 -1 0
          -1 -1 0 -1 -1 0
          1 1 0 1 1 0
          -1 -1 0 1 1 0
          -1 -1 0 -1 -1 0
          -1 -1 0 -1 -1 0
          1 1 0 -1 -1 0
          -1 -1 0 -1 -1 0
          -1 -1 0 -1 -1 0
          1 1 0 -1 -1 0
          -1 -1 0 -1 -1 0
          1 1 0 -1 -1 0
          -1 -1 0 1 1 0
          1 1 0 -1 -1 0
          -1 -1 0 -1 -1 0
          -1 -1 0 -1 -1 0
          -1 -1 0 -1 -1 0
          -1 -1 0 1 1 0
          1 1 0 -1 -1 0
          1 1 0 1 1 0
          -1 -1 0 -1 -1 0
          1 1 0 -1 -1 0
          -1 -1 0 -1 -1 0
          -1 -1 0 1 1 0
          -1 -1 0 -1 -1 0
          -1 -1 0 1 1 0
          -1 -1 0 1 1 0
          -1 -1 0 -1 -1 0
          -1 -1 0 -1 -1 0
          -1 -1 0 -1 -1 0
          -1 -1 0 1 1 0
          1 1 0 -1 -1 0
          1 1 0 -1 -1 0
          1 1 0 -1 -1 0
          -1 -1 0 -1 -1 0
          1 1 0 -1 -1 0
          -1 -1 0 -1 -1 0
          -1 -1 0 -1 -1 0
          1 1 0 1 1 0
          -1 -1 0 -1 -1 0
          -1 -1 0 -1 -1 0
          -1 -1 0 -1 -1 0
          1 1 0 -1 -1 0
          -1 -1 0 -1 -1 0
          1 1 0 -1 -1 0
          1 1 0 1 1 0
          -1 -1 0 -1 -1 0
          -1 -1 0 -1 -1 0
          -1 -1 0 1 1 0
          1 1 0 -1 -1 0
          -1 -1 0 -1 -1 0
          -1 -1 0 1 1 0
          -1 -1 0 1 1 0
          -1 -1 0 -1 -1 0
          1 1 0 -1 -1 0
          -1 -1 0 1 1 0
          -1 -1 0 -1 -1 0
          1 1 0 -1 -1 0
          1 1 0 -1 -1 0
          -1 -1 0 1 1 0
          -1 -1 0 -1 -1 0
          -1 -1 0 -1 -1 0
          -1 -1 0 1 1 0
          -1 -1 0 -1 -1 0
          -1 -1 0 -1 -1 0
          -1 -1 0 -1 -1 0
          1 1 0 -1 -1 0
          -1 -1 0 -1 -1 0
          -1 -1 0 -1 -1 0
          -1 -1 0 1 1 0
          -1 -1 0 -1 -1 0
          -1 -1 0 -1 -1 0
          1 1 0 -1 -1 0
          -1 -1 0 -1 -1 0
          -1 -1 0 -1 -1 0
          -1 -1 0 1 1 0
          -1 -1 0 -1 -1 0
          -1 -1 0 -1 -1 0
          -1 -1 0 -1 -1 0
          1 1 0 -1 -1 0
          -1 -1 0 -1 -1 0
          -1 -1 0 -1 -1 0
          -1 -1 0 -1 -1 0
          -1 -1 0 -1 -1 0
          1 1 0 -1 -1 0
          -1 -1 0 -1 -1 0
          -1 -1 0 -1 -1 0
          -1 -1 0 -1 -1 0
          1 1 0 -1 -1 0
          -1 -1 0 -1 -1 0
          -1 -1 0 -1 -1 0
          -1 -1 0 -1 -1 0
          -1 -1 0 -1 -1 0
          1 1 0 -1 -1 0
          -1 -1 0 -1 -1 0
          -1 -1 0 -1 -1 0
          -1 -1 0 -1 -1 0
          -1 -1 0 -1 -1 0
          1 1 0 -1 -1 0
          -1 -1 0 -1 -1 0
          1 1 0 -1 -1 0
          -1 -1 0 -1 -1 0
          -1 -1 0 -1 -1 0
          -1 -1 0 -1 -1 0
          1 1 0 -1 -1 0
          -1 -1 0 -1 -1 0
          -1 -1 0 -1 -1 0
          -1 -1 0 -1 -1 0
          1 1 0 -1 -1 0
          -1 -1 0 1 1 0
          <InformationKey name="L2_NORM_RANGE" location="vtkDataArray" length="2">
            <Value index="0">
              1.4142135624
            </Value>
            <Value index="1">
              1.4142135624
            </Value>
          </InformationKey>
        </DataArray>
      </PointData>
      <CellData>
        <DataArray type="UInt8" Name="vtkGhostType" format="ascii" RangeMin="0" RangeMax="0">
          0 0 0 0 0 0
          0 0 0 0 0 0
          0 0 0 0 0 0
          0 0 0 0 0 0
          0 0 0 0 0 0
          0 0 0 0 0 0
          0 0 0 0 0 0
          0 0 0 0 0 0
          0 0 0 0 0 0
          0 0 0 0 0 0
          0 0 0 0 0 0
          0 0 0 0 0 0
          0 0 0 0 0 0
          0 0 0 0 0 0
          0 0 0 0 0 0
          0 0 0 0 0 0
          0 0 0 0 0 0
          0 0 0 0 0 0
          0 0 0 0 0 0
          0 0 0 0 0 0
          0 0 0 0 0 0
          0 0 0 0 0 0
          0 0 0 0 0 0
          0 0 0 0 0 0
          0 0 0 0 0 0
          0 0 0 0 0 0
          0 0 0 0 0 0
          0 0 0 0 0 0
          0 0 0 0 0 0
          0 0 0 0 0 0
          0 0 0 0 0 0
          0 0 0 0 0 0
          0 0 0 0 0 0
          0 0 0 0 0 0
          0 0 0 0 0 0
          0 0 0 0 0 0
          0 0 0 0 0 0
          0 0 0 0 0 0
          0 0 0 0 0 0
          0 0 0 0 0 0
          0 0 0 0 0 0
          0 0 0 0 0 0
          0 0 0 0 0 0
          0 0 0 0 0 0
          0 0 0 0 0 0
          0 0 0 0 0 0
          0 0 0 0 0 0
          0 0 0 0 0 0
          0 0 0 0 0 0
          0 0 0 0 0 0
          0 0 0 0 0 0
          0 0 0 0 0 0
          0 0 0 0 0 0
          0 0 0 0 0 0
          0 0 0 0 0 0
          0 0 0 0 0 0
          0 0 0 0 0 0
          0 0 0 0 0 0
          0 0 0 0 0 0
          0 0 0 0 0 0
          0 0 0 0 0 0
          0 0 0 0 0 0
          0 0 0 0 0 0
          0 0 0 0 0 0
          0 0 0 0 0 0
          0 0 0 0 0 0
          0 0 0 0 0 0
          0 0 0 0 0 0
          0 0 0 0 0 0
          0 0 0 0 0 0
          0 0 0 0 0 0
          0 0 0 0 0 0
          0 0 0 0 0 0
          0 0 0 0 0 0
          0 0 0 0 0 0
          0 0 0 0 0 0
          0 0 0 0 0 0
          0 0 0 0 0 0
          0 0 0 0 0 0
          0 0 0 0 0 0
          0 0 0 0 0 0
          0 0 0 0 0 0
          0 0 0 0 0 0
          0 0 0 0 0 0
          0 0 0 0 0 0
          0 0 0 0 0 0
          0 0 0 0 0 0
          0 0 0 0 0 0
          0 0 0 0 0 0
          0 0 0 0 0 0
          0 0 0 0 0 0
          0 0 0 0 0 0
          0 0 0 0 0 0
          0 0 0 0 0 0
          0 0 0 0 0 0
          0 0 0 0 0 0
          0 0 0 0 0 0
          0 0 0 0 0 0
          0 0 0 0 0 0
          0 0 0 0 0 0
          0 0 0 0 0 0
          0 0 0 0 0 0
          0 0 0 0 0 0
          0 0 0 0 0 0
          0 0 0 0 0 0
          0 0 0 0 0 0
          0 0 0 0 0 0
          0 0 0 0 0 0
          0 0 0 0 0 0
          0 0 0 0 0 0
          0 0 0 0 0 0
          0 0 0 0 0 0
          0 0 0 0 0 0
          0 0 0 0 0 0
          0 0 0 0 0 0
          0 0 0 0 0 0
          0 0 0 0 0 0
          0 0 0 0 0 0
          0 0 0 0 0 0
          0 0 0 0 0 0
          0 0 0 0 0 0
          0 0 0 0 0 0
          0 0 0 0 0 0
          0 0 0 0 0 0
          0 0 0 0 0 0
          0 0 0 0 0 0
          0
        </DataArray>
      </CellData>
      <Points>
        <DataArray type="Float32" Name="Points" NumberOfComponents="3" format="ascii" RangeMin="0" RangeMax="2.23606797749979">
          0 1 0 0.24261540174484253 0.8649494051933289 0
          0.21069319546222687 0.6498364210128784 0 0.34953638911247253 0.783900797367096 0
          0.44523489475250244 1 0 0 0.4946278929710388 0
          0.3742583096027374 0.6263176202774048 0 0.5146409869194031 0.8586311936378479 0
          0.5122411251068115 0.7040802836418152 0 0.6314340829849243 0.8915315866470337 0
          0.34778720140457153 0.4316847026348114 0 0.6513416767120361 0.7739235162734985 0
          0.1812518984079361 0.327796995639801 0 0.5305613875389099 0.5337535738945007 0
          0.6578786969184875 0.6491553783416748 0 0.7709903120994568 1 0
          0.7749627232551575 0.8251031041145325 0 0.6593123078346252 0.540820300579071 0
          0.3504413962364197 0.2692219913005829 0 0.5094156265258789 0.3637281060218811 0
          0.7756894826889038 0.7245360016822815 0 0.6530367136001587 0.4204886853694916 0
          0.8698862791061401 0.86524498462677 0 0.23061679303646088 0.14925479888916016 0
          0.7870808839797974 0.5955978035926819 0 0.8832021951675415 0.7690463066101074 0
          0.883834183216095 0.6815840005874634 0 0.7790071964263916 0.47012001276016235 0
          0.943653404712677 0.9129211902618408 0 0.6508759260177612 0.3017781972885132 0
          0.5188211798667908 0.19272080063819885 0 0.9766231179237366 0.8191543817520142 0
          0 0 0 0.7748612761497498 0.36140748858451843 0
          0.8893535137176514 0.5126696228981018 0 0.9773375988006592 0.7202939987182617 0
          1.0304019451141357 1 0 0.9778870940208435 0.6442286968231201 0
          0.8839955925941467 0.41567549109458923 0 0.6218419075012207 0.13435980677604675 0
          1.0578709840774536 0.8627331256866455 0 0.5544282793998718 0.0817701518535614 0
          0.3907737135887146 0 0 0.7748656868934631 0.24215810000896454 0
          1.0585850477218628 0.7638726830482483 0 0.9865022897720337 0.546703577041626 0
          1.0592069625854492 0.6778942942619324 0 0.9790397882461548 0.46214649081230164 0
          0.8813307285308838 0.30208128690719604 0 1.0596840381622314 0.6117402911186218 0
          0.7706493735313416 0.14215120673179626 0 1.1512919664382935 0.9128410816192627 0
          1.1398329734802246 0.8074514865875244 0 1.1298680305480957 0.7157946228981018 0
          0.9764469861984253 0.3642393946647644 0 1.0636279582977295 0.4870396852493286 0
          1.1304080486297607 0.6410195231437683 0 0.8840051889419556 0.18725669384002686 0
          1.130823016166687 0.5834828019142151 0 1.056697964668274 0.4203847050666809 0
          0.6862764954566956 0 0 1.1918619871139526 0.6739810705184937 0
          1.1373300552368164 0.5097163915634155 0 0.8456742763519287 0.09113164991140366 0
          1.2246860265731812 0.7733619809150696 0 0.9818741083145142 0.2327978014945984 0
          1.0570909976959229 0.33091479539871216 0 1.1923320293426514 0.608949601650238 0
          1.1310169696807861 0.44955670833587646 0 1.2728019952774048 1 0
          1.2709850072860718 0.880210816860199 0 1.1234960556030273 0.37665408849716187 0
          1.1997259855270386 0.539955198764801 0 1.2533149719238281 0.7069427967071533 0
          1.2457770109176636 0.6376162171363831 0 1.0704070329666138 0.24876759946346283 0
          0.973058819770813 0.12625029683113098 0 1.197275996208191 0.4626832902431488 0
          1.2461860179901123 0.5810585021972656 0 1.2930799722671509 0.7498363256454468 0
          1.1850579977035522 0.4090329110622406 0 1.246495008468628 0.5375037789344788 0
          1.1317319869995117 0.3004117012023926 0 1.0510989427566528 0.17534269392490387 0
          1.3231509923934937 0.8127543926239014 0 1.247642993927002 0.4962921142578125 0
          1.2926679849624634 0.6059898138046265 0 1.1853129863739014 0.3447658121585846 0
          0.9143813848495483 0 0 1.3562309741973877 0.8824052810668945 0
          1.331908941268921 0.6976677179336548 0 1.2930229902267456 0.5568017959594727 0
          1.2536059617996216 0.44047170877456665 0 1.2932859659194946 0.5188512802124023 0
          1.358062982559204 0.752387285232544 0 1.1476800441741943 0.2273976057767868 0
          1.2364970445632935 0.3705052137374878 0 1.0576640367507935 0.08961305022239685 0
          1.198788046836853 0.28192660212516785 0 1.3965870141983032 0.9420351982116699 0
          1.339486002922058 0.5830355882644653 0 1.296900987625122 0.4612540900707245 0
          1.3593889474868774 0.6415153741836548 0 1.2408130168914795 0.33055049180984497 0
          1.3337570428848267 0.5357058048248291 0 1.2842680215835571 0.3969537913799286 0
          1.4076149463653564 0.8135092258453369 0 1.3884249925613403 0.6998863220214844 0
          1.125535011291504 0.1323084980249405 0 1.333974003791809 0.5025256276130676 0
          1.3689149618148804 0.5545631051063538 0 1.2883549928665161 0.35340818762779236 0
          1.3373609781265259 0.460268497467041 0 1.3891619443893433 0.6036378741264343 0
          1.442113995552063 0.8857353925704956 0 1.1845619678497314 0.16944049298763275 0
          1.3691840171813965 0.5173586010932922 0 1.3281689882278442 0.4134156107902527 0
          1.4148310422897339 0.6542264223098755 0 1.4356809854507446 0.7484300136566162 0
          1.2449389696121216 0.23749999701976776 0 1.0668940544128418 0 0
          1.2865259647369385 0.30422499775886536 0 1.3683329820632935 0.48234230279922485 0
          1.4325439929962158 0.7015476822853088 0 1.3273730278015137 0.3785068094730377 0
          1.1312439441680908 0.05774974822998047 0 1.3997600078582764 0.5337589979171753 0
          1.3693959712982178 0.4375 0 1.420593023300171 0.5785223245620728 0
          1.3999929428100586 0.5014010071754456 0 1.3303240537643433 0.3336355984210968 0
          1.4377959966659546 0.614516019821167 0 1.189527988433838 0.10459709912538528 0
          1.291599988937378 0.25525349378585815 0 1.4817370176315308 0.816188395023346 0
          1.4535809755325317 0.6556069850921631 0 1.400089979171753 0.4749999940395355 0
          1.363690972328186 0.3670054078102112 0 1.4750690460205078 0.7017338871955872 0
          1.4265899658203125 0.5156692266464233 0 1.291599988937378 0.21974650025367737 0
          1.4046289920806885 0.44749999046325684 0 1.2408629655838013 0.1368906944990158 0
          1.4428269863128662 0.5487020015716553 0 1.329874038696289 0.28088149428367615 0
          1.388672947883606 0.40191650390625 0 1.400089979171753 0.42500001192092896 0
          1.5152009725570679 1 0 1.4267840385437012 0.48750001192092896 0
          1.4577610492706299 0.5799784064292908 0 1.495826005935669 0.743901789188385 0
          1.4718879461288452 0.6155762076377869 0 1.4267840385437012 0.4625000059604645 0
          1.286903977394104 0.1715863049030304 0 1.3711210489273071 0.31656309962272644 0
          1.5280139446258545 0.8886144757270813 0 1.400089979171753 0.375 0
          1.4267840385437012 0.4375 0 1.4500000476837158 0.5 0
          1.334102988243103 0.23749999701976776 0 1.462499976158142 0.5232160091400146 0
          1.4500000476837158 0.4749999940395355 0 1.475000023841858 0.549910306930542 0
          1.1741060018539429 0 0 1.4267840385437012 0.4124999940395355 0
          1.400089979171753 0.3499999940395355 0 1.2451820373535156 0.08049669116735458 0
          1.5091259479522705 0.6509906053543091 0 1.4500000476837158 0.44999998807907104 0
          1.4267840385437012 0.38749998807907104 0 1.329874038696289 0.19411849975585938 0
          1.49685800075531 0.576939582824707 0 1.373792052268982 0.2672621011734009 0
          1.475000023841858 0.5 0 1.4046289920806885 0.32249999046325684 0
          1.4500000476837158 0.42500001192092896 0 1.5317000150680542 0.6986371278762817 0
          1.4874999523162842 0.5232160091400146 0 1.4267840385437012 0.36250001192092896 0
          1.5136970281600952 0.608036994934082 0 1.400089979171753 0.30000001192092896 0
          1.5 0.549910306930542 0 1.2898279428482056 0.10858210176229477 0
          1.4500000476837158 0.4000000059604645 0 1.4267840385437012 0.3375000059604645 0
          1.5549399852752686 0.7545195817947388 0 1.4500000476837158 0.375 0
          1.5 0.5 0 1.4046289920806885 0.27250000834465027 0
          1.3243190050125122 0.1326799988746643 0 1.4267840385437012 0.3125 0
          1.3766390085220337 0.2133897989988327 0 1.5125000476837158 0.5232160091400146 0
          1.400089979171753 0.25 0 1.4500000476837158 0.3499999940395355 0
          1.5787349939346313 0.817522406578064 0 1.524999976158142 0.549910306930542 0
          1.534472942352295 0.5802894234657288 0 1.4267840385437012 0.2874999940395355 0
          1.5525259971618652 0.6160264015197754 0 1.2935839891433716 0.059537481516599655 0
          1.4500000476837158 0.32499998807907104 0 1.2528729438781738 0 0
          1.3677910566329956 0.16276350617408752 0 1.524999976158142 0.5 0
          1.5688509941101074 0.6567142009735107 0 1.4055360555648804 0.22300000488758087 0
          1.4267840385437012 0.26249998807907104 0 1.537500023841858 0.5232160091400146 0
          1.4500000476837158 0.30000001192092896 0 1.5875040292739868 0.7035049200057983 0
          1.4046289920806885 0.20250000059604645 0 1.5514010190963745 0.550006628036499 0
          1.3324099779129028 0.08395972847938538 0 1.4267840385437012 0.23749999701976776 0
          1.4500000476837158 0.2750000059604645 0 1.5673589706420898 0.580816388130188 0
          1.400089979171753 0.17499999701976776 0 1.608901023864746 0.75730961561203 0
          1.5499999523162842 0.5 0 1.4267840385437012 0.21250000596046448 0
          1.5857059955596924 0.6162425875663757 0 1.4500000476837158 0.25 0
          1.5499999523162842 0.4749999940395355 0 1.5656689405441284 0.5234097838401794 0
          1.3757330179214478 0.11139249801635742 0 1.400089979171753 0.15000000596046448 0
          1.636167049407959 0.877938985824585 0 1.4267840385437012 0.1875 0
          1.606801986694336 0.6569766998291016 0 1.6334830522537231 0.8191773891448975 0
          1.3356820344924927 0.04132461920380592 0 1.4500000476837158 0.22499999403953552 0
          1.5499999523162842 0.44999998807907104 0 1.5837589502334595 0.5502399802207947 0
          1.3126579523086548 0 0 1.5499999523162842 0.42500001192092896 0
          1.4267840385437012 0.16249999403953552 0 1.5732159614562988 0.48750001192092896 0
          1.4500000476837158 0.20000000298023224 0 1.4046289920806885 0.12250000238418579 0
          1.6310590505599976 0.7038137912750244 0 1.6045629978179932 0.5810853242874146 0
          1.3693959712982178 0.0625 0 1.5499999523162842 0.4000000059604645 0
          1.5732159614562988 0.4625000059604645 0 1.4267840385437012 0.13750000298023224 0
          1.4055360555648804 0.10199999809265137 0 1.4500000476837158 0.17499999701976776 0
          1.5732159614562988 0.4375 0 1.5499999523162842 0.375 0
          1.5987019538879395 0.5071730017662048 0 1.6589499711990356 0.7576683759689331 0
          1.400089979171753 0.07500000298023224 0 1.6330360174179077 0.6105144023895264 0
          1.5732159614562988 0.4124999940395355 0 1.3720799684524536 0.030764920637011528 0
          1.4267840385437012 0.11249999701976776 0 1.5499999523162842 0.3499999940395355 0
          1.4500000476837158 0.15000000596046448 0 1.599910020828247 0.4749999940395355 0
          1.359171986579895 0 0 1.5732159614562988 0.38749998807907104 0
          1.5499999523162842 0.32499998807907104 0 1.6559900045394897 0.657332181930542 0
          1.599910020828247 0.44999998807907104 0 1.400089979171753 0.05000000074505806 0
          1.4500000476837158 0.125 0 1.4267840385437012 0.08749999850988388 0
          1.694229006767273 0.9721128940582275 0 1.6285220384597778 0.5294066071510315 0
          1.5732159614562988 0.36250001192092896 0 1.691019058227539 0.8195918798446655 0
          1.5499999523162842 0.30000001192092896 0 1.4500000476837158 0.10000000149011612 0
          1.5732159614562988 0.3375000059604645 0 1.4267840385437012 0.0625 0
          1.6299779415130615 0.49223849177360535 0 1.599910020828247 0.4000000059604645 0
          1.6101399660110474 0.4265354871749878 0 1.6536380052566528 0.560837984085083 0
          1.5499999523162842 0.2750000059604645 0 1.687615990638733 0.7042226195335388 0
          1.6281720399856567 0.45960569381713867 0 1.5732159614562988 0.3125 0
          1.396064043045044 0 0 1.599910020828247 0.375 0
          1.4500000476837158 0.07500000298023224 0 1.5499999523162842 0.25 0
          1.5944639444351196 0.3479999899864197 0 1.4247850179672241 0.03125 0
          1.5732159614562988 0.2874999940395355 0 1.5953710079193115 0.32749998569488525 0
          1.7278939485549927 0.8907932043075562 0 1.5499999523162842 0.22499999403953552 0
          1.4500000476837158 0.05000000074505806 0 1.6645159721374512 0.512204110622406 0
          1.5732159614562988 0.26249998807907104 0 1.6915149688720703 0.5906115174293518 0
          1.7239810228347778 0.7581384181976318 0 1.4257750511169434 0 0
          1.6306040287017822 0.38749998807907104 0 1.5499999523162842 0.20000000298023224 0
          1.6655759811401367 0.47811180353164673 0 1.599910020828247 0.30000001192092896 0
          1.4500000476837158 0.02500000037252903 0 1.5732159614562988 0.23749999701976776 0
          1.6233609914779663 0.3383898138999939 0 1.5499999523162842 0.17499999701976776 0
          1.599910020828247 0.2750000059604645 0 1.6635169982910156 0.43574848771095276 0
          1.757601022720337 1 0 1.5732159614562988 0.21250000596046448 0
          1.4500000476837158 0 0 1.5953710079193115 0.2475000023841858 0
          1.704226016998291 0.5351688861846924 0 1.5499999523162842 0.15000000596046448 0
          1.5732159614562988 0.1875 0 1.5944639444351196 0.22699999809265137 0
          1.7657949924468994 0.820132315158844 0 1.7056070566177368 0.4964193105697632 0
          1.6315629482269287 0.28955650329589844 0 1.5499999523162842 0.125 0
          1.5732159614562988 0.16249999403953552 0 1.7569429874420166 0.6966850161552429 0
          1.665897011756897 0.36250001192092896 0 1.599910020828247 0.20000000298023224 0
          1.7476680278778076 0.6180905103683472 0 1.7050789594650269 0.454959899187088 0
          1.5499999523162842 0.10000000149011612 0 1.5732159614562988 0.13750000298023224 0
          1.6263920068740845 0.23846639692783356 0 1.695917010307312 0.3978567123413086 0
          1.599910020828247 0.17499999701976776 0 1.670125961303711 0.3191184997558594 0
          1.7498860359191895 0.5615748763084412 0 1.5499999523162842 0.07500000298023224 0
          1.5732159614562988 0.11249999701976776 0 1.5953240394592285 0.1496690958738327 0
          1.7515480518341064 0.5174555778503418 0 1.813873052597046 0.8914145827293396 0
          1.5499999523162842 0.05000000074505806 0 1.5732159614562988 0.08749999850988388 0
          1.6306040287017822 0.1875 0 1.599910020828247 0.125 0
          1.6696759462356567 0.2663643956184387 0 1.7519999742507935 0.47509559988975525 0
          1.708400011062622 0.34474650025367737 0 1.5499999523162842 0.02500000037252903 0
          1.5732159614562988 0.0625 0 1.7998360395431519 0.6569204926490784 0
          1.599910020828247 0.10000000149011612 0 1.6303679943084717 0.14834539592266083 0
          1.7504169940948486 0.42801278829574585 0 1.8233619928359985 0.7253139019012451 0
          1.5499999523162842 0 0 1.802386999130249 0.5919373035430908 0
          1.599910020828247 0.07500000298023224 0 1.5756349563598633 0.03125 0
          1.7134740352630615 0.29577499628067017 0 1.6306040287017822 0.11249999701976776 0
          1.747506022453308 0.37152960896492004 0 1.599910020828247 0.05000000074505806 0
          1.7982779741287231 0.5163602232933044 0 1.6905920505523682 0.2168668955564499 0
          1.5749590396881104 0 0 1.8574509620666504 0.8101668953895569 0
          1.8710520267486572 0.9458860158920288 0 1.6285220384597778 0.06845226138830185 0