<?xml version="1.0"?>
<VTKFile type="UnstructuredGrid" version="0.1" byte_order="LittleEndian" header_type="UInt32" compressor="vtkZLibDataCompressor">
  <UnstructuredGrid>
    <Piece NumberOfPoints="418" NumberOfCells="757">
      <PointData>
        <DataArray type="Float64" Name="nsi_BC" NumberOfComponents="3" format="ascii" RangeMin="0" RangeMax="1">
          0 0 0 0 0 0
          0 0 0 0 0 0
          0 0 0 1 0 0
          0 0 0 0 0 0
          0 0 0 0 0 0
          0 0 0 0 0 0
          0 0 0 0 0 0
          0 0 0 0 0 0
          0 0 0 0 0 0
          0 0 0 0 0 0
          0 0 0 0 0 0
          0 0 0 0 0 0
          0 0 0 0 0 0
          0 0 0 0 0 0
          0 0 0 0 0 0
          0 0 0 0 0 0
          0 0 0 0 0 0
          0 0 0 0 0 0
          0 0 0 0 0 0
          0 0 0 0 0 0
          0 0 0 0 0 0
          0 0 0 0 0 0
          0 0 0 0 0 0
          0 0 0 0 0 0
          0 0 0 0 0 0
          0 0 0 0 0 0
          0 0 0 0 0 0
          0 0 0 0 0 0
          0 0 0 0 0 0
          0 0 0 0 0 0
          0 0 0 0 0 0
          0 0 0 0 0 0
          0 0 0 0 0 0
          0 0 0 0 0 0
          0 0 0 0 0 0
          0 0 0 0 0 0
          0 0 0 0 0 0
          0 0 0 0 0 0
          0 0 0 0 0 0
          0 0 0 0 0 0
          0 0 0 0 0 0
          0 0 0 0 0 0
          0 0 0 0 0 0
          0 0 0 0 0 0
          0 0 0 0 0 0
          0 0 0 0 0 0
          0 0 0 0 0 0
          0 0 0 0 0 0
          0 0 0 0 0 0
          0 0 0 0 0 0
          0 0 0 0 0 0
          0 0 0 0 0 0
          0 0 0 0 0 0
          0 0 0 0 0 0
          0 0 0 0 0 0
          0 0 0 0 0 0
          0 0 0 0 0 0
          0 0 0 0 0 0
          0 0 0 0 0 0
          0 0 0 0 0 0
          0 0 0 0 0 0
          0 0 0 0 0 0
          0 0 0 0 0 0
          0 0 0 0 0 0
          0 0 0 0 0 0
          0 0 0 0 0 0
          0 0 0 0 0 0
          0 0 0 0 0 0
          0 0 0 0 0 0
          0 0 0 0 0 0
          0 0 0 0 0 0
          0 0 0 0 0 0
          0 0 0 0 0 0
          0 0 0 0 0 0
          0 0 0 0 0 0
          0 0 0 0 0 0
          0 0 0 0 0 0
          0 0 0 0 0 0
          0 0 0 0 0 0
          0 0 0 0 0 0
          0 0 0 0 0 0
          0 0 0 0 0 0
          0 0 0 0 0 0
          0 0 0 0 0 0
          0 0 0 0 0 0
          0 0 0 0 0 0
          0 0 0 0 0 0
          0 0 0 0 0 0
          0 0 0 0 0 0
          0 0 0 0 0 0
          0 0 0 0 0 0
          0 0 0 0 0 0
          0 0 0 0 0 0
          0 0 0 0 0 0
          0 0 0 0 0 0
          0 0 0 0 0 0
          0 0 0 0 0 0
          0 0 0 0 0 0
          0 0 0 0 0 0
          0 0 0 0 0 0
          0 0 0 0 0 0
          0 0 0 0 0 0
          0 0 0 0 0 0
          0 0 0 0 0 0
          0 0 0 0 0 0
          0 0 0 0 0 0
          0 0 0 0 0 0
          0 0 0 0 0 0
          0 0 0 0 0 0
          0 0 0 0 0 0
          0 0 0 0 0 0
          0 0 0 0 0 0
          0 0 0 0 0 0
          0 0 0 0 0 0
          0 0 0 0 0 0
          0 0 0 0 0 0
          0 0 0 0 0 0
          0 0 0 0 0 0
          0 0 0 0 0 0
          0 0 0 0 0 0
          0 0 0 0 0 0
          0 0 0 0 0 0
          0 0 0 0 0 0
          0 0 0 0 0 0
          0 0 0 0 0 0
          0 0 0 0 0 0
          0 0 0 0 0 0
          0 0 0 0 0 0
          0 0 0 0 0 0
          0 0 0 0 0 0
          0 0 0 0 0 0
          0 0 0 0 0 0
          0 0 0 0 0 0
          0 0 0 0 0 0
          0 0 0 0 0 0
          0 0 0 0 0 0
          0 0 0 0 0 0
          0 0 0 0 0 0
          0 0 0 0 0 0
          0 0 0 0 0 0
          0 0 0 0 0 0
          0 0 0 0 0 0
          0 0 0 0 0 0
          0 0 0 0 0 0
          0 0 0 0 0 0
          0 0 0 0 0 0
          0 0 0 0 0 0
          0 0 0 0 0 0
          0 0 0 0 0 0
          0 0 0 0 0 0
          0 0 0 0 0 0
          0 0 0 0 0 0
          0 0 0 0 0 0
          0 0 0 0 0 0
          0 0 0 0 0 0
          0 0 0 0 0 0
          0 0 0 0 0 0
          0 0 0 0 0 0
          0 0 0 0 0 0
          0 0 0 0 0 0
          0 0 0 0 0 0
          0 0 0 0 0 0
          0 0 0 0 0 0
          0 0 0 0 0 0
          0 0 0 0 0 0
          0 0 0 0 0 0
          0 0 0 0 0 0
          0 0 0 0 0 0
          0 0 0 0 0 0
          0 0 0 0 0 0
          0 0 0 0 0 0
          0 0 0 0 0 0
          0 0 0 0 0 0
          0 0 0 0 0 0
          0 0 0 0 0 0
          0 0 0 0 0 0
          0 0 0 0 0 0
          0 0 0 0 0 0
          0 0 0 0 0 0
          0 0 0 0 0 0
          0 0 0 0 0 0
          0 0 0 0 0 0
          0 0 0 0 0 0
          0 0 0 0 0 0
          0 0 0 0 0 0
          0 0 0 0 0 0
          0 0 0 0 0 0
          0 0 0 0 0 0
          0 0 0 0 0 0
          0 0 0 0 0 0
          0 0 0 0 0 0
          0 0 0 0 0 0
          0 0 0 0 0 0
          0 0 0 0 0 0
          0 0 0 0 0 0
          0 0 0 0 0 0
          0 0 0 0 0 0
          0 0 0 0 0 0
          0 0 0 0 0 0
          0 0 0 0 0 0
          0 0 0 0 0 0
          0 0 0 0 0 0
          0 0 0 0 0 0
          0 0 0 0 0 0
          0 0 0 0 0 0
          0 0 0 0 0 0
          0 0 0 0 0 0
          0 0 0 0 0 0
          0 0 0 0 0 0
          <InformationKey name="L2_NORM_RANGE" location="vtkDataArray" length="2">
            <Value index="0">
              0
            </Value>
            <Value index="1">
              1
            </Value>
          </InformationKey>
        </DataArray>
        <DataArray type="Float64" Name="nsi_FIXNO" NumberOfComponents="3" format="ascii" RangeMin="1.4142135623730951" RangeMax="1.4142135623730951">
          1 1 0 -1 -1 0
          -1 -1 0 -1 -1 0
          1 1 0 1 1 0
          -1 -1 0 -1 -1 0
          -1 -1 0 -1 -1 0
          -1 -1 0 -1 -1 0
          -1 -1 0 -1 -1 0
          -1 -1 0 1 1 0
          -1 -1 0 -1 -1 0
          -1 -1 0 -1 -1 0
          -1 -1 0 -1 -1 0
          -1 -1 0 -1 -1 0
          -1 -1 0 -1 -1 0
          -1 -1 0 -1 -1 0
          -1 -1 0 -1 -1 0
          -1 -1 0 -1 -1 0
          1 1 0 -1 -1 0
          -1 -1 0 -1 -1 0
          1 1 0 -1 -1 0
          -1 -1 0 -1 -1 0
          -1 -1 0 -1 -1 0
          1 1 0 -1 -1 0
          -1 -1 0 -1 -1 0
          -1 -1 0 -1 -1 0
          -1 -1 0 -1 -1 0
          -1 -1 0 -1 -1 0
          -1 -1 0 -1 -1 0
          -1 -1 0 -1 -1 0
          -1 -1 0 -1 -1 0
          -1 -1 0 -1 -1 0
          1 1 0 -1 -1 0
          -1 -1 0 -1 -1 0
          -1 -1 0 -1 -1 0
          -1 -1 0 -1 -1 0
          -1 -1 0 1 1 0
          -1 -1 0 -1 -1 0
          -1 -1 0 -1 -1 0
          -1 -1 0 -1 -1 0
          -1 -1 0 -1 -1 0
          -1 -1 0 -1 -1 0
          -1 -1 0 -1 -1 0
          -1 -1 0 -1 -1 0
          -1 -1 0 -1 -1 0
          -1 -1 0 -1 -1 0
          1 1 0 -1 -1 0
          -1 -1 0 -1 -1 0
          -1 -1 0 -1 -1 0
          -1 -1 0 -1 -1 0
          -1 -1 0 -1 -1 0
          -1 -1 0 -1 -1 0
          -1 -1 0 -1 -1 0
          -1 -1 0 -1 -1 0
          -1 -1 0 -1 -1 0
          -1 -1 0 -1 -1 0
          -1 -1 0 -1 -1 0
          -1 -1 0 -1 -1 0
          -1 -1 0 -1 -1 0
          -1 -1 0 -1 -1 0
          -1 -1 0 -1 -1 0
          -1 -1 0 -1 -1 0
          -1 -1 0 1 1 0
          -1 -1 0 -1 -1 0
          -1 -1 0 -1 -1 0
          -1 -1 0 -1 -1 0
          -1 -1 0 -1 -1 0
          -1 -1 0 -1 -1 0
          -1 -1 0 -1 -1 0
          -1 -1 0 -1 -1 0
          -1 -1 0 -1 -1 0
          -1 -1 0 -1 -1 0
          -1 -1 0 -1 -1 0
          -1 -1 0 -1 -1 0
          -1 -1 0 -1 -1 0
          -1 -1 0 -1 -1 0
          1 1 0 -1 -1 0
          -1 -1 0 -1 -1 0
          -1 -1 0 -1 -1 0
          -1 -1 0 -1 -1 0
          -1 -1 0 -1 -1 0
          -1 -1 0 1 1 0
          -1 -1 0 -1 -1 0
          1 1 0 -1 -1 0
          1 1 0 -1 -1 0
          -1 -1 0 -1 -1 0
          -1 -1 0 1 1 0
          -1 -1 0 -1 -1 0
          -1 -1 0 -1 -1 0
          1 1 0 -1 -1 0
          1 1 0 -1 -1 0
          -1 -1 0 -1 -1 0
          -1 -1 0 -1 -1 0
          -1 -1 0 -1 -1 0
          1 1 0 -1 -1 0
          -1 -1 0 1 1 0
          1 1 0 -1 -1 0
          -1 -1 0 -1 -1 0
          -1 -1 0 -1 -1 0
          -1 -1 0 1 1 0
          -1 -1 0 -1 -1 0
          -1 -1 0 -1 -1 0
          -1 -1 0 -1 -1 0
          1 1 0 1 1 0
          -1 -1 0 1 1 0
          -1 -1 0 -1 -1 0
          -1 -1 0 -1 -1 0
          1 1 0 -1 -1 0
          -1 -1 0 -1 -1 0
          -1 -1 0 -1 -1 0
          1 1 0 -1 -1 0
          -1 -1 0 -1 -1 0
          1 1 0 -1 -1 0
          -1 -1 0 1 1 0
          1 1 0 -1 -1 0
          -1 -1 0 -1 -1 0
          -1 -1 0 -1 -1 0
          -1 -1 0 -1 -1 0
          -1 -1 0 1 1 0
          1 1 0 -1 -1 0
          1 1 0 1 1 0
          -1 -1 0 -1 -1 0
          1 1 0 -1 -1 0
          -1 -1 0 -1 -1 0
          -1 -1 0 1 1 0
          -1 -1 0 -1 -1 0
          -1 -1 0 1 1 0
          -1 -1 0 1 1 0
          -1 -1 0 -1 -1 0
          -1 -1 0 -1 -1 0
          -1 -1 0 -1 -1 0
          -1 -1 0 1 1 0
          1 1 0 -1 -1 0
          1 1 0 -1 -1 0
          1 1 0 -1 -1 0
          -1 -1 0 -1 -1 0
          1 1 0 -1 -1 0
          -1 -1 0 -1 -1 0
          -1 -1 0 -1 -1 0
          1 1 0 1 1 0
          -1 -1 0 -1 -1 0
          -1 -1 0 -1 -1 0
          -1 -1 0 -1 -1 0
          1 1 0 -1 -1 0
          -1 -1 0 -1 -1 0
          1 1 0 -1 -1 0
          1 1 0 1 1 0
          -1 -1 0 -1 -1 0
          -1 -1 0 -1 -1 0
          -1 -1 0 1 1 0
          1 1 0 -1 -1 0
          -1 -1 0 -1 -1 0
          -1 -1 0 1 1 0
          -1 -1 0 1 1 0
          -1 -1 0 -1 -1 0
          1 1 0 -1 -1 0
          -1 -1 0 1 1 0
          -1 -1 0 -1 -1 0
          1 1 0 -1 -1 0
          1 1 0 -1 -1 0
          -1 -1 0 1 1 0
          -1 -1 0 -1 -1 0
          -1 -1 0 -1 -1 0
          -1 -1 0 1 1 0
          -1 -1 0 -1 -1 0
          -1 -1 0 -1 -1 0
          -1 -1 0 -1 -1 0
          1 1 0 -1 -1 0
          -1 -1 0 -1 -1 0
          -1 -1 0 -1 -1 0
          -1 -1 0 1 1 0
          -1 -1 0 -1 -1 0
          -1 -1 0 -1 -1 0
          1 1 0 -1 -1 0
          -1 -1 0 -1 -1 0
          -1 -1 0 -1 -1 0
          -1 -1 0 1 1 0
          -1 -1 0 -1 -1 0
          -1 -1 0 -1 -1 0
          -1 -1 0 -1 -1 0
          1 1 0 -1 -1 0
          -1 -1 0 -1 -1 0
          -1 -1 0 -1 -1 0
          -1 -1 0 -1 -1 0
          -1 -1 0 -1 -1 0
          1 1 0 -1 -1 0
          -1 -1 0 -1 -1 0
          -1 -1 0 -1 -1 0
          -1 -1 0 -1 -1 0
          1 1 0 -1 -1 0
          -1 -1 0 -1 -1 0
          -1 -1 0 -1 -1 0
          -1 -1 0 -1 -1 0
          -1 -1 0 -1 -1 0
          1 1 0 -1 -1 0
          -1 -1 0 -1 -1 0
          -1 -1 0 -1 -1 0
          -1 -1 0 -1 -1 0
          -1 -1 0 -1 -1 0
          1 1 0 -1 -1 0
          -1 -1 0 -1 -1 0
          1 1 0 -1 -1 0
          -1 -1 0 -1 -1 0
          -1 -1 0 -1 -1 0
          -1 -1 0 -1 -1 0
          1 1 0 -1 -1 0
          -1 -1 0 -1 -1 0
          -1 -1 0 -1 -1 0
          -1 -1 0 -1 -1 0
          1 1 0 -1 -1 0
          -1 -1 0 1 1 0
          <InformationKey name="L2_NORM_RANGE" location="vtkDataArray" length="2">
            <Value index="0">
              1.4142135624
            </Value>
            <Value index="1">
              1.4142135624
            </Value>
          </InformationKey>
        </DataArray>
        <DataArray type="Float64" Name="Velocity" NumberOfComponents="3" format="ascii" RangeMin="0" RangeMax="1.4180266196874587">
          0 0 0 0.31914534264021305 0.024869852885998585 0
          0.7327071290223535 0.10226540237477505 0 0.5180856598821654 0.04113319409388348 0
          0 0 0 1 0 0
          0.7146283914161977 0.031103523569351227 0 0.3759035120997824 0.02549395200177628 0
          0.644075720788219 0.04358020822716567 0 0.32055218254928775 0.006013060505111137 0
          0.6654302227972515 0.025793943186048333 0 0.568696217547184 0.037290638517106706 0
          0.7022397005708475 -0.09606230519540684 0 0.7070805772244548 0.03283589551861205 0
          0.6769765778299116 0.05052618961747372 0 0 0 0
          0.5184247521627033 0.02750198381157945 0 0.7071117205273073 0.05800339082643476 0
          0.6056339684417835 -0.009435664519153859 0 0.6447567940954159 0.03467693072314548 0
          0.6608190701236798 0.058593039068667224 0 0.6715713383474066 0.054018627980382046 0
          0.4357821369704081 0.03625391365582803 0 0.34713120028326117 -0.02831338039180235 0
          0.7120377293963448 0.09590137912200332 0 0.649195030413491 0.07797466630939175 0
          0.7324248420939766 0.11552773773183876 0 0.6884075246012646 0.0927047711760794 0
          0.32986204021841437 0.011513192825830722 0 0.5706492661115447 0.037866275311737925 0
          0.4490116785556087 -0.004208161875521154 0 0.6109431981843267 0.08827066872167484 0
          0 0 0 0.6112518984955881 0.07368396207092406 0
          0.7044416900933558 0.1513626371389409 0 0.7546327429034199 0.15086166102322018 0
          0 0 0 0.7611434385985646 0.18681000788301808 0
          0.633089241874424 0.13221282293875958 0 0.3332809994451711 0.0058748960591935755 0
          0.5753523331122375 0.08310942074719689 0 0.2065109347215815 0.003929970101037336 0
          0 0 0 0.47620919587760513 0.04543413295883598 0
          0.7680703494462565 0.17915717301066983 0 0.7290384311856314 0.22052348581908132 0
          0.8162048022009292 0.24130150572397838 0 0.6524379097110069 0.20605682855660598 0
          0.5204778378436589 0.09216662065654622 0 0.7895770494033629 0.27978915434981977 0
          0.32374152381485727 0.023087861812384924 0 0.4675197239468102 0.023728288359398962 0
          0.8012571939748094 0.1494385621160821 0 0.8721218848324493 0.271573914030005 0
          0.5474029085490316 0.16649972494556212 0 0.6654050249630336 0.29110835992519896 0
          0.8536761499606867 0.33948040264554125 0 0.3677789650670782 0.04751270855248438 0
          0.7769818845229727 0.37013787697003114 0 0.5733131496376794 0.25702245322482714 0
          0 0 0 0.9384908773750072 0.3608327742937878 0
          0.683389948591505 0.37646508785558624 0 0.1984857070925003 0.011041393949129785 0
          0.98680558922118 0.23265759646895415 0 0.38756135830237 0.09445798498236618 0
          0.4578441620869057 0.19582017233370994 0 0.8565237270766952 0.4242500613675377 0
          0.5734815837513811 0.3400117264757513 0 0 0 0
          0.7526925843295221 0.09968441494628971 0 0.462481784921647 0.27680790735448263 0
          0.7228368958805148 0.4687621227242738 0 1.0496296224053088 0.35596375681180215 0
          0.9536449132112611 0.46298932699004536 0 0.3407039204656983 0.13216097446027683 0
          0.23275779314852862 0.03665396897261103 0 0.5512260549350491 0.42344751760999855 0
          0.8351605954963548 0.5169237530177065 0 1.1185916389589852 0.28232566764418515 0
          0.45517857644488063 0.3558717907331849 0 0.7104377692426835 0.521517481575118 0
          0.34814741083551465 0.20074621778959637 0 0.26319646831177107 0.06792291323153951 0
          1.0388843841652289 0.1894514535341305 0 0.5934813822825703 0.5067076098753444 0
          0.9507843361411801 0.5257738372700601 0 0.342143477121643 0.27522149399808554 0
          0 0 0 0.8360210628240741 0.08204683325545874 0
          1.1889030033208399 0.3801336336917907 0 0.7773426841727603 0.5705692369287767 0
          0.4285417173474865 0.4367723405417209 0 0.6290890978427975 0.5634042080863014 0
          1.2275869710686418 0.27226224251572206 0 0.2463011421578278 0.1297120178212751 0
          0.3107107103552473 0.32516842716030986 0 0.13683053087815103 0.017502930834105285 0
          0.2510152143035221 0.19902051240016078 0 0.47825748537494034 0.010233295013797609 0
          0.924394022820119 0.5669273081628082 0 0.4132457923048449 0.49277368794624804 0
          1.1434187802962674 0.4718188723915976 0 0.24736196869295193 0.2647520038709518 0
          0.6871281300234348 0.5941557609386222 0 0.2750004341907369 0.36518441771413857 0
          1.172296970876846 0.13775820217554863 0 1.295074513167502 0.32753504692835766 0
          0.1567216496886065 0.0483081877422122 0 0.5131924589251574 0.5679388299591743 0
          0.7987595546756953 0.5745841336292462 0 0.20161882431721226 0.2866342382481705 0
          0.3193861208347752 0.4676662449680277 0 1.0762821722464244 0.4857879520506471 0
          0.9180987926928162 0.026548058300730818 0 0.15004338766225012 0.07931320691865909 0
          0.5504459933426975 0.5637273231424584 0 0.21347935101423046 0.3636099303451019 0
          1.2694308352266206 0.3553604629185094 0 1.3517454451124369 0.1903418943582066 0
          0.15013684448674844 0.1379249981413558 0 0 0 0
          0.1554290957980353 0.2097318840058488 0 0.3217235233841176 0.4892679334366839 0
          1.3580028404457278 0.2550746966516983 0 0.166155596192565 0.2960259597679614 0
          0.06773401992240902 0.00926320387002305 0 0.6512852097089641 0.5095529146352727 0
          0.15284717761333072 0.33926913773026923 0 0.9831123943717801 0.4231448852256914 0
          0.36021911793057076 0.4598347587265701 0 0.11068250373606148 0.21262213649783357 0
          1.1777109610003769 0.3375319017509045 0 0.09012046533680979 0.03501700338574381 0
          0.10807119592116361 0.1439083822563212 0 1.251780903797292 0.05410452390787165 0
          1.3155784278538294 0.25154960042209645 0 0.16035147382324166 0.34892955502896084 0
          0.08350328904230726 0.20441514768478833 0 1.4054328451123275 0.14925712865991625 0
          0.4262147281850695 0.3590853807283809 0 0.09218997467227386 0.10678872247535898 0
          0.07272826174290163 0.24727456944252638 0 0.08099545075403665 0.04975369183079539 0
          0.7620052906115502 0.3074957563335324 0 0.08074308676622531 0.14234109990214944 0
          0.06703615159081984 0.2161986441095713 0 0.06996080342111058 0.21540388198651264 0
          0 0 0 0.08370641358302124 0.2190909347485174 0
          0.9923951714688684 0.2525189830837782 0 1.4028986283393567 0.07494291080422348 0
          1.193649312349717 0.20802325973412156 0 0.04048753413187637 0.15801981286247824 0
          0.06593752041767278 0.06555452085049628 0 0.04772517076542842 0.13159746230721583 0
          0.9227493572667429 0.004241477612551615 0 0.032010133094970424 0.14588319005446185 0
          0.021307620556326814 0.12503677708699923 0 0 0 0
          0.05800600300106477 0.09638857972349099 0 0.39957522530634865 0.0700539290853967 0
          0 0 0 0.7041938044162654 0.11162188156772843 0
          0 0 0 0.01731427521736809 0.09610087104294443 0
          0.029119508900513437 0.11539750595085199 0 0.04560395771055025 0.01571685644673622 0
          1.331381929998729 0.06460564868215905 0 0 0 0
          0.010993066121502797 0.07261093521714433 0 0.04571969583082075 0.06412076334344646 0
          0.9267148753429558 0.07365448384090935 0 0.03382662480932644 0.08429213541409797 0
          0 0 0 0.018928449462448642 0.08351320483336847 0
          0 0 0 1.4180204444964728 0.004184869444314228 0
          0.3528682882010539 0.02762488221623805 0 0.0066180128189472255 0.05939951171743994 0
          1.1311622463776936 0.025548983207365223 0 0.018420682712983662 0.0742077731623533 0
          0.6727324179931452 0.03865705300741003 0 0.037414251455625755 0.02587800097321169 0
          0 0 0 0.006890213009547685 0.047096266955556826 0
          1.4078023486992353 -0.033506989745759344 0 0 0 0
          0 0 0 0.014216310756083851 0.05260038081737947 0
          0.028713213733487453 0.030707376550149292 0 0.004950635064373075 0.03829919606026038 0
          0.020727107497742734 0.046714778032001365 0 0.33463124673997824 -0.00038993713139695216 0
          0.013331430898438686 0.04558598391665261 0 0 0 0
          1.2509673189163937 -0.05098287407864016 0 0.6592902813349923 -0.024457384026750174 0
          0.9420369617860466 -0.058674172806505324 0 0.004534767437945992 0.030056898264973722 0
          1.1563053305623145 -0.10041018753492803 0 0.020684480183056755 0.006834069427896237 0
          0 0 0 0 0 0
          0.01655319611327221 0.027906042621031277 0 0 0 0
          1.3175339778332213 -0.1223555159361616 0 0.008952740109393368 0.03046494615291998 0
          0.0038991281817807814 0.02327436722936476 0 0.3415615011951297 -0.027360836950057213 0
          0 0 0 1.3951436070047956 -0.1329420631752553 0
          0.008604828485183295 0.023910007304188286 0 0.6755946715970489 -0.12635993859061914 0
          0.014366697323519466 0.011948314544538277 0 0.0031317218262323266 0.01719183426840483 0
          0 0 0 0.928690127648921 -0.1753855077863305 0
          0.005695698853851311 0.018663728677010574 0 1.3730009565851975 -0.13175436219157055 0
          0 0 0 0.0028256424227197825 0.012726106783891411 0
          1.1325246920139678 -0.20577797056052025 0 0 0 0
          0 0 0 0.3921590193867173 -0.1750521126751701 0
          0.00763569582317675 0.01028087806357613 0 0.005597210570233323 0.0125107583949825 0
          0.9354313562933088 -0.05093924914863566 0 0.0017389196368899431 0.0086876892189798 0
          1.282479536887921 -0.21737266793260218 0 1.2031380324922891 -0.101035695861863 0
          0.007772208934107563 0.0025955679059172713 0 0 0 0
          0 0 0 0.6723755233543499 -0.24530995536156527 0
          0 0 0 0 0 0
          0.0010862450503204347 0.00616555547271495 0 0.046626935461858504 -0.08151565511667189 0
          0 0 0 0.003333855258807411 0.007224078233753107 0
          1.356587851744407 -0.21858221240260303 0 0.9017400573568868 -0.2827782286253119 0
          0.004610404695137794 0.0034680928665757602 0 0 0 0
          0.026128308570891358 -0.04026455160701373 0 0.0012451832728183237 0.003789198400047736 0
          0.002881139050038781 0.004509555795044574 0 0 0 0
          0.014997276445659099 -0.01485850746811056 0 0 0 0
          0.31110081490586194 -0.2231654617216957 0 1.3172753803533228 -0.18977236904749295 0
          0.0014993516698235407 0.0026736427882063933 0 1.0593373524171752 -0.31982654065967336 0
          0.006332016666268899 0.0023925750897110776 0 0.002567065398976913 0.0007023363046173165 0
          0.0009773752771452073 0.002252974281993178 0 0 0 0
          0 0 0 0.10238889902158063 -0.12216012880276957 0
          0 0 0 0.002191956606805181 0.008108624004662057 0
          0 0 0 1.2261246728273485 -0.31182329000105297 0
          0.06450931320015232 -0.07285862079174242 0 0.0014778358045766482 0.0011628827459390634 0
          0 0 0 0.0004924421972427321 0.0009887646300806132 0
          0.2526433149452963 -0.007816578947080913 0 0.5402576502536021 -0.3038114157263366 0
          0.0013482117342650897 0.011492452745925915 0 1.1498109045289013 -0.15102862872726427 0
          0 0 0 0 0 0
          0.0012001883768405972 0.012955794470023227 0 0.00032840076634641153 0.00042811435479946905 0
          0.29125045825200946 -0.23421763586209282 0 0.017187157562107033 -0.01779040871057853 0
          0.05233053988059859 -0.05540889323157203 0 0.772734786862599 -0.35265303448017105 0
          0 0 0 1.285708059373733 -0.28119434697928614 0
          0.1393823976840808 -0.1420033606184336 0 0.0003291355880891956 0.014378841412361353 0
          0 0 0 0.010575166526775063 -0.0026401196459227365 0
          0 0 0 0 0 0
          0.005029788780244517 0.008870862638869095 0 0.00017700322008531357 -0.00010706157729062741 0
          -0.00029271588764091154 0.01441747922853695 0 0.004612490596715436 0.01387107756793774 0
          0.7803366677692024 -0.09511172154271379 0 0 0 0
          0 0 0 0.4807722078175326 -0.3146797668686152 0
          -0.0000962080071584595 0.014293031601865598 0 0.9383590227261741 -0.3748393275507292 0
          1.2332757914219006 -0.2417733039413129 0 0 0 0
          0.035081385751231015 -0.03571940928704825 0 0 0 0
          0.3068855201942113 -0.24894500823423046 0 0.0011463722074706276 0.018077240110978804 0
          0 0 0 -0.00032972160772323924 0.013774653940916353 0
          0.014426422902104054 0.0012466065758231185 0 0 0 0
          0.000739322247148901 0.020454997343903294 0 0.15919394939275744 -0.15204552944958405 0
          0 0 0 -0.0007197973303167259 0.012893665076649751 0
          0 0 0 -0.00024823710137873267 0.019906462952705872 0
          0.6568890645151948 -0.3656084885821213 0 0 0 0
          -0.0010224348483118446 0.011314893941109566 0 -0.0010567615415291774 0.01947008689805174 0
          1.071590857367123 -0.17061072639993644 0 0.4672467437168139 -0.3178929406043638 0
          0.006862698974699225 0.01301778216164928 0 0 0 0
          -0.0010402686342929623 0.009685947612687183 0 1.1991194920234338 -0.32673607734288423 0
          0.054080174397887405 -0.05143198213876161 0 -0.0030312299843021097 0.019174602016424198 0
          1.0341844746297164 -0.39763720599221297 0 0.2999797466014281 -0.24452203621242932 0
          0 0 0 -0.0009748998872429038 0.008103246512235004 0
          -0.00024339831477363262 0.020490037516223338 0 0.13877631635156573 -0.13488013892279824 0
          -0.0032005015332916176 0.01710089355827567 0 0.034085363768303616 -0.025312624338957538 0
          0.811783010843799 -0.39933262084573157 0 0 0 0
          -0.0010948089511297024 0.006243227055834852 0 -0.002849214839425436 0.013927066245994588 0
          0.6220324057379539 -0.36016437007740576 0 0.6941430702730598 -0.08334570256516464 0
          0 0 0 -0.0011399633544015688 0.004345072562700258 0
          -0.005396028792547342 0.019274080993204386 0 -0.0037084192612784465 0.012010318603968336 0
          0.012517776051426854 0.000987034302414777 0 0.45247304365186336 -0.3071575383013428 0
          0.08194164118488592 -0.08434248803921703 0 0 0 0
          -0.0011077421596664015 0.002433363694729919 0 1.090874065366498 -0.3798390227183648 0
          -0.0037979985466571726 0.009025718961047946 0 -0.00639362636295809 0.016365331273531125 0
          0.3003587305512278 -0.23900412605273091 0 1.1306541513767334 -0.3105931890238453 0
          0 0 0 0.9419718770919279 -0.3963851277927515 0
          -0.0038227280310439192 0.006099408629393579 0 -0.000491687697792498 0.0006701909282386627 0
          0.05444757189844586 -0.04593344330090736 0 -0.0076107959508247445 0.012161380761872408 0
          0.16310912358579618 -0.15212104097003096 0 -0.003024817502971733 0.0033133295580445856 0
          0.6665335531023401 -0.36225714318416885 0 0.0010745637572648484 0.0003200825793176313 0
          0 0 0 0.9885417718698516 -0.20929805388042047 0
          0.3103148429858017 -0.01734464189223109 0 -0.0070996433839904316 0.006264207853506618 0
          -0.007603652991905414 0.006757218169871615 0 -0.009320046880632187 0.009080758854795963 0
          0.1152553104530769 -0.10621640372572973 0 0.4276104492609062 -0.29329746333317974 0
          0 0 0 -0.0034601318829874574 0.0015599210055309547 0
          1.0207006884407446 -0.34437152617633326 0 0.021856816514268403 -0.037533872629959206 0
          -0.012126349272872653 0.0060490700657347745 0 -0.0006268795094075139 -0.011549850255155735 0
          0.8085860191592729 -0.3580773077686878 0 0.21570372439412733 -0.18352883221439317 0
          0.5395597857101888 -0.07244198223924231 0 -0.009379647271134642 -0.0007573919450447376 0
          0 0 0 -0.008082682321672533 0.0019328174059511627 0
          0.5601577408988077 -0.32020951098332995 0 1.0587568300271286 -0.2756019185337372 0
          0.07559924553729741 -0.08662038103915304 0 0.3563845764213292 -0.2540313380045251 0
          0.02325521723204834 -0.040972948740020776 0 0.0007801135913974788 -0.015788706060159568 0
          -0.012328460786266902 0.0008594305433221313 0 0.9508393435710056 -0.3267289082760917 0
          0 0 0 -0.008821736578419536 -0.0037236870279836534 0
          0.7318303287945565 -0.3467091526080085 0 0.488482897358836 -0.30079807377167006 0
          0 0 0 0.1666799410352462 -0.1488260278506536 0
          0.0684618667455185 -0.07903039090684001 0 0.9376520452856002 -0.0943114270010554 0
          0.02774171504137552 -0.03988782636583122 0 -0.009101234885764836 -0.001602559772665111 0
          0.003739851526011689 -0.01464856157503091 0 0.305944433102106 -0.2348441954622953 0
          0 0 0 0.959915682801241 -0.3796653608904242 0
          -0.002305140865099888 -0.0011352435626532072 0 0.1460918383096806 -0.14477644951548485 0
          0.06806264895602185 -0.06726174837365062 0 0.5639146202633165 -0.4137516349853927 0
          0.019692965268823935 -0.018788487755538593 0 0.28671637866993327 -0.28334942392007784 0
          0 0 0 0.06309352579350944 -0.03886772779201096 0
          0.14696453816652422 -0.119286929951581 0 0 0 0
          <InformationKey name="L2_NORM_RANGE" location="vtkDataArray" length="2">
            <Value index="0">
              0
            </Value>
            <Value index="1">
              1.4180266197
            </Value>
          </InformationKey>
        </DataArray>
        <DataArray type="Float64" Name="Pressure" format="ascii" RangeMin="-8.699783069421212" RangeMax="36.96657887762839">
          36.2973071988184 36.478209248184605 36.78744727391028 36.25362088467516 36.102965003218074 36.824076289928165
          36.10142255125231 35.590978646871754 35.415936741976964 34.67854687676928 36.153257644694705 34.45363608695492
          36.96657887762839 35.341068575748245 34.439779484201665 33.67098924876395 33.51338134030969 34.53996177707518
          36.54191366309405 35.59429876742779 33.3546448892222 34.792754505983204 32.40013766723471 36.94308811640977
          33.51728769073422 32.22391915758088 32.326779057325595 33.93279738818266 31.420670791403708 34.98008402069883
          36.00245572870585 30.85120927180096 36.74609721200338 34.21160711227065 33.06394581962778 31.140677677906524
          30.286359075610132 31.54032979797169 33.51432065040874 35.27629189055584 29.4268390343825 35.716149035857626
          36.813472247055074 34.412202687228245 29.60513720904708 32.1031509226124 30.105171215590584 32.761459616181575
          33.864720713147136 30.70587923494831 34.55665372548379 27.40918464236653 27.764584772845712 28.44166899101317
          33.376602417457825 32.00318395995746 29.27265590868259 34.02611566231657 30.12422474378752 32.72121753112534
          34.82325408889799 27.435720884383503 31.073056504497167 34.14290489640138 25.738939439540978 33.769086518227866