<?xml version="1.0"?>
<VTKFile type="UnstructuredGrid" version="0.1" byte_order="LittleEndian" header_type="UInt32" compressor="vtkZLibDataCompressor">
  <UnstructuredGrid>
    <Piece NumberOfPoints="418" NumberOfCells="757">
      <PointData>
        <DataArray type="Float64" Name="nsi_BC" NumberOfComponents="3" format="ascii" RangeMin="0" RangeMax="1">
          0 0 0 0 0 0
          0 0 0 0 0 0
          0 0 0 1 0 0
          0 0 0 0 0 0
          0 0 0 0 0 0
          0 0 0 0 0 0
          0 0 0 0 0 0
          0 0 0 0 0 0
          0 0 0 0 0 0
          0 0 0 0 0 0
          0 0 0 0 0 0
          0 0 0 0 0 0
          0 0 0 0 0 0
          0 0 0 0 0 0
          0 0 0 0 0 0
          0 0 0 0 0 0
          0 0 0 0 0 0
          0 0 0 0 0 0
          0 0 0 0 0 0
          0 0 0 0 0 0
          0 0 0 0 0 0
          0 0 0 0 0 0
          0 0 0 0 0 0
          0 0 0 0 0 0
          0 0 0 0 0 0
          0 0 0 0 0 0
          0 0 0 0 0 0
          0 0 0 0 0 0
          0 0 0 0 0 0
          0 0 0 0 0 0
          0 0 0 0 0 0
          0 0 0 0 0 0
          0 0 0 0 0 0
          0 0 0 0 0 0
          0 0 0 0 0 0
          0 0 0 0 0 0
          0 0 0 0 0 0
          0 0 0 0 0 0
          0 0 0 0 0 0
          0 0 0 0 0 0
          0 0 0 0 0 0
          0 0 0 0 0 0
          0 0 0 0 0 0
          0 0 0 0 0 0
          0 0 0 0 0 0
          0 0 0 0 0 0
          0 0 0 0 0 0
          0 0 0 0 0 0
          0 0 0 0 0 0
          0 0 0 0 0 0
          0 0 0 0 0 0
          0 0 0 0 0 0
          0 0 0 0 0 0
          0 0 0 0 0 0
          0 0 0 0 0 0
          0 0 0 0 0 0
          0 0 0 0 0 0
          0 0 0 0 0 0
          0 0 0 0 0 0
          0 0 0 0 0 0
          0 0 0 0 0 0
          0 0 0 0 0 0
          0 0 0 0 0 0
          0 0 0 0 0 0
          0 0 0 0 0 0
          0 0 0 0 0 0
          0 0 0 0 0 0
          0 0 0 0 0 0
          0 0 0 0 0 0
          0 0 0 0 0 0
          0 0 0 0 0 0
          0 0 0 0 0 0
          0 0 0 0 0 0
          0 0 0 0 0 0
          0 0 0 0 0 0
          0 0 0 0 0 0
          0 0 0 0 0 0
          0 0 0 0 0 0
          0 0 0 0 0 0
          0 0 0 0 0 0
          0 0 0 0 0 0
          0 0 0 0 0 0
          0 0 0 0 0 0
          0 0 0 0 0 0
          0 0 0 0 0 0
          0 0 0 0 0 0
          0 0 0 0 0 0
          0 0 0 0 0 0
          0 0 0 0 0 0
          0 0 0 0 0 0
          0 0 0 0 0 0
          0 0 0 0 0 0
          0 0 0 0 0 0
          0 0 0 0 0 0
          0 0 0 0 0 0
          0 0 0 0 0 0
          0 0 0 0 0 0
          0 0 0 0 0 0
          0 0 0 0 0 0
          0 0 0 0 0 0
          0 0 0 0 0 0
          0 0 0 0 0 0
          0 0 0 0 0 0
          0 0 0 0 0 0
          0 0 0 0 0 0
          0 0 0 0 0 0
          0 0 0 0 0 0
          0 0 0 0 0 0
          0 0 0 0 0 0
          0 0 0 0 0 0
          0 0 0 0 0 0
          0 0 0 0 0 0
          0 0 0 0 0 0
          0 0 0 0 0 0
          0 0 0 0 0 0
          0 0 0 0 0 0
          0 0 0 0 0 0
          0 0 0 0 0 0
          0 0 0 0 0 0
          0 0 0 0 0 0
          0 0 0 0 0 0
          0 0 0 0 0 0
          0 0 0 0 0 0
          0 0 0 0 0 0
          0 0 0 0 0 0
          0 0 0 0 0 0
          0 0 0 0 0 0
          0 0 0 0 0 0
          0 0 0 0 0 0
          0 0 0 0 0 0
          0 0 0 0 0 0
          0 0 0 0 0 0
          0 0 0 0 0 0
          0 0 0 0 0 0
          0 0 0 0 0 0
          0 0 0 0 0 0
          0 0 0 0 0 0
          0 0 0 0 0 0
          0 0 0 0 0 0
          0 0 0 0 0 0
          0 0 0 0 0 0
          0 0 0 0 0 0
          0 0 0 0 0 0
          0 0 0 0 0 0
          0 0 0 0 0 0
          0 0 0 0 0 0
          0 0 0 0 0 0
          0 0 0 0 0 0
          0 0 0 0 0 0
          0 0 0 0 0 0
          0 0 0 0 0 0
          0 0 0 0 0 0
          0 0 0 0 0 0
          0 0 0 0 0 0
          0 0 0 0 0 0
          0 0 0 0 0 0
          0 0 0 0 0 0
          0 0 0 0 0 0
          0 0 0 0 0 0
          0 0 0 0 0 0
          0 0 0 0 0 0
          0 0 0 0 0 0
          0 0 0 0 0 0
          0 0 0 0 0 0
          0 0 0 0 0 0
          0 0 0 0 0 0
          0 0 0 0 0 0
          0 0 0 0 0 0
          0 0 0 0 0 0
          0 0 0 0 0 0
          0 0 0 0 0 0
          0 0 0 0 0 0
          0 0 0 0 0 0
          0 0 0 0 0 0
          0 0 0 0 0 0
          0 0 0 0 0 0
          0 0 0 0 0 0
          0 0 0 0 0 0
          0 0 0 0 0 0
          0 0 0 0 0 0
          0 0 0 0 0 0
          0 0 0 0 0 0
          0 0 0 0 0 0
          0 0 0 0 0 0
          0 0 0 0 0 0
          0 0 0 0 0 0
          0 0 0 0 0 0
          0 0 0 0 0 0
          0 0 0 0 0 0
          0 0 0 0 0 0
          0 0 0 0 0 0
          0 0 0 0 0 0
          0 0 0 0 0 0
          0 0 0 0 0 0
          0 0 0 0 0 0
          0 0 0 0 0 0
          0 0 0 0 0 0
          0 0 0 0 0 0
          0 0 0 0 0 0
          0 0 0 0 0 0
          0 0 0 0 0 0
          0 0 0 0 0 0
          0 0 0 0 0 0
          0 0 0 0 0 0
          0 0 0 0 0 0
          0 0 0 0 0 0
          0 0 0 0 0 0
          0 0 0 0 0 0
          0 0 0 0 0 0
          <InformationKey name="L2_NORM_RANGE" location="vtkDataArray" length="2">
            <Value index="0">
              0
            </Value>
            <Value index="1">
              1
            </Value>
          </InformationKey>
        </DataArray>
        <DataArray type="Float64" Name="nsi_FIXNO" NumberOfComponents="3" format="ascii" RangeMin="1.4142135623730951" RangeMax="1.4142135623730951">
          1 1 0 -1 -1 0
          -1 -1 0 -1 -1 0
          1 1 0 1 1 0
          -1 -1 0 -1 -1 0
          -1 -1 0 -1 -1 0
          -1 -1 0 -1 -1 0
          -1 -1 0 -1 -1 0
          -1 -1 0 1 1 0
          -1 -1 0 -1 -1 0
          -1 -1 0 -1 -1 0
          -1 -1 0 -1 -1 0
          -1 -1 0 -1 -1 0
          -1 -1 0 -1 -1 0
          -1 -1 0 -1 -1 0
          -1 -1 0 -1 -1 0
          -1 -1 0 -1 -1 0
          1 1 0 -1 -1 0
          -1 -1 0 -1 -1 0
          1 1 0 -1 -1 0
          -1 -1 0 -1 -1 0
          -1 -1 0 -1 -1 0
          1 1 0 -1 -1 0
          -1 -1 0 -1 -1 0
          -1 -1 0 -1 -1 0
          -1 -1 0 -1 -1 0
          -1 -1 0 -1 -1 0
          -1 -1 0 -1 -1 0
          -1 -1 0 -1 -1 0
          -1 -1 0 -1 -1 0
          -1 -1 0 -1 -1 0
          1 1 0 -1 -1 0
          -1 -1 0 -1 -1 0
          -1 -1 0 -1 -1 0
          -1 -1 0 -1 -1 0
          -1 -1 0 1 1 0
          -1 -1 0 -1 -1 0
          -1 -1 0 -1 -1 0
          -1 -1 0 -1 -1 0
          -1 -1 0 -1 -1 0
          -1 -1 0 -1 -1 0
          -1 -1 0 -1 -1 0
          -1 -1 0 -1 -1 0
          -1 -1 0 -1 -1 0
          -1 -1 0 -1 -1 0
          1 1 0 -1 -1 0
          -1 -1 0 -1 -1 0
          -1 -1 0 -1 -1 0
          -1 -1 0 -1 -1 0
          -1 -1 0 -1 -1 0
          -1 -1 0 -1 -1 0
          -1 -1 0 -1 -1 0
          -1 -1 0 -1 -1 0
          -1 -1 0 -1 -1 0
          -1 -1 0 -1 -1 0
          -1 -1 0 -1 -1 0
          -1 -1 0 -1 -1 0
          -1 -1 0 -1 -1 0
          -1 -1 0 -1 -1 0
          -1 -1 0 -1 -1 0
          -1 -1 0 -1 -1 0
          -1 -1 0 1 1 0
          -1 -1 0 -1 -1 0
          -1 -1 0 -1 -1 0
          -1 -1 0 -1 -1 0
          -1 -1 0 -1 -1 0
          -1 -1 0 -1 -1 0
          -1 -1 0 -1 -1 0
          -1 -1 0 -1 -1 0
          -1 -1 0 -1 -1 0
          -1 -1 0 -1 -1 0
          -1 -1 0 -1 -1 0
          -1 -1 0 -1 -1 0
          -1 -1 0 -1 -1 0
          -1 -1 0 -1 -1 0
          1 1 0 -1 -1 0
          -1 -1 0 -1 -1 0
          -1 -1 0 -1 -1 0
          -1 -1 0 -1 -1 0
          -1 -1 0 -1 -1 0
          -1 -1 0 1 1 0
          -1 -1 0 -1 -1 0
          1 1 0 -1 -1 0
          1 1 0 -1 -1 0
          -1 -1 0 -1 -1 0
          -1 -1 0 1 1 0
          -1 -1 0 -1 -1 0
          -1 -1 0 -1 -1 0
          1 1 0 -1 -1 0
          1 1 0 -1 -1 0
          -1 -1 0 -1 -1 0
          -1 -1 0 -1 -1 0
          -1 -1 0 -1 -1 0
          1 1 0 -1 -1 0
          -1 -1 0 1 1 0
          1 1 0 -1 -1 0
          -1 -1 0 -1 -1 0
          -1 -1 0 -1 -1 0
          -1 -1 0 1 1 0
          -1 -1 0 -1 -1 0
          -1 -1 0 -1 -1 0
          -1 -1 0 -1 -1 0
          1 1 0 1 1 0
          -1 -1 0 1 1 0
          -1 -1 0 -1 -1 0
          -1 -1 0 -1 -1 0
          1 1 0 -1 -1 0
          -1 -1 0 -1 -1 0
          -1 -1 0 -1 -1 0
          1 1 0 -1 -1 0
          -1 -1 0 -1 -1 0
          1 1 0 -1 -1 0
          -1 -1 0 1 1 0
          1 1 0 -1 -1 0
          -1 -1 0 -1 -1 0
          -1 -1 0 -1 -1 0
          -1 -1 0 -1 -1 0
          -1 -1 0 1 1 0
          1 1 0 -1 -1 0
          1 1 0 1 1 0
          -1 -1 0 -1 -1 0
          1 1 0 -1 -1 0
          -1 -1 0 -1 -1 0
          -1 -1 0 1 1 0
          -1 -1 0 -1 -1 0
          -1 -1 0 1 1 0
          -1 -1 0 1 1 0
          -1 -1 0 -1 -1 0
          -1 -1 0 -1 -1 0
          -1 -1 0 -1 -1 0
          -1 -1 0 1 1 0
          1 1 0 -1 -1 0
          1 1 0 -1 -1 0
          1 1 0 -1 -1 0
          -1 -1 0 -1 -1 0
          1 1 0 -1 -1 0
          -1 -1 0 -1 -1 0
          -1 -1 0 -1 -1 0
          1 1 0 1 1 0
          -1 -1 0 -1 -1 0
          -1 -1 0 -1 -1 0
          -1 -1 0 -1 -1 0
          1 1 0 -1 -1 0
          -1 -1 0 -1 -1 0
          1 1 0 -1 -1 0
          1 1 0 1 1 0
          -1 -1 0 -1 -1 0
          -1 -1 0 -1 -1 0
          -1 -1 0 1 1 0
          1 1 0 -1 -1 0
          -1 -1 0 -1 -1 0
          -1 -1 0 1 1 0
          -1 -1 0 1 1 0
          -1 -1 0 -1 -1 0
          1 1 0 -1 -1 0
          -1 -1 0 1 1 0
          -1 -1 0 -1 -1 0
          1 1 0 -1 -1 0
          1 1 0 -1 -1 0
          -1 -1 0 1 1 0
          -1 -1 0 -1 -1 0
          -1 -1 0 -1 -1 0
          -1 -1 0 1 1 0
          -1 -1 0 -1 -1 0
          -1 -1 0 -1 -1 0
          -1 -1 0 -1 -1 0
          1 1 0 -1 -1 0
          -1 -1 0 -1 -1 0
          -1 -1 0 -1 -1 0
          -1 -1 0 1 1 0
          -1 -1 0 -1 -1 0
          -1 -1 0 -1 -1 0
          1 1 0 -1 -1 0
          -1 -1 0 -1 -1 0
          -1 -1 0 -1 -1 0
          -1 -1 0 1 1 0
          -1 -1 0 -1 -1 0
          -1 -1 0 -1 -1 0
          -1 -1 0 -1 -1 0
          1 1 0 -1 -1 0
          -1 -1 0 -1 -1 0
          -1 -1 0 -1 -1 0
          -1 -1 0 -1 -1 0
          -1 -1 0 -1 -1 0
          1 1 0 -1 -1 0
          -1 -1 0 -1 -1 0
          -1 -1 0 -1 -1 0
          -1 -1 0 -1 -1 0
          1 1 0 -1 -1 0
          -1 -1 0 -1 -1 0
          -1 -1 0 -1 -1 0
          -1 -1 0 -1 -1 0
          -1 -1 0 -1 -1 0
          1 1 0 -1 -1 0
          -1 -1 0 -1 -1 0
          -1 -1 0 -1 -1 0
          -1 -1 0 -1 -1 0
          -1 -1 0 -1 -1 0
          1 1 0 -1 -1 0
          -1 -1 0 -1 -1 0
          1 1 0 -1 -1 0
          -1 -1 0 -1 -1 0
          -1 -1 0 -1 -1 0
          -1 -1 0 -1 -1 0
          1 1 0 -1 -1 0
          -1 -1 0 -1 -1 0
          -1 -1 0 -1 -1 0
          -1 -1 0 -1 -1 0
          1 1 0 -1 -1 0
          -1 -1 0 1 1 0
          <InformationKey name="L2_NORM_RANGE" location="vtkDataArray" length="2">
            <Value index="0">
              1.4142135624
            </Value>
            <Value index="1">
              1.4142135624
            </Value>
          </InformationKey>
        </DataArray>
        <DataArray type="Float64" Name="Velocity" NumberOfComponents="3" format="ascii" RangeMin="0" RangeMax="1.4147058380573483">
          0 0 0 0.31846782954981295 0.024468985563895936 0
          0.7324871093140095 0.10044209266527095 0 0.5149953967451324 0.03723187228811065 0
          0 0 0 1 0 0
          0.7173842392191507 0.026922981042113197 0 0.37014085672442504 0.02239415559423134 0
          0.6433319127855307 0.03891865243536563 0 0.31283742736715353 0.005138008490184014 0
          0.6667131117201495 0.028445056344568176 0 0.5623510829822488 0.0339014662726525 0
          0.7023060457756766 -0.0971280241535795 0 0.7183316828291647 0.032299891259965935 0
          0.6834748299427021 0.04779943558271736 0 0 0 0
          0.5071389769968324 0.027165537684453726 0 0.7230003879323835 0.05880139799198174 0
          0.6050824969042572 -0.00528396659772447 0 0.6485395924564125 0.041132908659219064 0
          0.6593577744452173 0.05794113596433274 0 0.6845073530191509 0.05928988803455672 0
          0.42564814514919375 0.03656232587985335 0 0.34828224632366306 -0.02845895066053579 0
          0.7272940975921195 0.09728888268504562 0 0.6423996980813848 0.07978367581876446 0
          0.738654225424046 0.11818571864297879 0 0.7085255061778414 0.0963403041019592 0
          0.32234954245895475 0.012012077057434357 0 0.570297757057547 0.04480332843543569 0
          0.4451148632758096 0.001698288906835643 0 0.6020522387659683 0.09002730540677807 0
          0 0 0 0.6187510540314513 0.07825677817404234 0
          0.7267606686846183 0.15482400275819677 0 0.7550725778458446 0.15440124339330905 0
          0 0 0 0.7722984076023481 0.1903894791346203 0
          0.6481349025728446 0.13535418481083455 0 0.3241271136752528 0.008569813421749466 0
          0.5665764207344122 0.08496348788775307 0 0.20166271422831086 0.004974175372745166 0
          0 0 0 0.46815093390059326 0.04900818404547256 0
          0.7646494558880621 0.18275595705227038 0 0.7490342740729118 0.2248028150580496 0
          0.8229447064183333 0.245859704537134 0 0.671628573709706 0.20869879385998802 0
          0.5182186803298853 0.0941789724365026 0 0.8052346496279289 0.28421726694945887 0
          0.31167015372938417 0.02433293611066271 0 0.46220076820342637 0.024560263535112863 0
          0.7956170060194921 0.15301289139902802 0 0.874539737364717 0.275956995539279 0
          0.5532040192280885 0.16702768367295878 0 0.6843366896808201 0.29233590034056245 0
          0.8649707582158729 0.3435250305823079 0 0.35366371879907565 0.047965876714520066 0
          0.7924561651754576 0.3723536523277972 0 0.5853670830756915 0.256242228515009 0
          0 0 0 0.9449707439691353 0.3648479948805406 0
          0.6997029908448513 0.37580045618587327 0 0.18850908211404988 0.011007353798646482 0
          0.9838557889651605 0.23726097631640042 0 0.3753696736504416 0.09344123137618689 0
          0.45752632486828193 0.19307287611870483 0 0.8684146845500259 0.42580240232143063 0
          0.5864996381058841 0.3366477291857289 0 0 0 0
          0.7493014767043695 0.1024722618912464 0 0.4669718198582664 0.2714791153853628 0
          0.7368457591653149 0.46668031342182387 0 1.0519550958589352 0.35943173939660417 0
          0.9612149823666372 0.46437632385236444 0 0.3302372764174801 0.12837272003724365 0
          0.2192655639259771 0.03635031682542385 0 0.5622067911508751 0.4171676215754374 0
          0.8456239708329963 0.5153427934008256 0 1.116656572525319 0.28654839989108155 0
          0.46176339448159204 0.34777988575103347 0 0.7216590304955486 0.5173391631880249 0
          0.3430065330613578 0.19401799274732515 0 0.24970324343778172 0.06578302623415722 0
          1.036126410145273 0.19311991642542756 0 0.6034260736740646 0.5000958233888474 0
          0.9577242600909174 0.5248413844504705 0 0.3416613094588869 0.2658321876813798 0
          0 0 0 0.8344888436786744 0.08424843047277564 0
          1.1893511507883163 0.38290699753882435 0 0.7857182086603193 0.5668983670960586 0
          0.43523547460944806 0.4271054994109535 0 0.637293128453058 0.5575013781308412 0
          1.2249115354418072 0.2759395433986942 0 0.2359717047007986 0.12363884085327832 0
          0.3122245895785723 0.3137170966042329 0 0.12659036717011096 0.01675344498529856 0
          0.2448410051903345 0.18954172934613847 0 0.4783945390214468 0.010856860308001298 0
          0.9298166368355018 0.5651455856438369 0 0.4191078234843765 0.4837621112563944 0
          1.1458771429009662 0.47272974045045 0 0.24540623684513516 0.253013548228419 0
          0.6933312701708436 0.5898378223173864 0 0.27750987937876204 0.35363856179543723 0
          1.1702189363319007 0.14138022868369116 0 1.293838566324839 0.33059035102112516 0
          0.14514025624444477 0.04559630530096486 0 0.5187009064927534 0.5619250591252423 0
          0.8033493517524849 0.5725911326911781 0 0.20144236787486056 0.2746185440882918 0
          0.32336841899676066 0.45985068910772486 0 1.0793433388047122 0.4859073273574933 0
          0.919142590967238 0.02837578898962653 0 0.13974445246987646 0.07417077515053538 0
          0.5547195030172802 0.5602027419602449 0 0.2155918158744895 0.35354038037083313 0
          1.2694906164354434 0.3574335856926509 0 1.3485331644089515 0.1945063561109443 0
          0.1434369972138057 0.1287875133465171 0 0 0 0
          0.1530085603186802 0.19836813057854227 0 0.3249693956171783 0.48413984887246647 0
          1.355762550251308 0.25843973185302055 0 0.1670332773568421 0.2853558702991642 0
          0.06176114519193626 0.008595114288181365 0 0.6547444965836354 0.5082994496753448 0
          0.15460222443994895 0.3322558373895473 0 0.9861713305051486 0.4236635262973674 0
          0.36269893590608365 0.4574533935195442 0 0.1099308349961783 0.20206056926934865 0
          1.179193752233129 0.3392792429202323 0 0.08188346270470252 0.0323723662776304 0
          0.10373261781441245 0.13424303199930318 0 1.250949710031735 0.05800245530492659 0
          1.3146922205335 0.25460179924801163 0 0.16185313852474997 0.34535805620339854 0
          0.08365938066331205 0.1956098010762626 0 1.4024114681021376 0.15413282474593779 0
          0.4282863545902061 0.3587381779722054 0 0.08732931792778881 0.09872315140979078 0
          0.07350868022845457 0.24312121720065186 0 0.07358775919844757 0.04578082044151721 0
          0.7648993031189183 0.308214725388914 0 0.07848502203638358 0.13279372231912645 0
          0.06757261729299587 0.2096426430359697 0 0.0706044280715838 0.2102928212911038 0
          0 0 0 0.08433052505024037 0.21766342687269805 0
          0.9947676075249745 0.2540708159905453 0 1.400100183087366 0.08043422480926421 0
          1.194364795758323 0.21082620304698935 0 0.040850158180181936 0.15594969321523533 0
          0.060759257135739896 0.059611451536212515 0 0.047075126754861335 0.12360021313501851 0
          0.9259084640193104 0.006636130282597557 0 0.032136819881600255 0.14020164011678948 0
          0.021520567266839374 0.12258508093643296 0 0 0 0
          0.05508736880645771 0.08860931195703242 0 0.4014370038664429 0.07054019306668369 0
          0 0 0 0.7065219882459182 0.11268192556881393 0
          0 0 0 0.017463671591215327 0.09337076294563326 0
          0.029074411471543618 0.10966064492089408 0 0.04077149243024571 0.014345102354584846 0
          1.3293605671707773 0.07017214414242386 0 0 0 0
          0.011047332336397002 0.06969653889604678 0 0.04237487919272863 0.05803880047104554 0
          0.9281006068033186 0.07590620138824879 0 0.03257081022674858 0.07756590687710078 0
          0 0 0 0.01865799457991644 0.07839626492704191 0
          0 0 0 1.4146583073045915 0.011596629150414706 0
          0.354301224817137 0.027948651177384393 0 0.006620098186459834 0.05644596893388881 0
          1.130731766617653 0.029958044658689557 0 0.018070647187902703 0.06889735444795582 0
          0.6742425683401979 0.03990119566549312 0 0.03321774626410704 0.023329675573574543 0
          0 0 0 0.006842620751252995 0.04418079348226819 0
          1.4061575815003036 -0.025789284925399114 0 0 0 0
          0 0 0 0.013673480349495294 0.04815828579992083 0
          0.025720875584213352 0.02728344529734941 0 0.0048593199208474555 0.03552412401802739 0
          0.01922785436705767 0.041861818216965205 0 0.3355465310769342 0.00011555574335389973 0
          0.012724066356488248 0.04122949471637197 0 0 0 0
          1.2535289144917454 -0.04496345686198941 0 0.6597693413020825 -0.022364630316052136 0
          0.9414444284097564 -0.0540349627028746 0 0.0044104426130285495 0.027460380790172878 0
          1.1540808998913656 -0.09239838723098785 0 0.018130131735242597 0.006083590673274527 0
          0 0 0 0 0 0
          0.014968706940685287 0.02447111014284071 0 0 0 0
          1.3145766727144408 -0.11227720805915894 0 0.008302486886470636 0.02711539396149009 0
          0.00372706181390704 0.02095110546904602 0 0.3416386051185625 -0.026356371882657322 0
          0 0 0 1.3926626561513655 -0.12200558386614298 0
          0.007922988273746368 0.02102250903917508 0 0.6743940253429929 -0.12148870663273921 0
          0.012376605771701143 0.01047980648604051 0 0.0029478105801666195 0.015167411056914654 0
          0 0 0 0.9266107471723509 -0.16686658770201848 0
          0.005078856995415012 0.016163972736957716 0 1.3737525073786252 -0.12186331830036841 0
          0 0 0 0.0025978467864356245 0.011040993724690432 0
          1.1297264615632485 -0.19410102458722955 0 0 0 0
          0 0 0 0.3902238695307743 -0.16941214373819316 0
          0.006607601952747255 0.008664455910011281 0 0.005000642215926567 0.010617013550628477 0
          0.943057864951429 -0.047439068845896826 0 0.0015582761065626588 0.007348533271862218 0
          1.2799346242492653 -0.2036260583839566 0 1.208798925486546 -0.09419302219612949 0
          0.006640475465912792 0.0022193262249929364 0 0 0 0
          0 0 0 0.6698343818028463 -0.23522579701069263 0
          0 0 0 0 0 0
          0.0009467989437147191 0.005120061996237268 0 0.04605626474908315 -0.07517115891589321 0
          0 0 0 0.002877559671254079 0.00597836578129819 0
          1.355864057583373 -0.20480194889663306 0 0.8989380578497576 -0.2686551419852705 0
          0.0038005794041959897 0.002874413436309402 0 0 0 0
          0.025901141667581264 -0.034318771882327924 0 0.001094773509256388 0.003022102426974415 0
          0.002457710911618051 0.0036380097806053657 0 0 0 0
          0.014879890552567467 -0.009144883488136406 0 0 0 0
          0.3090877161325683 -0.21036882289306133 0 1.3212715351190318 -0.17879190561352626 0
          0.0011851804228554439 0.0020967265486985845 0 1.0570594440746632 -0.3019950871720326 0
          0.00625961067319607 0.007942641590925174 0 0.0021218067246398446 0.000543125570529076 0
          0.0008313414003769714 0.0017172845805152478 0 0 0 0
          0 0 0 0.1015904849656836 -0.10950057537935153 0
          0 0 0 0.0021500502188370172 0.013545999122309194 0
          0 0 0 1.2257411102210296 -0.2938480162103364 0
          0.06403751167212715 -0.06045683028072355 0 0.0011692352469675163 0.0008795552160872624 0
          0 0 0 0.00039590537736025686 0.0006634298700780183 0
          0.2556431534008549 -0.007697106623333922 0 0.5378765055956434 -0.28511588351794 0
          0.0012746053569664905 0.01682066761081607 0 1.1592172561032545 -0.14508286727896516 0
          0 0 0 0 0 0
          0.001049393226353917 0.018081479903609303 0 0.00024294931213607367 0.00024872221332735166 0
          0.2897263662505892 -0.21482803380118967 0 0.016911619450238974 -0.005877165601832479 0
          0.05192066367515622 -0.04074445853057881 0 0.7708076356692936 -0.33053366382629334 0
          0 0 0 1.2889981105924153 -0.265879939062128 0
          0.13861565659169883 -0.12310641004505204 0 0.00012561297772726852 0.019241979893469166 0
          0 0 0 0.010312640692591525 0.00896623889249056 0
          0 0 0 0 0 0
          0.004582921890229144 0.01881891249238759 0 0.00012939005571201834 -0.00013414944833895542 0
          -0.0005145747468361024 0.01887160524958895 0 0.004070636182842204 0.023586307001897722 0
          0.7911720194410462 -0.09309246189176175 0 0 0 0
          0 0 0 0.479415326457283 -0.2890972130204677 0
          -0.00039443529853925766 0.01827192001163302 0 0.938534072923288 -0.35021992965692644 0
          1.2428891536061863 -0.23187471836418222 0 0 0 0
          0.03431218872787823 -0.01701966821178263 0 0 0 0
          0.30590733721098234 -0.2225505758585217 0 0.00022704723645168836 0.028015862279155458 0
          0 0 0 -0.0007035161945164399 0.01718085037275286 0
          0.013230626205962423 0.01717582911439772 0 0 0 0
          -0.0002987478066498919 0.029417677209838747 0 0.15827142447403875 -0.12607491704396892 0
          0 0 0 -0.0010463308379708475 0.015737690665882417 0
          0 0 0 -0.001415846496209264 0.02701321271436664 0
          0.6574353756632727 -0.33629820692339674 0 0 0 0
          -0.001337348109873061 0.01356352486350817 0 -0.002170764321236781 0.02550737663015625 0
          1.0852203044616366 -0.16688878989542258 0 0.4671688226068049 -0.2865674729079742 0
          0.0042819445365902455 0.02803954946508388 0 0 0 0
          -0.0014678748970874155 0.011253896297670889 0 1.208980776085172 -0.3126174511419715 0
          0.05174270808193619 -0.027194937639912414 0 -0.004312206765777216 0.02467287108288666 0
          1.0403392307559434 -0.37446859916696107 0 0.29929491582945644 -0.2124764904736788 0
          0 0 0 -0.0012977491348922787 0.00904892392275975 0
          -0.0030479540606075037 0.03172666292785134 0 0.13635016182046794 -0.1044606658896137 0
          -0.004689407480303032 0.02120512531959339 0 0.0299455760561594 -0.002901227735755982 0
          0.8161412391267332 -0.3706090684738291 0 0 0 0
          -0.0013007796283127076 0.00673501461246488 0 -0.00413933118339531 0.016522185903108395 0
          0.6250644588846993 -0.3284257210464227 0 0.7066776887241157 -0.08323381064436666 0
          0 0 0 -0.0013011015969806195 0.0045237716471852865 0
          -0.00905524336274956 0.02661751164437775 0 -0.004703435514597169 0.013757758664531322 0
          0.006667893692995208 0.019224267162279082 0 0.45328340334120787 -0.27310446618747486 0
          0.07616419374889863 -0.056161588546972174 0 0 0 0
          -0.001165743189801448 0.0024405372602379345 0 1.10415256351226 -0.36473183628968586 0
          -0.004527061319251538 0.009973995751661469 0 -0.009615188621704043 0.020934537455392525 0
          0.29838401272138265 -0.2045630902241773 0 1.1477557613530092 -0.30414701161315916 0
          0 0 0 0.9527259988170881 -0.37489886581187765 0
          -0.004262785620518924 0.006606594729500674 0 -0.00048740638354779895 0.0006327027836858964 0
          0.045824866665690085 -0.021667082723826062 0 -0.0097617565185223 0.014683081373853636 0
          0.15629689804366376 -0.12033387009794273 0 -0.003197029651074625 0.0034960886940695805 0
          0.6725981925738063 -0.33353416355499793 0 -0.00825127664273968 0.014853236163044396 0
          0 0 0 1.0061350395562 -0.20974875605165502 0
          0.31725254311997625 -0.017649943252143235 0 -0.007990263846352055 0.00712234603053305 0
          -0.0152358556101465 0.015776018591553694 0 -0.014472188557640178 0.014368661945918739 0
          0.1044954569124042 -0.07767889171215436 0 0.42739020280163265 -0.26312063301898053 0
          0 0 0 -0.0037105853300411296 0.0016950448392451438 0
          1.038824831321673 -0.33568591302725703 0 0.006620301804930844 -0.018346443084760237 0
          -0.015000069962070978 0.008275167690329165 0 -0.01349932381929997 0.0007875878445440225 0
          0.8215436651369048 -0.3425557772181646 0 0.20462427624284496 -0.15549033532071174 0
          0.5511833573511388 -0.07388661551596666 0 -0.018764334283664186 0.0063848047415202966 0
          0 0 0 -0.009212847580586334 0.0024660606227748065 0
          0.5647976684170583 -0.30230581964200487 0 1.0816527011768966 -0.2781789753894627 0
          0.05489734091801156 -0.06755672739214268 0 0.34865053682548686 -0.23354477986049055 0
          0.0035167807776443835 -0.027072281193902894 0 -0.014202186525390681 -0.007456447294897267 0
          -0.015471295273739827 0.0017594261495418914 0 0.9721953413237894 -0.3264011780153423 0
          0 0 0 -0.017731960758994043 0.0004086083768140603 0
          0.7446936755964219 -0.34509818448306906 0 0.48769749577716115 -0.29428240893847996 0
          0 0 0 0.1423313042476502 -0.13587541013708979 0
          0.04233015570522625 -0.0681093102516598 0 0.9560260516975883 -0.09877430060254462 0
          0.006022898132174426 -0.03263961149342464 0 -0.013976878122534633 -0.00004622557986265999 0
          -0.009898501492989903 -0.010794814252436015 0 0.2867426068834454 -0.23011968898716484 0
          0 0 0 0.9848801710444878 -0.3877176601712841 0
          -0.009168420849018028 -0.0004961682268222637 0 0.11562291362294638 -0.1409108681402215 0
          0.041254303115537155 -0.0639045909012947 0 0.5661268735773353 -0.4262748896640769 0
          0.007586109925186043 -0.018269476995864013 0 0.2602115166102574 -0.29158343697700745 0
          0 0 0 0.04278670280509374 -0.03835090337341167 0
          0.11877244474864357 -0.1177203870600396 0 0 0 0
          <InformationKey name="L2_NORM_RANGE" location="vtkDataArray" length="2">
            <Value index="0">
              0
            </Value>
            <Value index="1">
              1.4147058381
            </Value>
          </InformationKey>
        </DataArray>
        <DataArray type="Float64" Name="Pressure" format="ascii" RangeMin="-8.514201508962016" RangeMax="36.91598159233636">
          36.25396484568197 36.41483181245483 36.73777824839249 36.18942147299813 36.01169652262394 36.7799425361071
          36.04730909245744 35.50007981663412 35.35337335943917 34.59218862957304 36.09906161608529 34.375829034875046
          36.91598159233636 35.29868511331907 34.38100487459684 33.585253438173844 33.431936705186935 34.48812716645962
          36.488314744151694 35.5357477525024 33.29224704680138 34.74564943609359 32.35535065248587 36.88348750575394
          33.480436244652196 32.18765050094424 32.30038447355439 33.90582337705503 31.415215028258437 34.91780070267391
          35.90611300695002 30.855582278708376 36.70387292969867 34.17921805457893 33.061566841268196 31.13775822629807
          30.31925596884971 31.545317983517158 33.51571944209718 35.189183040330086 29.466959485689525 35.60949380832108
          36.72832168338427 34.357496477805874 29.63203724872957 32.117367337067705 30.12370598760657 32.784969719975024
          33.851929665801194 30.741337551593414 34.48336861652987 27.494724559243984 27.82875691835101 28.48124902651771
          33.393855056027 32.04681157634457 29.315566230276268 33.9918655833053 30.186205268519235 32.763457431095034
          34.72456092232006 27.48297863080216 31.137962973592426 34.09010605497778 25.80999647116557 33.757263733219496