<?xml version="1.0"?>
<VTKFile type="UnstructuredGrid" version="0.1" byte_order="LittleEndian" header_type="UInt32" compressor="vtkZLibDataCompressor">
  <UnstructuredGrid>
    <Piece NumberOfPoints="11" NumberOfCells="5">
      <PointData>
        <DataArray type="Float64" Name="Temperature" format="ascii" RangeMin="0.21874999637331585" RangeMax="0.49999999227720765">
          0.37499999420936103 0.374999994267477 0.4687499925407308 0.49999999227720765 0.4687499925027424 0.4687499924212065
          0.49999999206818135 0.21874999637331585 0.21874999643646367 0.2187499964019054 0.37499999409130347
        </DataArray>
      </PointData>
      <CellData>
        <DataArray type="UInt8" Name="vtkGhostType" format="ascii" RangeMin="0" RangeMax="0">
          0 0 0 0 0
        </DataArray>
      </CellData>
      <Points>
        <DataArray type="Float32" Name="Points" NumberOfComponents="3" format="ascii" RangeMin="0.5590169943749475" RangeMax="1.4142135623730951">
          1 0.5 0 0.75 0.5 0
          1 0.75 0 1 1 0
          0.5 0.75 0 0.75 0.75 0
          0.75 1 0 1 0.25 0
          0.75 0.25 0 0.5 0.25 0
          0.5 0.5 0
          <InformationKey name="L2_NORM_RANGE" location="vtkDataArray" length="2">
            <Value index="0">
              0.55901699437
            </Value>
            <Value index="1">
              1.4142135624
            </Value>
          </InformationKey>
        </DataArray>
      </Points>
      <Cells>
        <DataArray type="Int64" Name="connectivity" format="ascii" RangeMin="0" RangeMax="10">
          0 1 8 7 10 9
          8 1 3 6 5 2
          10 1 5 4 0 2
          5 1
        </DataArray>
        <DataArray type="Int64" Name="offsets" format="ascii" RangeMin="4" RangeMax="20">
          4 8 12 16 20
        </DataArray>
        <DataArray type="UInt8" Name="types" format="ascii" RangeMin="9" RangeMax="9">
          9 9 9 9 9
        </DataArray>
      </Cells>
    </Piece>
  </UnstructuredGrid>
</VTKFile>
