<?xml version="1.0"?>
<VTKFile type="UnstructuredGrid" version="0.1" byte_order="LittleEndian" header_type="UInt32" compressor="vtkZLibDataCompressor">
  <UnstructuredGrid>
    <Piece NumberOfPoints="35" NumberOfCells="51">
      <PointData>
        <DataArray type="Float64" Name="nsi_SBC" NumberOfComponents="3" format="ascii" RangeMin="0" RangeMax="0">
          0 0 0 0 0 0
          0 0 0 0 0 0
          0 0 0 0 0 0
          0 0 0 0 0 0
          0 0 0 0 0 0
          0 0 0 0 0 0
          0 0 0 0 0 0
          0 0 0 0 0 0
          0 0 0 0 0 0
          0 0 0 0 0 0
          0 0 0 0 0 0
          0 0 0 0 0 0
          0 0 0 0 0 0
          0 0 0 0 0 0
          0 0 0 0 0 0
          0 0 0 0 0 0
          0 0 0 0 0 0
          0 0 0
          <InformationKey name="L2_NORM_RANGE" location="vtkDataArray" length="2">
            <Value index="0">
              0
            </Value>
            <Value index="1">
              0
            </Value>
          </InformationKey>
        </DataArray>
        <DataArray type="Float64" Name="nsi_SFIXNO" NumberOfComponents="3" format="ascii" RangeMin="0" RangeMax="1.7320508075688772">
          0 0 0 0 0 0
          0 0 0 -1 -1 -1
          -1 -1 -1 0 0 0
          0 0 0 -1 -1 -1
          -1 -1 -1 -1 -1 -1
          -1 -1 -1 -1 -1 -1
          0 0 0 0 0 0
          -1 -1 -1 -1 -1 -1
          -1 -1 -1 -1 -1 -1
          -1 -1 -1 -1 -1 -1
          0 0 0 0 0 0
          -1 -1 -1 0 0 0
          0 0 0 0 0 0
          -1 -1 -1 -1 -1 -1
          0 0 0 -1 -1 -1
          0 0 0 -1 -1 -1
          0 0 0 0 0 0
          0 0 0
          <InformationKey name="L2_NORM_RANGE" location="vtkDataArray" length="2">
            <Value index="0">
              0
            </Value>
            <Value index="1">
              1.7320508076
            </Value>
          </InformationKey>
        </DataArray>
        <DataArray type="Float64" Name="nsi_UBC" NumberOfComponents="3" format="ascii" RangeMin="0" RangeMax="0">
          0 0 0 0 0 0
          0 0 0 0 0 0
          0 0 0 0 0 0
          0 0 0 0 0 0
          0 0 0 0 0 0
          0 0 0 0 0 0
          0 0 0 0 0 0
          0 0 0 0 0 0
          0 0 0 0 0 0
          0 0 0 0 0 0
          0 0 0 0 0 0
          0 0 0 0 0 0
          0 0 0 0 0 0
          0 0 0 0 0 0
          0 0 0 0 0 0
          0 0 0 0 0 0
          0 0 0 0 0 0
          0 0 0
          <InformationKey name="L2_NORM_RANGE" location="vtkDataArray" length="2">
            <Value index="0">
              0
            </Value>
            <Value index="1">
              0
            </Value>
          </InformationKey>
        </DataArray>
        <DataArray type="Float64" Name="nsi_UFIXNO" NumberOfComponents="3" format="ascii" RangeMin="1" RangeMax="1.4142135623730951">
          1 1 0 1 0 0
          0 1 0 -1 -1 0
          -1 -1 0 1 0 0
          0 1 0 -1 -1 0
          -1 -1 0 -1 -1 0
          -1 -1 0 -1 -1 0
          1 0 0 0 1 0
          -1 -1 0 -1 -1 0
          -1 -1 0 -1 -1 0
          -1 -1 0 -1 -1 0
          1 1 0 1 1 0
          -1 -1 0 0 1 0
          1 0 0 0 1 0
          -1 -1 0 -1 -1 0
          1 0 0 -1 -1 0
          0 1 0 -1 -1 0
          1 0 0 0 1 0
          1 1 0
          <InformationKey name="L2_NORM_RANGE" location="vtkDataArray" length="2">
            <Value index="0">
              1
            </Value>
            <Value index="1">
              1.4142135624
            </Value>
          </InformationKey>
        </DataArray>
        <DataArray type="Float64" Name="lev_BC" format="ascii" RangeMin="-1" RangeMax="1">
          -1 0 -1 -1 0 1
          -1 -1 -1 0 -1 -1
          1 -1 -1 -1 1 -1
          0 -1 1 -1 -1 1
          -1 1 -1 0 -1 -1
          1 -1 -1 0 -1
        </DataArray>
        <DataArray type="Float64" Name="lev_FIXNO" format="ascii" RangeMin="0" RangeMax="0">
          0 0 0 0 0 0
          0 0 0 0 0 0
          0 0 0 0 0 0
          0 0 0 0 0 0
          0 0 0 0 0 0
          0 0 0 0 0
        </DataArray>
        <DataArray type="Float64" Name="Velocity" NumberOfComponents="3" format="ascii" RangeMin="0" RangeMax="2.286291001346954">
          0 0 0 0 -2.258176612212731 0
          0.23472826619813525 0 0 0.32449873720831024 -0.5930627913061632 0
          0.3485434880731956 -1.4544021170735117 0 0 -1.6604522401454282 0
          0.3416024184387592 0 0 0.48844159783694246 -0.5672285555599359 0
          0.39359482860069417 -0.23821899652726838 0 0.7290595477036785 -0.7787342499452796 0
          0.5341490276779455 -0.21770364968177724 0 0.7185216283292114 -0.38440875915698647 0
          0 -0.8034357308358662 0 0.2534984428325132 0 0
          0.2796878510074523 -0.044629016164126026 0 0.8619411423177781 -0.0141035101294614 0
          0.6252391229276753 -0.39120103224065356 0 0.4275869515541022 0.00398335466543629 0
          1.0763895121199982 -0.3439747878125977 0 0.49259431671705634 0.20612713711598207 0
          0 0 0 0 0 0
          1.1937451930688596 0.09428167007828306 0 0.47073453604008353 0 0
          0 0.022723040795436134 0 0.9037227252557364 0 0
          0.5803958954971821 0.6172639787512727 0 1.4404920798988887 -0.01256952800434015 0
          0 0.2769906279199307 0 1.403203282986824 0.3773664979283535 0
          1.098175351887038 0 0 1.8732642311814427 0.34271087263476313 0
          0 2.286291001346954 0 1.0535749611614624 0 0
          0 0 0
          <InformationKey name="L2_NORM_RANGE" location="vtkDataArray" length="2">
            <Value index="0">
              0
            </Value>
            <Value index="1">
              2.2862910013
            </Value>
          </InformationKey>
        </DataArray>
        <DataArray type="Float64" Name="Pressure" format="ascii" RangeMin="-304.5273195145736" RangeMax="446.01958668652264">
          0 -304.5273195145736 0 0 -148.53749183889363 -41.73785453848049
          0 0 0 -23.60884908027516 0 -132.9444306735242
          199.67170062635512 0 0 -178.17685201930303 215.18326411064845 0
          55.7885123784121 0 446.01958668652264 0 -45.907309051936956 427.04417309909604
          0 351.37021498270093 0 142.0222561801272 0 36.875126233275225
          291.52695660831216 172.88344240263993 103.58762518396901 291.8569380721776 366.89372335968073
        </DataArray>
        <DataArray type="Float64" Name="Sigma" NumberOfComponents="6" format="ascii" RangeMin="0" RangeMax="7.844264602036988">
          0 0 0 0 0 0
          3.098439049051338 -2.059824367633848 0 0.7095478278187929 0 0
          0 0 0 0 0 0
          0 0 0 0 0 0
          2.9326088813413813 -2.1389576818229585 0 0.8712970017139992 0 0
          2.832061697995361 -2.1914671381566895 0 0.8326457425779719 0 0
          0 0 0 0 0 0
          0 0 0 0 0 0
          0 0 0 0 0 0
          3.2525312587080117 -2.0402133378600102 0 0.7920286802912041 0 0
          0 0 0 0 0 0
          3.2294497211032325 -1.158134067056579 0 1.2808783085131306 0 0
          2.8483431736580513 -2.273255268084662 0 0.7071681020413436 0 0
          0 0 0 0 0 0
          0 0 0 0 0 0
          3.5721571249668695 0.02169910558798074 0 1.83171432316383 0 0
          3.4758795663596014 -1.8569624108335392 0 0.6119701136903177 0 0
          0 0 0 0 0 0
          4.443546800413955 -1.033380208494998 0 1.3700678482863953 0 0
          0 0 0 0 0 0
          3.1996226064371083 -2.139255497262229 0 -0.020417708275935458 0 0
          0 0 0 0 0 0
          4.030295812871675 0.7123905040558038 0 2.0478660708703504 0 0
          3.334842687219247 -1.8713322304895965 0 0.21308894548035304 0 0
          0 0 0 0 0 0
          4.503160674365946 -1.0803368368895647 0 0.9955315977595929 0 0
          0 0 0 0 0 0
          5.335208452333697 0.43429855191045846 0 2.2833454943596863 0 0
          0 0 0 0 0 0
          4.5974987908634946 2.2800879895722526 0 2.494400094529837 0 0
          5.010546557376195 0.47248599485492093 0 2.0907898040741006 0 0
          5.279345247823248 4.266365016227178 0 3.5208462775124922 0 0
          1.1109210650446477 6.871496807532472 0 3.4138930218749284 0 0
          5.637330017533472 3.4118530136830536 0 3.731437230113544 0 0
          2.538404405228717 5.995645295617818 0 4.375068880763122 0 0
          <InformationKey name="L2_NORM_RANGE" location="vtkDataArray" length="2">
            <Value index="0">
              0
            </Value>
            <Value index="1">
              7.844264602
            </Value>
          </InformationKey>
        </DataArray>
        <DataArray type="Float64" Name="LEVEL" format="ascii" RangeMin="-0.9454814070066699" RangeMax="0.6597870817091842">
          -0.26625657940803565 -0.2371067481349402 -0.30512589955260844 -0.29122097709397965 -0.24891148786362627 -0.13044965505538253
          -0.4616856873827545 -0.2518303784136464 -0.39571827109410623 -0.1272061781233872 -0.4071598573442631 -0.19142858999252638
          0.1962392308267032 -0.6519629482341098 -0.6130300807702048 -0.27450204054756117 0.21708207431785256 -0.5584414702771149
          0.0465372276077914 -0.3134435045078299 0.6597870817091842 -0.9454814070066699 -0.05132525777964514 0.5045459973055919
          -0.7150531927213624 0.3659909788154842 -0.08479152064310735 0.16617775332234042 -0.35956755908087584 0.05524562582257547
          0.2666644300084928 0.15185057952382242 0.05908176198755699 0.16600206110887622 0.07889385480595267
        </DataArray>
      </PointData>
      <CellData>
        <DataArray type="UInt8" Name="vtkGhostType" format="ascii" RangeMin="0" RangeMax="0">
          0 0 0 0 0 0
          0 0 0 0 0 0
          0 0 0 0 0 0
          0 0 0 0 0 0
          0 0 0 0 0 0
          0 0 0 0 0 0
          0 0 0 0 0 0
          0 0 0 0 0 0
          0 0 0
        </DataArray>
      </CellData>
      <Points>
        <DataArray type="Float32" Name="Points" NumberOfComponents="3" format="ascii" RangeMin="0" RangeMax="1.4142135623730951">
          0 1 0 0 0.7799999713897705 0
          0.25 1 0 0.3173084855079651 0.8117569088935852 0
          0.1888372004032135 0.6106976866722107 0 0 0.5199999809265137 0
          0.5 1 0 0.43114039301872253 0.6648067235946655 0
          0.5338732004165649 0.815037190914154 0 0.37767431139945984 0.4413954019546509 0
          0.6174687743186951 0.6476302742958069 0 0.5365368127822876 0.5048667788505554 0
          0 0.25999999046325684 0 0.75 1 0
          0.782043993473053 0.8033316731452942 0 0.6966695785522461 0.4923292100429535 0
          0.32800689339637756 0.19591359794139862 0 0.7909218072891235 0.6301581263542175 0
          0.5597307085990906 0.27817249298095703 0 0.8505734801292419 0.47420310974121094 0
          0 0 0 1 1 0
          0.7649514079093933 0.327553391456604 0 0.23776529729366302 0 0
          1 0.7271645069122314 0 0.4648641049861908 0 0
          0.9007874131202698 0.35183119773864746 0 0.7203437089920044 0.13417460024356842 0
          1 0.4593985974788666 0 0.855294406414032 0.23049800097942352 0
          0.6747748255729675 0 0 0.8903893828392029 0.11795260012149811 0
          1 0.22097820043563843 0 0.8700000047683716 0 0
          1 0 0
          <InformationKey name="L2_NORM_RANGE" location="vtkDataArray" length="2">
            <Value index="0">
              0
            </Value>
            <Value index="1">
              1.4142135624
            </Value>
          </InformationKey>
        </DataArray>
      </Points>
      <Cells>
        <DataArray type="Int64" Name="connectivity" format="ascii" RangeMin="0" RangeMax="34">
          30 33 27 30 27 25
          23 25 16 27 18 25
          20 23 12 18 9 16
          18 16 25 23 16 12
          16 9 12 9 4 12
          4 1 5 4 5 12
          33 34 31 31 34 32
          33 31 27 31 32 29
          29 32 26 31 29 27
          26 32 28 29 26 22
          26 28 19 22 26 19
          29 22 27 22 19 15
          15 19 17 22 15 18
          28 24 17 28 17 19
          15 17 10 10 17 14
          15 10 11 14 17 24
          10 14 8 11 10 7
          15 11 18 8 14 13
          10 8 7 7 8 3
          11 7 9 11 9 18
          18 27 22 3 8 6
          6 8 13 7 3 4
          14 24 21 14 21 13
          0 1 2 9 7 4
          3 6 2 3 2 1
          1 4 3
        </DataArray>
        <DataArray type="Int64" Name="offsets" format="ascii" RangeMin="3" RangeMax="153">
          3 6 9 12 15 18
          21 24 27 30 33 36
          39 42 45 48 51 54
          57 60 63 66 69 72
          75 78 81 84 87 90
          93 96 99 102 105 108
          111 114 117 120 123 126
          129 132 135 138 141 144
          147 150 153
        </DataArray>
        <DataArray type="UInt8" Name="types" format="ascii" RangeMin="5" RangeMax="5">
          5 5 5 5 5 5
          5 5 5 5 5 5
          5 5 5 5 5 5
          5 5 5 5 5 5
          5 5 5 5 5 5
          5 5 5 5 5 5
          5 5 5 5 5 5
          5 5 5 5 5 5
          5 5 5
        </DataArray>
      </Cells>
    </Piece>
  </UnstructuredGrid>
</VTKFile>
