<?xml version="1.0"?>
<VTKFile type="UnstructuredGrid" version="0.1" byte_order="LittleEndian" header_type="UInt32" compressor="vtkZLibDataCompressor">
  <UnstructuredGrid>
    <Piece NumberOfPoints="49" NumberOfCells="75">
      <PointData>
        <DataArray type="Float64" Name="Velocity" NumberOfComponents="3" format="ascii" RangeMin="0" RangeMax="51.017804319281325">
          34.15751797304383 -0.6278026796481608 0 34.63216505494401 -0.004837025752665751 0
          34.46244205949035 0 0 23.521312262444223 0.7592581910623445 0
          36.28713720826753 2.4529697859389485 0 28.24366457131527 -13.829190946535364 0
          49.93807489469233 10.440547560955821 0 50.05197429469019 -9.60961694653449 0
          0 0 0 28.04134691761143 12.00995839991051 0
          33.76689968053447 -0.56235211649672 0 0 0 0
          34.925621330548225 -0.42650773821005034 0 33.60331946258927 24.768382584397514 0
          0 0 0 0 0 0
          31.490580824193167 -22.329189912246008 0 0 0 0
          35.75157579457176 0.18103706769887165 0 0 0 0
          43.73422016587012 -14.565674287532127 0 14.585290736641417 11.859815828524493 0
          15.272344806286338 -12.369900665542419 0 34.63459807559705 0 0
          33.17486714488191 2.4340267669140903 0 43.38823269711123 15.137299354582035 0
          48.949378621077024 -1.325314589433919 0 35.37515323802049 0.2379241276072606 0
          32.48342463799056 -3.6448759966596334 0 34.779453799169794 0.8512647164020201 0
          34.99267761896449 -0.5283203199309 0 35.245855380355586 -0.45101069840888314 0
          32.387733182277984 -0.1703066133951589 0 35.9805865969652 0.19779292314345373 0
          34.684 0 0 34.684 0 0
          34.684 0 0 34.684 0 0
          34.684 0 0 34.684 0 0
          34.462153584873384 -0.19596843041306633 0 36.77960335767311 0.0060576620328904535 0
          36.06893710636321 -2.4041675491171492 0 34.53219363857107 1.1493895112901504 0
          34.32493707175522 -0.29349436620613606 0 34.351439162006784 -0.12577458022314877 0
          35.20605372435871 0 0 34.90456241345909 0.3716261866358827 0
          34.684 0 0
          <InformationKey name="L2_NORM_RANGE" location="vtkDataArray" length="2">
            <Value index="0">
              0
            </Value>
            <Value index="1">
              51.017804319
            </Value>
          </InformationKey>
        </DataArray>
        <DataArray type="Float64" Name="Pressure" format="ascii" RangeMin="97911.86209914526" RangeMax="191548.91228786824">
          102538.23855477611 102667.0622733361 103314.355719013 100432.54746555441 104453.15486558327 98578.14597837235
          109759.87027334231 109713.2285336423 185796.07926960406 99579.54770753635 102105.0588265719 185766.2191514346
          102798.15338702829 113095.5344953205 184288.06661448162 178170.17752261143 112803.83875811224 182162.07751763903
          102149.88998386043 191548.91228786824 98540.15304912701 112944.55594556985 112516.72922085406 103321.4105297621
          104264.72858549214 97911.86209914526 99569.7290013886 102062.3429336171 104837.89760464652 102495.40147997087
          102685.3317170943 102910.7493225029 103999.97447442572 102836.8588094237 103043.88000005507 103064.02800005513
          103064.02800005511 103064.02800005511 103064.02800005511 103064.02800005513 102316.74960836308 103873.05933703098
          104164.4996195056 102691.88539476485 102922.88991749284 102895.45002089329 103376.38442085085 102636.61123739435
          103064.02800005513
        </DataArray>
        <DataArray type="Float64" Name="Temperature" format="ascii" RangeMin="293.8168866962707" RangeMax="600">
          299.51758773989053 299.54835245004256 300.2196740961602 295.83752714376976 301.36711723908496 294.1353140552752
          309.7313368882725 309.7400641856992 600 295.164413839503 298.88476979681263 600
          299.7664224028565 312.9242973814776 600 600 311.84247257827417 600
          299.0168185195906 600 294.1320729580852 312.2878167935204 311.6989318280318 300.22344002627693
          301.17864748463626 293.8168866962707 295.4594853079093 298.9126950718504 301.63157205892037 299.36605502306645
          299.65590038004774 299.8552807372237 300.92177651544364 299.81517202026674 300 300
          300 300 300 300 299.1435662639923 300.9137784673092
          301.1439222151468 299.66425079371015 299.86805775311177 299.8490352896965 300.27587389277625 299.6218881272634
          300
        </DataArray>
        <DataArray type="Float64" Name="Density" format="ascii" RangeMin="0.9928064935027316" RangeMax="1.2388130234502868">
          1.1724131256023016 1.1737655221855414 1.1785246512379512 1.162621536497423 1.1869784834635937 1.1477587838142038
          1.2136000524387398 1.2130501609213586 1.05954006616144 1.1553758933111598 1.169932008355008 1.0652768421187908
          1.1744092873430736 1.237722597893635 1.059083792831748 0.994682825927789 1.2388130234502868 0.9928064935027316
          1.169928808980244 1.1075791274200775 1.1473290694605534 1.2385895435904024 1.236229018159009 1.1785903425420863
          1.1855786965266017 1.1412366389157764 1.1541082265547662 1.1693333118770763 1.1903060858502916 1.1725165329013805
          1.1735530469299942 1.1753472280220525 1.183577673472278 1.174660444789424 1.1763000000006285 1.176530000000629
          1.176530000000629 1.176530000000629 1.176530000000629 1.176530000000629 1.1713433512946603 1.1821647286332242
          1.184575586978331 1.1735952423142662 1.1754358001430547 1.1751969714136106 1.1790115175768505 1.1731293937190024
          1.176530000000629
        </DataArray>
        <DataArray type="Float64" Name="Momentum" NumberOfComponents="3" format="ascii" RangeMin="0" RangeMax="61.91520999718919">
          40.04672240959311 -0.7360441019078007 0 40.650041300132216 -0.005677534058402626 0
          40.61483750896897 0 0 27.346384202998582 0.882729924691157 0
          43.07205109270474 2.9116223564958292 0 32.41691409882913 -15.872575381929828 0
          60.604850310888324 12.67064906746514 0 60.715555472605644 -11.65694738338628 0
          0 0 0 32.39829624458344 13.876016414926472 0
          39.50497675916977 -0.6579137410556971 0 0 0 0
          41.01697405682319 -0.5008946488775714 0 41.591587863085735 30.656386837983955 0
          0 0 0 0 0 0
          39.01094164102436 -27.66169126638512 0 0 0 0
          41.826798488510256 0.21180048099421672 0 0 0 0
          50.17754212649073 -16.711621526379744 0 18.065188596630016 14.689443874118382 0
          18.8801158248612 -15.292030154487977 0 40.82000280972541 0 0
          39.33141574707228 2.8857302816288657 0 49.51624085174681 17.275240637685155 0
          56.49288055132899 -1.5295564704387385 0 41.36534509397358 0.27821260811046217 0
          38.66521803585947 -4.338518080993609 0 40.77948458480631 0.9981219538569734 0
          41.065763439974795 -0.620011921209937 0 41.426118420567086 -0.5300941741831707 0
          38.333397888921475 -0.20157110525918487 0 42.264971855775535 0.2323395230758897 0
          40.79878920002181 0 0 40.80676652002183 0 0
          40.80676652002182 0 0 40.80676652002181 0 0
          40.80676652002182 0 0 40.80676652002183 0 0
          40.36701447293688 -0.22954631802799555 0 43.47954982256125 0.007161154393263728 0
          42.7263823444547 -2.8479181856897022 0 40.52681816090198 1.3489180620160401 0
          40.346759871798604 -0.34498378517898826 0 40.36970726688927 -0.14780990575906264 0
          41.508342829448296 0 0 40.94756814212834 0.43596560301825793 0
          40.806766520021824 0 0
          <InformationKey name="L2_NORM_RANGE" location="vtkDataArray" length="2">
            <Value index="0">
              0
            </Value>
            <Value index="1">
              61.915209997
            </Value>
          </InformationKey>
        </DataArray>
        <DataArray type="Float64" Name="Energy" format="ascii" RangeMin="241960.8414277622" RangeMax="471000.40761194995">
          252815.87553782377 253152.36082696955 254739.93709922934 247275.95023055482 257625.3435332788 242961.74692389538
          271468.3851170934 271349.7846281161 456854.74286156066 245394.1302112959 251733.71404163516 456781.319694281
          253487.18029126708 279169.5368126018 453146.6843465678 438103.38171655824 278296.8928839195 447919.0810194001
          251924.49042545498 471000.40761194995 243519.73314738745 277938.68283370335 276906.60014509805 254764.33315554826
          257032.888822441 241960.8414277622 246216.0751036855 251693.2002812246 258422.23328903734 252735.93284611567
          253212.0484467412 253777.83345847228 256346.74772816515 253626.35696121413 254082.55260244219 254132.23294512575
          254132.2329451257 254132.23294512572 254132.2329451257 254132.23294512575 252282.66570997733 256213.4727994237
          256904.48722271295 253210.01420091387 253770.01761112665 253703.432981336 254923.288960718 253088.29464798718
          254132.23294512575
        </DataArray>
      </PointData>
      <CellData>
        <DataArray type="UInt8" Name="vtkGhostType" format="ascii" RangeMin="0" RangeMax="1">
          0 0 0 0 0 0
          1 0 0 0 0 1
          0 1 0 1 1 0
          1 0 0 1 1 1
          1 0 1 1 1 0
          0 0 0 0 0 0
          0 0 0 0 0 0
          0 0 0 0 0 0
          0 0 0 0 0 0
          1 0 0 1 0 0
          0 0 0 0 0 0
          1 0 0 1 0 0
          1 0 0
        </DataArray>
      </CellData>
      <Points>
        <DataArray type="Float32" Name="Points" NumberOfComponents="3" format="ascii" RangeMin="0" RangeMax="1.920937301017636">
          1.086230993270874 0.8328040242195129 0 1.1399699449539185 0.19158749282360077 0
          1 1.2000000476837158 0 1.1142899990081787 -1.1752379625029619e-10 0
          1.0117520093917847 0.5012874007225037 0 0.9441453814506531 0.27375510334968567 0
          0.9649400115013123 0.0952281504869461 0 0.9649400115013123 -0.0952281504869461 0
          0.8999999761581421 0 0 0.9571449756622314 -0.27218320965766907 0
          0.8040652275085449 0.3902161121368408 0 0.8500000238418579 0.08660253882408142 0
          0.7502539157867432 0.7588304877281189 0 0.800000011920929 0.1904563009738922 0
          0.8500000238418579 -0.08660253882408142 0 0.75 0.08660253882408142 0
          0.800000011920929 -0.1904563009738922 0 0.75 -0.08660253882408142 0
          0.795934796333313 -0.3902161121368408 0 0.699999988079071 1.1588759812886096e-10 0
          0.6428549885749817 0.27218320965766907 0 0.6350600123405457 0.0952281504869461 0
          0.6350600123405457 -0.0952281504869461 0 0.5 1.2000000476837158 0
          0.5381680727005005 0.4375059902667999 0 0.6558545827865601 -0.27375510334968567 0
          0.49003541469573975 0.013452219776809216 0 0.4600304067134857 0.19158749282360077 0
          0.5882480144500732 -0.5012874007225037 0 0.4600304067134857 -0.19158749282360077 0
          0.3115612864494324 0.75 0 0.22405309975147247 0.348176509141922 0
          0.25999629497528076 0.06726109236478806 0 0.30146610736846924 -0.47640809416770935 0
          0 1.2000000476837158 0 0 0.8999999761581421 0
          0 0.6000000238418579 0 0 0.30000001192092896 0
          0 0 0 0 -0.30000001192092896 0
          1.1399699449539185 -0.19158749282360077 0 1.3130509853363037 -0.04950660839676857 0
          1.0851390361785889 -0.4247578978538513 0 0.8886095285415649 -0.6650667190551758 0
          1.4437849521636963 0.2196556031703949 0 1.410377025604248 0.5858561992645264 0
          1.5 1.2000000476837158 0 0.4590522050857544 -0.7891657948493958 0
          0 -0.6000000238418579 0
          <InformationKey name="L2_NORM_RANGE" location="vtkDataArray" length="2">
            <Value index="0">
              0
            </Value>
            <Value index="1">
              1.920937301
            </Value>
          </InformationKey>
        </DataArray>
      </Points>
      <Cells>
        <DataArray type="Int64" Name="connectivity" format="ascii" RangeMin="0" RangeMax="48">
          8 14 7 11 8 6
          7 14 16 13 11 6
          6 8 7 7 16 9
          7 9 40 13 6 5
          5 6 1 13 5 10
          6 7 3 3 7 40
          6 3 1 3 40 41
          10 5 4 1 3 41
          40 9 42 5 1 4
          9 18 42 10 4 12
          12 4 0 18 43 42
          1 41 44 1 45 4
          0 4 45 12 0 2
          2 0 46 45 1 44
          0 45 46 2 23 12
          17 19 22 15 11 13
          14 17 16 19 15 21
          21 15 13 22 19 21
          16 17 22 9 16 18
          21 13 20 20 13 10
          21 20 27 16 22 25
          25 22 29 16 25 18
          22 21 26 26 21 27
          22 26 29 18 25 28
          26 27 32 29 26 32
          27 20 24 20 10 24
          25 29 28 32 27 31
          18 28 43 27 24 31
          31 30 36 43 28 47
          32 31 37 37 31 36
          10 12 24 34 35 23
          38 39 32 35 36 30
          37 38 32 32 39 29
          39 48 33 28 29 33
          33 29 39 28 33 47
          30 31 24 35 30 23
          33 48 47 30 24 12
          30 12 23
        </DataArray>
        <DataArray type="Int64" Name="offsets" format="ascii" RangeMin="3" RangeMax="225">
          3 6 9 12 15 18
          21 24 27 30 33 36
          39 42 45 48 51 54
          57 60 63 66 69 72
          75 78 81 84 87 90
          93 96 99 102 105 108
          111 114 117 120 123 126
          129 132 135 138 141 144
          147 150 153 156 159 162
          165 168 171 174 177 180
          183 186 189 192 195 198
          201 204 207 210 213 216
          219 222 225
        </DataArray>
        <DataArray type="UInt8" Name="types" format="ascii" RangeMin="5" RangeMax="5">
          5 5 5 5 5 5
          5 5 5 5 5 5
          5 5 5 5 5 5
          5 5 5 5 5 5
          5 5 5 5 5 5
          5 5 5 5 5 5
          5 5 5 5 5 5
          5 5 5 5 5 5
          5 5 5 5 5 5
          5 5 5 5 5 5
          5 5 5 5 5 5
          5 5 5 5 5 5
          5 5 5
        </DataArray>
      </Cells>
    </Piece>
  </UnstructuredGrid>
</VTKFile>
