<?xml version="1.0"?>
<VTKFile type="UnstructuredGrid" version="0.1" byte_order="LittleEndian" header_type="UInt32" compressor="vtkZLibDataCompressor">
  <UnstructuredGrid>
    <Piece NumberOfPoints="46" NumberOfCells="66">
      <PointData>
        <DataArray type="Float64" Name="Velocity" NumberOfComponents="3" format="ascii" RangeMin="34.65642489299507" RangeMax="34.702861648050806">
          34.6840413718121 0 0 34.684081587050805 -0.000004784858331753012 0
          34.68385661881091 0 0 34.683985176481734 -0.000008255645468747944 0
          34.683951063078574 0.00000556393737379008 0 34.68420579488561 0.00005607163922097536 0
          34.6841688593357 0 0 34.6840786412183 0.0000044442731390465496 0
          34.68383181566677 5.980853457382636e-7 0 34.68401752848895 -0.000012610090618727982 0
          34.68393774363081 -0.00009747414842201912 0 34.6835204318169 0 0
          34.6840317342115 0.00002327522175503235 0 34.68381830984504 0.000014089038748772984 0
          34.68444126711836 -0.00012041174897193177 0 34.68454353947815 -0.00009507191297213696 0
          34.68419973538915 -0.0000013471328620971388 0 34.683512080298975 0.0006163161793989244 0
          34.68497115939396 0 0 34.684450752500766 -0.00004236494396260864 0
          34.68338732273254 -0.00006807849897692822 0 34.68366037981711 0.0004482541233017651 0
          34.68398362920718 -4.2747611522544555e-7 0 34.68381553136724 0 0
          34.6837229181972 0 0 34.68467969377944 -0.0014375756794035304 0
          34.682228281034895 0.000819118216332204 0 34.68402988465067 0 0
          34.68567019920772 0.0002821328580456763 0 34.68356015298305 0 0
          34.68610862811025 0.00033990316507376744 0 34.68169199946062 0.0020893520909814043 0
          34.681484355490795 -0.0012366313822449978 0 34.68335699370919 0 0
          34.67803631278364 -0.002802689797650107 0 34.68613021288236 0.0028225301029353826 0
          34.68846175233334 0 0 34.69005447622353 -0.004901927137448473 0
          34.671853862833544 0 0 34.702861648050806 0 0
          34.69107646781843 0.0059720888021599534 0 34.6903923951669 0.0008451566547858352 0
          34.69016039266045 -0.002150230456242707 0 34.675348166743014 0 0
          34.65642457146342 0.004720834109056791 0 34.67427349916657 0 0
          <InformationKey name="L2_NORM_RANGE" location="vtkDataArray" length="2">
            <Value index="0">
              34.656424893
            </Value>
            <Value index="1">
              34.702861648
            </Value>
          </InformationKey>
        </DataArray>
        <DataArray type="Float64" Name="Pressure" format="ascii" RangeMin="103052.11164515067" RangeMax="103071.41332648027">
          103064.04782363368 103064.06204132135 103063.9619403085 103064.02613829367 103064.00740329143 103064.12161693943
          103064.08072832845 103064.0555776267 103063.96152058982 103064.03540714119 103063.98715278435 103063.85362585627
          103064.04440938919 103063.95730695983 103064.21051808783 103064.38669089158 103064.10964924301 103063.74982185054
          103064.21578258 103064.21065034304 103063.78366152535 103063.89817085289 103064.02504471655 103063.94855466123
          103064.22113992265 103064.27879574495 103063.2470845458 103064.03403106901 103064.72461677932 103063.85815199684
          103064.83415945662 103063.15180380458 103063.05647742638 103063.57700859912 103062.12813864049 103064.54581568817
          103066.25779846526 103067.2873063218 103058.63135912378 103071.41332648027 103065.8513835632 103065.87913516186
          103066.01898180548 103061.49775138829 103052.11164515067 103061.876245925
        </DataArray>
        <DataArray type="Float64" Name="Temperature" format="ascii" RangeMin="299.98986637784867" RangeMax="300.00627549549074">
          300.00001667895987 300.0000286406819 299.99994441822884 299.9999984367191 299.9999826694555 300.0000787642375
          300.00004436483226 300.0000232052044 299.99994405354767 300.00000623048055 299.99996566223365 299.99985327899657
          300.0000137981366 299.99994052366037 300.0001536153156 300.00030163381996 300.00006869844435 299.99976592317563
          300.0001583618017 300.0001536830089 299.99979440340996 299.99989051160253 299.99999751448297 299.9999331538721
          300.000160727017 300.0002113811492 299.99934301455704 300.0000050727966 300.0005864611873 299.99985707543095
          300.0006796842795 299.9992590859715 299.9991817505869 299.9996200234113 299.9983967693588 300.00043589611687
          300.0018798862277 300.00275898975707 299.995440372151 300.00627549549074 300.0015278985609 300.0015758452973
          300.00167886125365 299.99787296339025 299.98986637784867 299.99806119284136
        </DataArray>
        <DataArray type="Float64" Name="Density" format="ascii" RangeMin="1.1764337070008577" RangeMax="1.1765896951021582">
          1.1765301608861902 1.1765302762774608 1.1765294638725707 1.1765299848784674 1.176529832844098 1.1765307597913626
          1.176530427932974 1.1765302238076756 1.1765294605114547 1.176530060121914 1.1765296683722535 1.1765285848324314
          1.1765301332087161 1.1765294262540371 1.1765314810956329 1.176532911704493 1.1765306626495633 1.1765277424432745
          1.176531522577919 1.1765314823399173 1.1765280170485006 1.176528947319674 1.176529976011505 1.1765293552445124
          1.1765315744589362 1.176532033976147 1.1765236619697512 1.1765300489534942 1.1765356522713541 1.1765286216120083
          1.1765365371555612 1.1765229034347395 1.1765221185214385 1.1765263418712233 1.1765145994991228 1.1765342016490266
          1.1765480817319294 1.176556386336443 1.1764862756425 1.1765896951021582 1.1765448227437203 1.1765449515038335
          1.176546143910355 1.1765094574790538 1.1764337070008577 1.176513040036998
        </DataArray>
        <DataArray type="Float64" Name="Momentum" NumberOfComponents="3" format="ascii" RangeMin="40.77098640826299" RangeMax="40.83102940565248">
          40.806820775361366 0 0 40.80687209204287 -0.000005629530695005881 0
          40.80657923276271 0 0 40.806748555211044 -0.000009713014438508006 0
          40.80670314661671 0.000006546138308340273 0 40.80703499661674 0.0000659700082954013 0
          40.80698003057376 0 0 40.80686680631558 0.000005228821670944878 0
          40.80654993455646 7.036650291612461e-7 0 40.80678922806262 -0.000014836150673794816 0
          40.80668177135784 -0.00011468122751782597 0 40.80615321065226 0 0
          40.8068084764672 0.000027383999751910617 0 40.806532856381246 0.000016576168675564776 0
          40.80733705497725 -0.00014166821335926243 0 40.807507001643486 -0.00011185523459042446 0
          40.80702449814721 -0.0000015849431189201495 0 40.806114167838196 0.0007251130831794808 0
          40.80796192873298 0 0 40.80734825798559 -0.00004984369031957547 0
          40.80597691133962 -0.00008009626140496374 0 40.806330435859316 0.0005273839518199291 0
          40.80674642725455 -5.029384635916849e-7 0 40.8065271245391 0 0
          40.80649513304404 0 0 40.80763674793348 -0.0016913538380832769 0
          40.804462222474044 0.0009637119634652955 0 40.80680337809251 0 0
          40.80892761229393 0.0003319393661679511 0 40.806201219386324 0 0
          40.809474132718464 0.00039990849280410545 0 40.80380496723478 0.002458170588378886 0
          40.80353344739016 -0.0014549241736689796 0 40.80588312762238 0 0
          40.79921600395068 -0.0032974054648025933 0 40.80941851830773 0.0033208032012874253 0
          40.81264313293919 0 0 40.81480513635991 -0.0057673936789209195 0
          40.79096022070606 0 0 40.83102940565248 0 0
          40.815606413618276 0.0070264301611470395 0 40.8148060382206 0.0009943647954181426 0
          40.81457444161639 -0.0025298453518109603 0 40.795875059552124 0 0
          40.77098603000232 0.005553748371053772 0 40.79473492557878 0 0
          <InformationKey name="L2_NORM_RANGE" location="vtkDataArray" length="2">
            <Value index="0">
              40.770986408
            </Value>
            <Value index="1">
              40.831029406
            </Value>
          </InformationKey>
        </DataArray>
        <DataArray type="Float64" Name="Energy" format="ascii" RangeMin="254101.7491402253" RangeMax="254151.19859183888">
          254132.2834744267 254132.32014482137 254132.0643371597 254132.22775323738 254132.1802021601 254132.47199492983
          254132.3697469135 254132.3040994456 254132.06229095897 254132.25190988372 254132.12976566012 254131.7837550141
          254132.2746691997 254132.05135831583 254132.70063716022 254133.1388631807 254132.4422618095 254131.52766367368
          254132.73523064354 254132.7013501773 254131.6059462725 254131.8992157868 254132.22499576345 254132.02968116163
          254132.69749777816 254132.87858873472 254130.2366410175 254132.2490237518 254134.01741607997 254131.7965273507
          254134.30519528058 254129.9800182821 254129.73667350295 254131.09556137046 254127.3087747753 254133.5956661292
          254137.90876577407 254140.51024265314 254118.44128342 254151.19859183888 254137.01420790574 254137.05458277636
          254137.38970293239 254125.64594701884 254101.7491402253 254126.53494112994
        </DataArray>
      </PointData>
      <CellData>
        <DataArray type="UInt8" Name="vtkGhostType" format="ascii" RangeMin="0" RangeMax="0">
          0 0 0 0 0 0
          0 0 0 0 0 0
          0 0 0 0 0 0
          0 0 0 0 0 0
          0 0 0 0 0 0
          0 0 0 0 0 0
          0 0 0 0 0 0
          0 0 0 0 0 0
          0 0 0 0 0 0
          0 0 0 0 0 0
          0 0 0 0 0 0
        </DataArray>
      </CellData>
      <Points>
        <DataArray type="Float32" Name="Points" NumberOfComponents="3" format="ascii" RangeMin="3.1116600571489244" RangeMax="7.102112369882704">
          7 1.2000000476837158 0 7 0.7200000286102295 0
          6.5 1.2000000476837158 0 6.566987037658691 0.47999998927116394 0
          7 0.23999999463558197 0 6.140567779541016 0.7387298941612244 0
          6 1.2000000476837158 0 6.566987037658691 -1.5543120227169823e-15 0
          6.133975028991699 0.23999999463558197 0 7 -0.23999999463558197 0
          5.707554817199707 0.4987299144268036 0 5.5 1.2000000476837158 0
          6.133975028991699 -0.23999999463558197 0 6.566987037658691 -0.47999998927116394 0
          5.700962066650391 -1.7763570511584873e-15 0 5.278289794921875 0.7549629807472229 0
          7 -0.7200000286102295 0 5.271283149719238 0.25508859753608704 0
          5 1.2000000476837158 0 6.140567779541016 -0.7387298941612244 0
          5.707554817199707 -0.4987299144268036 0 5.271283149719238 -0.25508859753608704 0
          7 -1.2000000476837158 0 6.5 -1.2000000476837158 0
          4.5 1.2000000476837158 0 4.75 0.09903810918331146 0
          4.5 0.5320507884025574 0 6 -1.2000000476837158 0
          5.278289794921875 -0.7549629807472229 0 5.5 -1.2000000476837158 0
          4.5 -0.33397459983825684 0 4.25 0.09903810918331146 0
          4.75 -0.7669873237609863 0 5 -1.2000000476837158 0
          4 -0.33397459983825684 0 4.25 -0.7669873237609863 0
          4.5 -1.2000000476837158 0 3.75 -0.7669873237609863 0
          4 -1.2000000476837158 0 3.5 -1.2000000476837158 0
          3.5 -0.33397459983825684 0 3.75 0.09903810918331146 0
          4 0.5320507884025574 0 4 1.2000000476837158 0
          3.0359580516815186 -0.6821928024291992 0 3 -1.2000000476837158 0
          <InformationKey name="L2_NORM_RANGE" location="vtkDataArray" length="2">
            <Value index="0">
              3.1116600571
            </Value>
            <Value index="1">
              7.1021123699
            </Value>
          </InformationKey>
        </DataArray>
      </Points>
      <Cells>
        <DataArray type="Int64" Name="connectivity" format="ascii" RangeMin="0" RangeMax="45">
          22 16 23 9 4 7
          1 0 2 16 9 13
          4 1 3 7 4 3
          7 3 8 13 9 7
          13 7 12 3 1 2
          8 3 5 12 7 8
          12 8 14 14 8 10
          12 14 20 16 13 23
          13 12 19 5 3 2
          10 8 5 10 5 11
          20 14 21 19 12 20
          19 20 29 14 10 17
          13 19 23 21 14 17
          20 21 28 17 10 15
          38 36 35 6 11 5
          6 5 2 15 10 11
          15 11 18 35 36 32
          32 36 33 35 32 30
          30 32 21 35 30 34
          34 30 31 35 34 37
          31 30 25 37 34 40
          35 37 38 25 30 21
          40 34 41 41 34 31
          41 31 42 42 31 26
          26 31 25 26 25 15
          27 23 19 27 19 29
          28 21 32 33 29 28
          28 29 20 18 24 26
          17 15 25 32 33 28
          24 43 42 42 26 24
          21 17 25 15 18 26
          37 40 44 38 37 39
          39 37 44 45 39 44
        </DataArray>
        <DataArray type="Int64" Name="offsets" format="ascii" RangeMin="3" RangeMax="198">
          3 6 9 12 15 18
          21 24 27 30 33 36
          39 42 45 48 51 54
          57 60 63 66 69 72
          75 78 81 84 87 90
          93 96 99 102 105 108
          111 114 117 120 123 126
          129 132 135 138 141 144
          147 150 153 156 159 162
          165 168 171 174 177 180
          183 186 189 192 195 198
        </DataArray>
        <DataArray type="UInt8" Name="types" format="ascii" RangeMin="5" RangeMax="5">
          5 5 5 5 5 5
          5 5 5 5 5 5
          5 5 5 5 5 5
          5 5 5 5 5 5
          5 5 5 5 5 5
          5 5 5 5 5 5
          5 5 5 5 5 5
          5 5 5 5 5 5
          5 5 5 5 5 5
          5 5 5 5 5 5
          5 5 5 5 5 5
        </DataArray>
      </Cells>
    </Piece>
  </UnstructuredGrid>
</VTKFile>
