<?xml version="1.0"?>
<VTKFile type="UnstructuredGrid" version="0.1" byte_order="LittleEndian" header_type="UInt32" compressor="vtkZLibDataCompressor">
  <UnstructuredGrid>
    <Piece NumberOfPoints="58" NumberOfCells="82">
      <PointData>
        <DataArray type="Float64" Name="Velocity" NumberOfComponents="3" format="ascii" RangeMin="20.803764720501455" RangeMax="56.966515558477454">
          34.681223055435154 0 0 34.68661857033742 -0.0006377575289977543 0
          34.69295552315262 0.0008472196583031274 0 34.70539856353159 0 0
          34.6746054005992 -0.004235195327048717 0 34.68632606229489 0.0037331066610814595 0
          34.665909595811044 -0.008585609042329185 0 34.65296616573753 0 0
          34.702529970479816 0.01835032762445448 0 34.70945360075025 0.008211966807089396 0
          34.72178915187389 0.009836388030528437 0 34.6597489565561 0.004812383678082706 0
          34.74005551257766 0 0 34.603896137881144 -0.02344896672514468 0
          34.66193055453296 0 0 34.69858321073789 -0.029329145218471832 0
          34.615781988388484 -0.008665784014298218 0 34.586268813058254 0 0
          34.71139213366715 0.01908788934633967 0 34.741995700738734 0 0
          34.92526723229104 0.053215284617435105 0 34.621795825213056 0.07048565950839623 0
          35.197133813837645 0 0 34.300081898288965 -0.052976554615412196 0
          34.959907896706845 -0.1383525944302857 0 34.524764905217026 0 0
          34.39912097552039 -0.1281584222780263 0 34.42834552619152 -0.22379382576862278 0
          37.11774192673472 -0.03505615116319644 0 34.0184778209152 0.6172371002705828 0
          34.65781951490734 0 0 34.133931534996286 -0.06664709107674743 0
          34.472777970242845 0.11961698942706366 0 36.28402682611465 -2.799561892296441 0
          34.52391589222009 1.1560368395312783 0 34.75427827736433 0 0
          34.98022203518299 0.5084136753986307 0 34.61360531543526 0 0
          34.684 0 0 34.684 0 0
          34.684 0 0 34.68828839291627 -0.0053054515735014764 0
          34.68002676961805 -0.0009295578449340281 0 34.681172690890875 0.000566058892703282 0
          34.68427324337273 0.00023282630211812495 0 34.68313404388123 0 0
          55.482438395967016 -12.918317402509455 0 26.675981402915966 14.931574805285543 0
          20.786495604752435 0.847482754744066 0 34.29813577269729 -0.22511873829084614 0
          35.89710109579001 0.6897558379138103 0 36.39674667248545 2.8795331760897027 0
          34.13890871350317 -0.7269011094761509 0 34.446507117636315 0 0
          34.70459927656334 0 0 32.07899250366353 -4.348260050348833 0
          34.684 0 0 35.986439659349315 0.046964146552299996 0
          <InformationKey name="L2_NORM_RANGE" location="vtkDataArray" length="2">
            <Value index="0">
              20.803764721
            </Value>
            <Value index="1">
              56.966515558
            </Value>
          </InformationKey>
        </DataArray>
        <DataArray type="Float64" Name="Pressure" format="ascii" RangeMin="98941.16409340987" RangeMax="111965.42459545066">
          103063.56294645542 103064.79645575554 103066.94718990687 103072.78271726308 103060.00035402544 103064.1230292447
          103057.57925664667 103051.0402100413 103073.81429722629 103075.0690872689 103078.60287834726 103053.7558107442
          103086.38965641949 103032.82524578893 103056.61197288375 103065.86422084636 103036.10683969028 103043.51401694279
          103082.11613758926 103089.66939530137 103153.70858256405 103038.01550317126 103370.8955616285 102885.27965866815
          103183.25335604794 102992.86781426243 102916.18558188912 102967.31101256334 103991.51801712732 102899.11343279056
          103079.4522022051 101972.71232716288 102827.82392229082 104323.4673307107 102722.17406783858 103428.63425619871
          102561.72546595543 103314.93559846067 103064.02800004787 103064.02800004787 103043.88000004787 103066.4357696067
          103062.9773582803 103062.90646186644 103064.07299260753 103063.81832655697 111965.42459545066 98941.16409340987
          99938.07108678402 102398.82516935049 101682.79240295969 104593.21839836573 102524.08012945642 103299.11255472954
          103071.8968844326 105146.0114033926 103064.02800004787 102886.2092523008
        </DataArray>
        <DataArray type="Float64" Name="Temperature" format="ascii" RangeMin="293.6994991552528" RangeMax="313.0031913202057">
          299.9996181790465 300.00066134484575 300.00250341358816 300.0075023283437 299.9965016667767 300.0000716704275
          299.9944426936779 299.98877893557733 300.0085273625508 300.009730994836 300.0129119168274 299.991054107026
          300.01942126388593 299.9716434282876 299.9934481508233 300.0015667717787 299.97492374370427 299.98160556739793
          300.0182710979328 300.02303477782766 300.08371973519274 299.97530254012565 300.2770877765732 299.8150398459744
          300.11502688220503 299.9339996751225 299.8630801976686 299.9024350015131 301.10205906025135 299.8055535839318
          300.0167960172802 298.79144572169054 299.7671923601297 301.38907538123976 299.6812591007531 300.3269346932528
          299.54844153646815 300.21659241550014 300 300 300 300.0020738904775
          299.9991015306648 299.9990464248697 300.0000376141099 299.99981623340364 313.0031913202057 293.6994991552528
          294.6479979309673 299.2652784962765 298.46723628310997 301.57491838944986 299.4891853200345 300.2110794268709
          300.00678618139074 301.9802740295196 300 299.86124422391845
        </DataArray>
        <DataArray type="Float64" Name="Density" format="ascii" RangeMin="1.153694861701172" RangeMax="1.225045768059471">
          1.1765261885774196 1.1765361786721844 1.1765535060855803 1.1766005155501273 1.1764977415766815 1.176530803733844
          1.1764781777070112 1.1764257400542746 1.1766082711707329 1.1766178742674775 1.1766457373834875 1.1764478188198286
          1.1767090927910906 1.1762849888744769 1.1764710356921624 1.1765448168344688 1.176309590095816 1.1763679508478426
          1.1766648223949048 1.176732357430638 1.1772252276614386 1.17632989489043 1.1789441509781613 1.1752140530613036
          1.1774395627065994 1.1759763851908211 1.1753787432470841 1.175808317256598 1.1827728338577383 1.1754092606768374
          1.176640199137247 1.1687805074716218 1.1747452386403674 1.185418376365886 1.173874764178497 1.1794068751246176
          1.172560885447144 1.1785433634786684 1.1765300000005467 1.1765300000005467 1.1763000000005466 1.1765493525060862
          1.1765215299347855 1.1765209367236218 1.176530366100433 1.1765283271562326 1.225045768059471 1.153694861701172
          1.1615679404195747 1.1718061977529988 1.1667235085586256 1.187751141016612 1.1723624112898974 1.1783845045522836
          1.1765932121979903 1.19242583412387 1.1765300000005467 1.175043585902177
        </DataArray>
        <DataArray type="Float64" Name="Momentum" NumberOfComponents="3" format="ascii" RangeMin="24.16498613936628" RangeMax="69.78658880600682">
          40.80336717661446 0 0 40.81006166380442 -0.0007503448060864327 0
          40.81811845723631 0.0009967992594011718 0 40.83438984222391 0 0
          40.79459494386756 -0.00498269773740893 0 40.80953108064599 0.004392114980386336 0
          40.78368614983577 -0.010100781680624277 0 40.766641366603515 0 0
          40.8312837938168 0.021591147261625927 0 40.83976351270041 0.00966234692811261 0
          40.855245199880635 0.011573944047371243 0 40.775386060783255 0.0056615182814045446 0
          40.87893920571739 0 0 40.704043583561074 -0.027582667563404786 0
          40.778757338581194 0 0 40.82443822809318 -0.034507053788978476 0
          40.71887632160739 -0.010193644841718013 0 40.686178171089985 0 0
          40.84367406004135 0.02246004792760436 0 40.882030502775386 0 0
          41.1149056686704 0.06264637554882829 0 40.7266534439908 0.08291438844079438 0
          41.495455041019554 0 0 40.309938268022826 -0.06225879146680208 0
          41.1631786661615 -0.16290181828531908 0 40.60030823280004 0 0
          40.43199558101157 -0.15063468531367566 0 40.48113501907998 -0.26313864168942064 0
          43.901856805084215 -0.041463463255439106 0 39.985633864833325 0.7255062036913607 0
          40.77978365568334 0 0 39.895073821474554 -0.07789582093018826 0
          40.49673178324933 0.1405194887899382 0 43.01175216822908 -3.3186521129018547 0
          40.52675362649812 1.3570424723864343 0 40.98943474031764 0 0
          41.01644012271187 0.5961459893988553 0 40.79363483057618 0 0
          40.80676652001897 0 0 40.80676652001897 0 0
          40.79878920001895 0 0 40.81248324823002 -0.006242125613555558 0
          40.801798153170346 -0.001093644817884665 0 40.80312578096062 0.0006659801386840014 0
          40.807100696952766 0.00027392721446884756 0 40.80568967718296 0 0
          67.9685263585997 -15.825530064393227 0 30.775942675380172 17.226481129964608 0
          24.144926888152828 0.9844087979691722 0 40.19076806982053 -0.2637955327595488 0
          41.88199173756381 0.8047543512595955 0 43.230277389537164 3.420168815495733 0
          40.02317333816826 -0.852191537474762 0 40.591230223372584 0 0
          40.83319594085572 0 0 38.25181939403436 -5.184977617524709 0
          40.80676652001897 0 0 42.28563510117414 0.055184919173649954 0
          <InformationKey name="L2_NORM_RANGE" location="vtkDataArray" length="2">
            <Value index="0">
              24.164986139
            </Value>
            <Value index="1">
              69.786588806
            </Value>
          </InformationKey>
        </DataArray>
        <DataArray type="Float64" Name="Energy" format="ascii" RangeMin="243825.933479854" RangeMax="277299.9920681308">
          254130.97381716056 254134.23308063674 254139.79059256875 254154.675897543 254121.92665639048 254132.56202675475
          254115.60699035457 254098.9687918799 254157.10018936373 254160.4739528881 254169.6838899769 254105.93600748386
          254189.61547751803 254052.0969911111 254113.06192793202 254137.352680461 254060.66446111837 254077.71163035723
          254177.90960344937 254197.7733962646 254363.0541537438 254065.61762687584 254909.38045026027 253676.35570999913
          254437.2674543504 253950.44397525917 253756.45387672383 253883.62289839122 256519.94063698972 253699.40199702335
          254169.15782508702 251422.01186216975 253541.7846485205 257306.36771681227 253284.33147366755 255033.37293244735
          252906.98187046024 254747.5271126858 254132.23294510788 254132.23294510788 254082.55260242443 254138.34008561235
          254129.48229936627 254129.35437123163 254132.3549479609 254131.6810355226 277299.9920681308 243825.933479854
          245989.49504275378 252478.15592869825 250780.23470188104 257976.33952703577 252780.36542215178 254701.7254281269
          254152.46068342356 259168.77227601266 254132.23294510788 253748.17877438964
        </DataArray>
      </PointData>
      <CellData>
        <DataArray type="UInt8" Name="vtkGhostType" format="ascii" RangeMin="0" RangeMax="1">
          1 1 1 0 1 0
          1 0 0 0 0 1
          1 0 0 0 0 0
          0 0 0 0 0 0
          0 0 0 0 0 0
          0 0 0 0 0 0
          0 0 0 0 0 0
          0 0 0 0 0 0
          0 0 0 1 1 0
          0 0 0 1 0 0
          0 0 0 0 0 0
          0 0 0 0 0 0
          0 0 0 0 0 0
          0 0 0 0
        </DataArray>
      </CellData>
      <Points>
        <DataArray type="Float32" Name="Points" NumberOfComponents="3" format="ascii" RangeMin="0.30000001192092896" RangeMax="4.65725242116432">
          4 1.2000000476837158 0 4 0.5320507884025574 0
          3.75 0.09903810918331146 0 3.5 1.2000000476837158 0
          3.5 0.5320507884025574 0 3.5 -0.33397459983825684 0
          3.25 0.09903810918331146 0 3 1.2000000476837158 0
          2.9339659214019775 0.3125396966934204 0 2.9850969314575195 -0.18481269478797913 0
          2.75 0.7669873237609863 0 3.0359580516815186 -0.6821928024291992 0
          2.5 1.2000000476837158 0 2.528865098953247 0.019508730620145798 0
          3 -1.2000000476837158 0 2.5798211097717285 -0.47746700048446655 0
          2.25 0.7669873237609863 0 2 1.2000000476837158 0
          2.1248021125793457 -0.274284690618515 0 2.5 -1.2000000476837158 0
          1.8583029508590698 0.4420956075191498 0 2.1729509830474854 -0.7651854157447815 0
          1.5 1.2000000476837158 0 1.6643450260162354 -0.16851860284805298 0
          1.7341229915618896 -0.5399479269981384 0 2 -1.2000000476837158 0
          1.410377025604248 0.5858561992645264 0 1.4437849521636963 0.2196556031703949 0
          1.3130509853363037 -0.04950660839676857 0 1.3759469985961914 -0.348176509141922 0
          1.5 -1.2000000476837158 0 1.1399699449539185 -0.19158749282360077 0
          1.2639700174331665 -0.7296581864356995 0 1.0851390361785889 -0.4247578978538513 0
          0.8886095285415649 -0.6650667190551758 0 1 -1.2000000476837158 0
          0.4590522050857544 -0.7891657948493958 0 0.5 -1.2000000476837158 0
          0 -0.6000000238418579 0 0 -0.8999999761581421 0
          0 -1.2000000476837158 0 3.75 -0.7669873237609863 0
          4 -0.33397459983825684 0 4.25 0.09903810918331146 0
          4.5 0.5320507884025574 0 4.5 1.2000000476837158 0
          0.9649400115013123 -0.0952281504869461 0 0.9571449756622314 -0.27218320965766907 0
          1.1142899990081787 -1.1752379625029619e-10 0 1.1399699449539185 0.19158749282360077 0
          0.795934796333313 -0.3902161121368408 0 1.0117520093917847 0.5012874007225037 0
          1.086230993270874 0.8328040242195129 0 1 1.2000000476837158 0
          3.5 -1.2000000476837158 0 0.5882480144500732 -0.5012874007225037 0
          0 -0.30000001192092896 0 0.30146610736846924 -0.47640809416770935 0
          <InformationKey name="L2_NORM_RANGE" location="vtkDataArray" length="2">
            <Value index="0">
              0.30000001192
            </Value>
            <Value index="1">
              4.6572524212
            </Value>
          </InformationKey>
        </DataArray>
      </Points>
      <Cells>
        <DataArray type="Int64" Name="connectivity" format="ascii" RangeMin="0" RangeMax="57">
          41 42 5 5 42 2
          2 42 43 5 2 6
          2 43 1 6 2 4
          1 43 44 2 1 4
          4 1 0 0 3 4
          3 7 4 45 0 1
          1 44 45 46 47 31
          48 46 31 48 31 28
          49 48 28 31 47 33
          47 50 33 28 31 29
          31 33 29 29 33 32
          28 29 23 50 34 33
          49 28 27 27 28 23
          49 26 51 32 33 34
          29 32 24 52 51 26
          23 29 24 23 24 18
          53 52 22 24 32 30
          26 49 27 26 27 20
          52 26 22 27 23 20
          18 24 21 23 18 20
          26 20 17 21 24 25
          21 25 19 18 21 15
          15 21 19 18 15 13
          13 15 9 18 13 20
          9 15 11 13 9 8
          17 22 26 41 5 11
          54 41 11 6 4 8
          6 8 9 6 9 5
          35 30 32 14 54 11
          7 12 10 10 12 16
          7 10 4 16 12 17
          16 17 20 10 16 13
          11 15 19 19 14 11
          13 8 10 10 8 4
          30 25 24 9 11 5
          16 20 13 32 34 35
          50 55 34 34 55 36
          38 39 36 56 38 57
          39 40 37 55 57 36
          34 36 35 57 38 36
          37 35 36 37 36 39
        </DataArray>
        <DataArray type="Int64" Name="offsets" format="ascii" RangeMin="3" RangeMax="246">
          3 6 9 12 15 18
          21 24 27 30 33 36
          39 42 45 48 51 54
          57 60 63 66 69 72
          75 78 81 84 87 90
          93 96 99 102 105 108
          111 114 117 120 123 126
          129 132 135 138 141 144
          147 150 153 156 159 162
          165 168 171 174 177 180
          183 186 189 192 195 198
          201 204 207 210 213 216
          219 222 225 228 231 234
          237 240 243 246
        </DataArray>
        <DataArray type="UInt8" Name="types" format="ascii" RangeMin="5" RangeMax="5">
          5 5 5 5 5 5
          5 5 5 5 5 5
          5 5 5 5 5 5
          5 5 5 5 5 5
          5 5 5 5 5 5
          5 5 5 5 5 5
          5 5 5 5 5 5
          5 5 5 5 5 5
          5 5 5 5 5 5
          5 5 5 5 5 5
          5 5 5 5 5 5
          5 5 5 5 5 5
          5 5 5 5 5 5
          5 5 5 5
        </DataArray>
      </Cells>
    </Piece>
  </UnstructuredGrid>
</VTKFile>
