<?xml version="1.0"?>
<VTKFile type="UnstructuredGrid" version="0.1" byte_order="LittleEndian" header_type="UInt32" compressor="vtkZLibDataCompressor">
  <UnstructuredGrid>
    <Piece NumberOfPoints="46" NumberOfCells="66">
      <PointData>
        <DataArray type="Float64" Name="Velocity" NumberOfComponents="3" format="ascii" RangeMin="34.65094140254532" RangeMax="34.7081508600553">
          34.68402696485057 0 0 34.684034693167824 -0.0000026439156994435303 0
          34.68391659151276 0 0 34.68401125439661 -0.000004415025656464714 0
          34.68396191592019 0.000003938761095465178 0 34.68411345526175 0.000035164575214880594 0
          34.68411245721864 0 0 34.684053060211305 0.000008047029152186342 0
          34.68385201082881 -0.000006411216063122861 0 34.68401816275342 -0.000014594687650986564 0
          34.68401052137106 -0.00006747975539561158 0 34.683672818490166 0 0
          34.6840468795268 0.000012013223715574105 0 34.68384822579414 0.00001501302880325693 0
          34.68437160691388 -0.00007981652277556283 0 34.684257111153855 -0.00008622277356886194 0
          34.684158647789616 -0.0000028966120656638803 0 34.683613968315996 0.00044098579369946316 0
          34.684886468249225 0 0 34.68439786038455 -0.000028701508870729058 0
          34.68342653958398 -0.00010045524157206479 0 34.68363905345715 0.0005169651621834613 0
          34.68398443331371 4.325466842271261e-7 0 34.68384162622271 0 0
          34.683310868031626 0 0 34.6847241121234 -0.0012364114783786017 0
          34.68271042970031 0.0007446233248568266 0 34.68404165164817 0 0
          34.68570517731537 0.00031750766909395306 0 34.68357503842078 0 0
          34.68630389746516 0.00017652949584465565 0 34.6808869380916 0.001933570679212291 0
          34.68128846333795 -0.0013583166605966384 0 34.683325020528294 0 0
          34.67745121508577 -0.002684249201777368 0 34.68646506272184 0.0033337754528236082 0
          34.68891791244221 0 0 34.69083080001448 -0.006283808861517881 0
          34.669806402072666 0 0 34.7081508600553 0 0
          34.69082812247334 0.006534497112646055 0 34.69302730445262 0.0010466423319975056 0
          34.69020069967838 -0.00199850154421774 0 34.6758414707299 0 0
          34.650940889060976 0.005965352567170933 0 34.667063083985475 0 0
          <InformationKey name="L2_NORM_RANGE" location="vtkDataArray" length="2">
            <Value index="0">
              34.650941403
            </Value>
            <Value index="1">
              34.70815086
            </Value>
          </InformationKey>
        </DataArray>
        <DataArray type="Float64" Name="Pressure" format="ascii" RangeMin="103049.8517096921" RangeMax="103073.38887185298">
          103064.04104415365 103064.04161505587 103063.99055241607 103064.03487295426 103064.01277875724 103064.07881958265
          103064.06593077816 103064.04453795128 103063.97193443295 103064.03670087266 103064.02484104344 103063.91284800037
          103064.05372391116 103063.96942830736 103064.1669749558 103064.25165702065 103064.08941673463 103063.79618592579
          103064.21697219604 103064.18189858684 103063.81044281159 103063.90299589394 103064.03181822482 103063.96148783808
          103064.05637859995 103064.31211121005 103063.42493160568 103064.04974446214 103064.71762010171 103063.864901747
          103064.88326456699 103062.8282638274 103062.98090975732 103063.56213073357 103062.03492386323 103064.63231833106
          103066.5014354661 103067.7513420084 103057.69901786443 103073.38887185298 103065.5470875734 103066.78137858663
          103065.9996764219 103061.80516837587 103049.8517096921 103059.24127141031
        </DataArray>
        <DataArray type="Float64" Name="Temperature" format="ascii" RangeMin="299.98786409545386" RangeMax="300.007988945777">
          300.0000109763097 300.0000114539726 299.9999684885875 300.00000578917644 299.9999871896738 300.00004275560946
          300.00003193516943 300.00001392179706 299.9999527951401 300.00000731762094 299.999997429646 299.9999030392312
          300.00002162692664 299.9999507214707 300.0001170361766 300.0001877822283 300.00005167687664 299.9998049067303
          300.000160292658 300.0001294986274 299.9998169271542 299.9998942608189 300.00000321419424 299.9999440338049
          300.0000182968938 300.00023992220093 299.99949245935045 300.00001829506834 300.0005809093653 299.999862731026
          300.0007225541944 299.9989825614506 299.99911742090313 299.99960704080615 299.99831355187666 300.0005085060019
          300.0020883837651 300.00316655960415 299.9946392296364 300.007988945777 300.00126634194584 300.00235331223024
          300.00167004757037 299.99813696767 299.98786409545386 299.9957569966509
        </DataArray>
        <DataArray type="Float64" Name="Density" format="ascii" RangeMin="1.1764157597665215" RangeMax="1.1766055264752215">
          1.1765301058593343 1.1765301105032002 1.1765296960965403 1.1765300557545817 1.176529876480626 1.1765304124546392
          1.176530307757435 1.1765301341913523 1.1765295451084858 1.1765300706270267 1.1765299740191806 1.1765290657366656
          1.1765302088361789 1.176529524632187 1.176531127483082 1.1765318167231156 1.1765304984395384 1.1765281188296728
          1.17653152858563 1.1765312489692437 1.1765282344383587 1.1765289876965268 1.1765300309817213 1.1765294602150027
          1.1765302522004568 1.176532302357922 1.176525106105321 1.1765301764754537 1.1765355941737727 1.1765286764840779
          1.1765369295884993 1.176520294505264 1.176521508159338 1.1765262229470095 1.1765138617546205 1.176534904360884
          1.1765500452713036 1.1765600850787479 1.1764787741206368 1.1766055264752215 1.176542374832477 1.1765522019467833
          1.1765459580959818 1.1765119314756534 1.1764157597665215 1.1764919965111744
        </DataArray>
        <DataArray type="Float64" Name="Momentum" NumberOfComponents="3" format="ascii" RangeMin="40.763913556700565" RangeMax="40.83780211567678">
          40.806801916583645 0 0 40.806811170249574 -0.0000031106464300274426 0
          40.806657846850264 0 0 40.80678169492778 -0.0000051944103817583385 0
          40.806717428796325 0.000004634070105134341 0 40.806914309142606 0.000041372192181355644 0
          40.806909503584926 0 0 40.80683360123039 0.00000946757228826352 0
          40.80657662891046 -0.000007542985118338158 0 40.80679033865336 -0.000017171088892794617 0
          40.80677799758968 -0.00007939195486241955 0 40.806349177454415 0 0
          40.80682891845348 0.000014133920606880138 0 40.8065714655085 0.000017663271641185206 0
          40.80724283272458 -0.00009390662353291204 0 40.80713203067749 -0.00010144383642987897 0
          40.806970461839946 -0.000003407952437401506 0 40.80624709635738 0.0005188321862918396 0
          40.80786249530829 0 0 40.8072779344244 -0.000033768222078980686 0
          40.80603059088925 -0.0001181884280068602 0 40.80630674519566 0.0006082244989380786 0
          40.80674927989612 5.089041637947815e-7 0 40.806561466682446 0 0
          40.80596448271209 0 0 40.80769831628587 -0.0014546780433185383 0
          40.80507956832328 0.0008760680362856748 0 40.80682164529561 0 0
          40.808966750129045 0.0003735590741121837 0 40.8062206356894 0 0
          40.80971748629725 0.0002076934710228769 0 40.802767314107285 0.0022748851449535877 0
          40.803281807795415 -0.0015980887660831129 0 40.805841385645664 0 0
          40.798502044868016 -0.0031580563942948487 0 40.809836855186575 0.0039223031835484866 0
          40.813247940296414 0 0 40.81584683751748 -0.007393278688726067 0
          40.788291334910255 0 0 40.83780211567678 0 0
          40.815229304120066 0.007688112751248554 0 40.81815766725361 0.0012314293403623815 0
          40.814615418745 -0.0023513289140979603 0 40.796541224272 0 0
          40.7639129526295 0.0070177347725835625 0 40.7855222608569 0 0
          <InformationKey name="L2_NORM_RANGE" location="vtkDataArray" length="2">
            <Value index="0">
              40.763913557
            </Value>
            <Value index="1">
              40.837802116
            </Value>
          </InformationKey>
        </DataArray>
        <DataArray type="Float64" Name="Energy" format="ascii" RangeMin="254095.957851499" RangeMax="254156.28178458064">
          254132.26618333507 254132.26790529006 254132.13727855126 254132.2503377168 254132.1938890307 254132.3627833101
          254132.33098727322 254132.27585615855 254132.08877257962 254132.25512324643 254132.22559113722 254131.93588416884
          254132.29823623717 254132.08244348675 254132.59051342562 254132.79448083197 254132.39073657824 254131.64605242756
          254132.7347033403 254132.62835360656 254131.67352992683 254131.9102341746 254132.24171704773 254132.06261058227
          254132.27475596793 254132.96248199683 254130.69449233753 254132.28821835574 254134.0016044044 254131.81376476158
          254134.43414492658 254129.150045985 254129.542499898 254131.0576019035 254127.05525328984 254133.82245751217
          254138.52764440296 254141.68518249464 254116.0607218437 254156.28178458064 254136.25436808035 254139.3850238001
          254137.34376578438 254126.42346820797 254095.957851499 254119.74902996453
        </DataArray>
      </PointData>
      <CellData>
        <DataArray type="UInt8" Name="vtkGhostType" format="ascii" RangeMin="0" RangeMax="0">
          0 0 0 0 0 0
          0 0 0 0 0 0
          0 0 0 0 0 0
          0 0 0 0 0 0
          0 0 0 0 0 0
          0 0 0 0 0 0
          0 0 0 0 0 0
          0 0 0 0 0 0
          0 0 0 0 0 0
          0 0 0 0 0 0
          0 0 0 0 0 0
        </DataArray>
      </CellData>
      <Points>
        <DataArray type="Float32" Name="Points" NumberOfComponents="3" format="ascii" RangeMin="3.1116600571489244" RangeMax="7.102112369882704">
          7 1.2000000476837158 0 7 0.7200000286102295 0
          6.5 1.2000000476837158 0 6.566987037658691 0.47999998927116394 0
          7 0.23999999463558197 0 6.140567779541016 0.7387298941612244 0
          6 1.2000000476837158 0 6.566987037658691 -1.5543120227169823e-15 0
          6.133975028991699 0.23999999463558197 0 7 -0.23999999463558197 0
          5.707554817199707 0.4987299144268036 0 5.5 1.2000000476837158 0
          6.133975028991699 -0.23999999463558197 0 6.566987037658691 -0.47999998927116394 0
          5.700962066650391 -1.7763570511584873e-15 0 5.278289794921875 0.7549629807472229 0
          7 -0.7200000286102295 0 5.271283149719238 0.25508859753608704 0
          5 1.2000000476837158 0 6.140567779541016 -0.7387298941612244 0
          5.707554817199707 -0.4987299144268036 0 5.271283149719238 -0.25508859753608704 0
          7 -1.2000000476837158 0 6.5 -1.2000000476837158 0
          4.5 1.2000000476837158 0 4.75 0.09903810918331146 0
          4.5 0.5320507884025574 0 6 -1.2000000476837158 0
          5.278289794921875 -0.7549629807472229 0 5.5 -1.2000000476837158 0
          4.5 -0.33397459983825684 0 4.25 0.09903810918331146 0
          4.75 -0.7669873237609863 0 5 -1.2000000476837158 0
          4 -0.33397459983825684 0 4.25 -0.7669873237609863 0
          4.5 -1.2000000476837158 0 3.75 -0.7669873237609863 0
          4 -1.2000000476837158 0 3.5 -1.2000000476837158 0
          3.5 -0.33397459983825684 0 3.75 0.09903810918331146 0
          4 0.5320507884025574 0 4 1.2000000476837158 0
          3.0359580516815186 -0.6821928024291992 0 3 -1.2000000476837158 0
          <InformationKey name="L2_NORM_RANGE" location="vtkDataArray" length="2">
            <Value index="0">
              3.1116600571
            </Value>
            <Value index="1">
              7.1021123699
            </Value>
          </InformationKey>
        </DataArray>
      </Points>
      <Cells>
        <DataArray type="Int64" Name="connectivity" format="ascii" RangeMin="0" RangeMax="45">
          22 16 23 9 4 7
          1 0 2 16 9 13
          4 1 3 7 4 3
          7 3 8 13 9 7
          13 7 12 3 1 2
          8 3 5 12 7 8
          12 8 14 14 8 10
          12 14 20 16 13 23
          13 12 19 5 3 2
          10 8 5 10 5 11
          20 14 21 19 12 20
          19 20 29 14 10 17
          13 19 23 21 14 17
          20 21 28 17 10 15
          38 36 35 6 11 5
          6 5 2 15 10 11
          15 11 18 35 36 32
          32 36 33 35 32 30
          30 32 21 35 30 34
          34 30 31 35 34 37
          31 30 25 37 34 40
          35 37 38 25 30 21
          40 34 41 41 34 31
          41 31 42 42 31 26
          26 31 25 26 25 15
          27 23 19 27 19 29
          28 21 32 33 29 28
          28 29 20 18 24 26
          17 15 25 32 33 28
          24 43 42 42 26 24
          21 17 25 15 18 26
          37 40 44 38 37 39
          39 37 44 45 39 44
        </DataArray>
        <DataArray type="Int64" Name="offsets" format="ascii" RangeMin="3" RangeMax="198">
          3 6 9 12 15 18
          21 24 27 30 33 36
          39 42 45 48 51 54
          57 60 63 66 69 72
          75 78 81 84 87 90
          93 96 99 102 105 108
          111 114 117 120 123 126
          129 132 135 138 141 144
          147 150 153 156 159 162
          165 168 171 174 177 180
          183 186 189 192 195 198
        </DataArray>
        <DataArray type="UInt8" Name="types" format="ascii" RangeMin="5" RangeMax="5">
          5 5 5 5 5 5
          5 5 5 5 5 5
          5 5 5 5 5 5
          5 5 5 5 5 5
          5 5 5 5 5 5
          5 5 5 5 5 5
          5 5 5 5 5 5
          5 5 5 5 5 5
          5 5 5 5 5 5
          5 5 5 5 5 5
          5 5 5 5 5 5
        </DataArray>
      </Cells>
    </Piece>
  </UnstructuredGrid>
</VTKFile>
