<?xml version="1.0"?>
<VTKFile type="UnstructuredGrid" version="0.1" byte_order="LittleEndian" header_type="UInt32" compressor="vtkZLibDataCompressor">
  <UnstructuredGrid>
    <Piece NumberOfPoints="49" NumberOfCells="75">
      <PointData>
        <DataArray type="Float64" Name="Velocity" NumberOfComponents="3" format="ascii" RangeMin="0" RangeMax="43.67440548810784">
          34.337447675669765 -0.38376590495834284 0 34.76394577003054 0.04733942044454659 0
          34.542068517896425 0 0 27.956304447150956 0.4431938717023033 0
          35.72322138379396 1.4922635581550274 0 30.714513596427135 -8.046905366778457 0
          43.26289921679766 5.981241183640049 0 43.20987455956323 -5.3729361058748255 0
          0 0 0 30.704498841162092 7.103138786761449 0
          34.11741399522033 -0.13318701180151546 0 0 0 0
          34.8380335846989 -0.30447709457737054 0 33.91436707971358 12.889046417298452 0
          0 0 0 0 0 0
          33.053109514042944 -12.22933437792803 0 0 0 0
          35.3170870216377 -0.1119028179650048 0 0 0 0
          39.85823310352216 -8.273950600043895 0 24.398821080122612 6.216381750251447 0
          24.07800202406125 -6.715061237334123 0 34.656597078939114 0 0
          33.79238173745262 1.4518850152246479 0 39.60047118147272 8.48227870442533 0
          42.66207844583224 -0.6148864688272796 0 34.920428777531306 0.2258748769670597 0
          33.349842134424556 -2.184111515332609 0 34.58906439644008 0.42937273046057045 0
          34.84522945281512 -0.2984298628245997 0 35.097414423987196 -0.30632692981966303 0
          33.35375533690401 -0.1373777817966867 0 35.55799940765878 0.19219390807023026 0
          34.684 0 0 34.684 0 0
          34.684 0 0 34.684 0 0
          34.684 0 0 34.684 0 0
          34.661649049806485 -0.18452771668328619 0 36.035893986114885 0.026515625053220127 0
          35.55340324316399 -1.5127554102774803 0 34.59040050916098 0.7915408249340967 0
          34.38354004444842 -0.22904711619368778 0 34.44508326881156 -0.07902184986872901 0
          35.038841287320686 0 0 34.79873096344844 0.18890834509968701 0
          34.684 0 0
          <InformationKey name="L2_NORM_RANGE" location="vtkDataArray" length="2">
            <Value index="0">
              0
            </Value>
            <Value index="1">
              43.674405488
            </Value>
          </InformationKey>
        </DataArray>
        <DataArray type="Float64" Name="Pressure" format="ascii" RangeMin="100078.91302554995" RangeMax="198040.57873754285">
          102711.14764556689 102885.16903425704 103246.08453908446 101413.6986306417 103952.54063582237 100309.9832332618
          106818.54261807306 106838.00046811879 195360.7562600035 100904.85983916902 102616.23217431022 194886.9814545725
          102867.00336332689 108722.91926549787 194325.7519740139 194470.09913511196 108336.57818621722 194058.92172899342
          102637.33039991361 198040.57873754285 100371.15726671799 108579.73605858881 108054.40641453674 103236.47678075507
          103797.79773053012 100078.91302554995 101031.8749837894 102594.15221870733 104139.48750832556 102802.52010426534
          102834.08239382143 102941.74810401641 103614.30618108116 102888.32489608777 103043.88000004292 103064.02800004296
          103064.02800004293 103064.02800004293 103064.02800004296 103064.02800004293 102680.78178745325 103589.12990392082
          103766.34013345523 102791.0318830674 102943.82028359304 102945.21113098347 103276.15667452184 102808.27340568959
          103064.02800004293
        </DataArray>
        <DataArray type="Float64" Name="Temperature" format="ascii" RangeMin="296.57776830360046" RangeMax="600">
          299.6840320069776 299.7613664232722 300.15838177404373 297.55382289178885 300.8415971084708 296.7291813165165
          305.706362128188 305.400654229375 600 297.23187903221134 299.5215278253303 600
          299.82793082234775 306.5221653084869 600 600 306.4764396287442 600
          299.54580520738256 600 296.9685822094531 306.21767619847924 306.6085247032965 300.1477160241357
          300.67738493077485 296.57776830360046 297.5621538691995 299.5288061960193 300.98606063440207 299.68886492226665
          299.7982193256924 299.8878314468985 300.52804135843627 299.8571322315155 300 300
          300 300 300 300 299.57119779478097 300.5734967469942
          300.7026417560697 299.75681168156865 299.8945976429325 299.8990988965468 300.1835579434473 299.7751266366882
          300
        </DataArray>
        <DataArray type="Float64" Name="Density" format="ascii" RangeMin="1.0467346913439792" RangeMax="1.2147205218687662">
          1.173737897477678 1.175423215805191 1.1779863657594205 1.1672079481820121 1.1833531496782443 1.1577133678453495
          1.1966284385695232 1.1980444644764274 1.116145281488688 1.1626094401968763 1.1732894633760198 1.1215474688555511
          1.1749547719832634 1.2147205218687662 1.1093019740442334 1.0467346913439792 1.210584667354393 1.0879756047276627
          1.173435583935716 1.1454610832428889 1.1574855407164746 1.2143270622905908 1.2069114431641441 1.1779186018788648
          1.182236935171904 1.1556361944207014 1.1627808421308334 1.1730085023458603 1.1849122838321928 1.1747631167608632
          1.1746951527578768 1.1755736520951756 1.1807334607273914 1.1750838621685555 1.17630000000049 1.1765300000004904
          1.1765300000004904 1.1765300000004904 1.1765300000004904 1.1765300000004901 1.1738328502849702 1.18026804768527
          1.1817793700246308 1.174365579272579 1.1755707922357788 1.1755690304222735 1.1782306482291183 1.1744907993263332
          1.1765300000004906
        </DataArray>
        <DataArray type="Float64" Name="Momentum" NumberOfComponents="3" format="ascii" RangeMin="0" RangeMax="52.26203564468669">
          40.30316363959041 -0.45044058640942375 0 40.86234893108656 0.055643853813282955 0
          40.6900857592097 0 0 32.63082075251073 0.5172994096364874 0
          42.27318654116579 1.7658747816928158 0 35.558602977451436 -9.316009912905905 0
          51.76961553778723 7.157323298286918 0 51.767351026805535 -6.437016359628867 0
          0 0 0 35.6973402092491 8.258176208517447 0
          40.029602358229575 -0.15626691760525568 0 0 0 0
          40.93311380685517 -0.35774681523328095 0 41.19647767791859 15.656589190411527 0
          0 0 0 0 0 0
          40.013587586086 -14.804644689869647 0 0 0 0
          41.44232663214393 -0.13131074854281755 0 0 0 0
          46.13532849583363 -9.576978184153207 0 29.628148725579035 7.5487205888596804 0
          29.060016171368947 -8.10448424888653 0 40.82265037710311 0 0
          39.95060181744501 1.7164720906212008 0 45.763737813423795 9.802428281997846 0
          49.6066475022965 -0.7149782060378386 0 40.961959861607276 0.2649531511486862 0
          39.516637608944094 -2.5879805637769535 0 40.63395709620415 0.5044112470879818 0
          40.93252213495792 -0.3505641132982554 0 41.25959565350452 -0.36010986762320385 0
          39.38189496719737 -0.1622065437278543 0 41.783631274938884 0.22584395978043448 0
          40.798789200017 0 0 40.80676652001699 0 0
          40.80676652001699 0 0 40.80676652001699 0 0
          40.80676652001699 0 0 40.80676652001701 0 0
          40.68698229971167 -0.21660469563091928 0 42.53201424158518 0.031295545014718755 0
          42.016278486938006 -1.7877431357590725 0 40.62177573121134 0.9295582993916255 0
          40.42028540992285 -0.269261099843134 0 40.492573141131274 -0.09289563943235622 0
          41.28383668315705 0 0 40.87078934480258 0.2218711132355462 0
          40.806766520017 0 0
          <InformationKey name="L2_NORM_RANGE" location="vtkDataArray" length="2">
            <Value index="0">
              0
            </Value>
            <Value index="1">
              52.262035645
            </Value>
          </InformationKey>
        </DataArray>
        <DataArray type="Float64" Name="Energy" format="ascii" RangeMin="247032.15677628148" RangeMax="486962.79292313615">
          253248.90336448004 253695.03451230988 254574.98143727923 249822.79354313228 256365.71414764214 247236.19512746827
          263797.81009208196 263840.1216222141 480373.3664201456 248692.73849244992 253006.33866817635 479208.39960405155
          253653.1663708144 268138.7084740362 477828.39012788347 478183.32595551497 267141.0695422997 477172.28014184
          253107.17199264048 486962.79292313615 247762.10714828476 267372.06802685594 266072.48861001973 254555.9840885991
          255905.0904595743 247032.15677628148 249486.07375592703 252984.41703448095 256730.7768367645 253484.39273004667
          253572.35167632322 253847.9951807295 255434.421467385 253735.41778670135 254082.5526024122 254132.23294509575
          254132.23294509572 254132.23294509572 254132.23294509575 254132.23294509572 253187.3552484535 255482.07722252727
          255899.7432461293 253456.22036381208 253823.90983986188 253829.79140968676 254669.43497017983 253506.83273499305
          254132.23294509572
        </DataArray>
      </PointData>
      <CellData>
        <DataArray type="UInt8" Name="vtkGhostType" format="ascii" RangeMin="0" RangeMax="1">
          0 0 0 0 0 0
          1 0 0 0 0 1
          0 1 0 1 1 0
          1 0 0 1 1 1
          1 0 1 1 1 0
          0 0 0 0 0 0
          0 0 0 0 0 0
          0 0 0 0 0 0
          0 0 0 0 0 0
          1 0 0 1 0 0
          0 0 0 0 0 0
          1 0 0 1 0 0
          1 0 0
        </DataArray>
      </CellData>
      <Points>
        <DataArray type="Float32" Name="Points" NumberOfComponents="3" format="ascii" RangeMin="0" RangeMax="1.920937301017636">
          1.086230993270874 0.8328040242195129 0 1.1399699449539185 0.19158749282360077 0
          1 1.2000000476837158 0 1.1142899990081787 -1.1752379625029619e-10 0
          1.0117520093917847 0.5012874007225037 0 0.9441453814506531 0.27375510334968567 0
          0.9649400115013123 0.0952281504869461 0 0.9649400115013123 -0.0952281504869461 0
          0.8999999761581421 0 0 0.9571449756622314 -0.27218320965766907 0
          0.8040652275085449 0.3902161121368408 0 0.8500000238418579 0.08660253882408142 0
          0.7502539157867432 0.7588304877281189 0 0.800000011920929 0.1904563009738922 0
          0.8500000238418579 -0.08660253882408142 0 0.75 0.08660253882408142 0
          0.800000011920929 -0.1904563009738922 0 0.75 -0.08660253882408142 0
          0.795934796333313 -0.3902161121368408 0 0.699999988079071 1.1588759812886096e-10 0
          0.6428549885749817 0.27218320965766907 0 0.6350600123405457 0.0952281504869461 0
          0.6350600123405457 -0.0952281504869461 0 0.5 1.2000000476837158 0
          0.5381680727005005 0.4375059902667999 0 0.6558545827865601 -0.27375510334968567 0
          0.49003541469573975 0.013452219776809216 0 0.4600304067134857 0.19158749282360077 0
          0.5882480144500732 -0.5012874007225037 0 0.4600304067134857 -0.19158749282360077 0
          0.3115612864494324 0.75 0 0.22405309975147247 0.348176509141922 0
          0.25999629497528076 0.06726109236478806 0 0.30146610736846924 -0.47640809416770935 0
          0 1.2000000476837158 0 0 0.8999999761581421 0
          0 0.6000000238418579 0 0 0.30000001192092896 0
          0 0 0 0 -0.30000001192092896 0
          1.1399699449539185 -0.19158749282360077 0 1.3130509853363037 -0.04950660839676857 0
          1.0851390361785889 -0.4247578978538513 0 0.8886095285415649 -0.6650667190551758 0
          1.4437849521636963 0.2196556031703949 0 1.410377025604248 0.5858561992645264 0
          1.5 1.2000000476837158 0 0.4590522050857544 -0.7891657948493958 0
          0 -0.6000000238418579 0
          <InformationKey name="L2_NORM_RANGE" location="vtkDataArray" length="2">
            <Value index="0">
              0
            </Value>
            <Value index="1">
              1.920937301
            </Value>
          </InformationKey>
        </DataArray>
      </Points>
      <Cells>
        <DataArray type="Int64" Name="connectivity" format="ascii" RangeMin="0" RangeMax="48">
          8 14 7 11 8 6
          7 14 16 13 11 6
          6 8 7 7 16 9
          7 9 40 13 6 5
          5 6 1 13 5 10
          6 7 3 3 7 40
          6 3 1 3 40 41
          10 5 4 1 3 41
          40 9 42 5 1 4
          9 18 42 10 4 12
          12 4 0 18 43 42
          1 41 44 1 45 4
          0 4 45 12 0 2
          2 0 46 45 1 44
          0 45 46 2 23 12
          17 19 22 15 11 13
          14 17 16 19 15 21
          21 15 13 22 19 21
          16 17 22 9 16 18
          21 13 20 20 13 10
          21 20 27 16 22 25
          25 22 29 16 25 18
          22 21 26 26 21 27
          22 26 29 18 25 28
          26 27 32 29 26 32
          27 20 24 20 10 24
          25 29 28 32 27 31
          18 28 43 27 24 31
          31 30 36 43 28 47
          32 31 37 37 31 36
          10 12 24 34 35 23
          38 39 32 35 36 30
          37 38 32 32 39 29
          39 48 33 28 29 33
          33 29 39 28 33 47
          30 31 24 35 30 23
          33 48 47 30 24 12
          30 12 23
        </DataArray>
        <DataArray type="Int64" Name="offsets" format="ascii" RangeMin="3" RangeMax="225">
          3 6 9 12 15 18
          21 24 27 30 33 36
          39 42 45 48 51 54
          57 60 63 66 69 72
          75 78 81 84 87 90
          93 96 99 102 105 108
          111 114 117 120 123 126
          129 132 135 138 141 144
          147 150 153 156 159 162
          165 168 171 174 177 180
          183 186 189 192 195 198
          201 204 207 210 213 216
          219 222 225
        </DataArray>
        <DataArray type="UInt8" Name="types" format="ascii" RangeMin="5" RangeMax="5">
          5 5 5 5 5 5
          5 5 5 5 5 5
          5 5 5 5 5 5
          5 5 5 5 5 5
          5 5 5 5 5 5
          5 5 5 5 5 5
          5 5 5 5 5 5
          5 5 5 5 5 5
          5 5 5 5 5 5
          5 5 5 5 5 5
          5 5 5 5 5 5
          5 5 5 5 5 5
          5 5 5
        </DataArray>
      </Cells>
    </Piece>
  </UnstructuredGrid>
</VTKFile>
