<?xml version="1.0"?>
<VTKFile type="UnstructuredGrid" version="0.1" byte_order="LittleEndian" header_type="UInt32" compressor="vtkZLibDataCompressor">
  <UnstructuredGrid>
    <Piece NumberOfPoints="58" NumberOfCells="82">
      <PointData>
        <DataArray type="Float64" Name="Velocity" NumberOfComponents="3" format="ascii" RangeMin="23.53356334149387" RangeMax="50.966114906430235">
          34.6758414707299 0 0 34.69020069967838 -0.00199850154421774 0
          34.69302730445262 0.0010466423319975056 0 34.71922479127484 0 0
          34.6716298845865 -0.005180699658939426 0 34.69082812247334 0.006534497112646055 0
          34.66580238874743 -0.011921857857783711 0 34.63824582716675 0 0
          34.701408434885415 0.02590676390794259 0 34.70475694425709 0.006437649959194415 0
          34.7354366538001 0.011565806653375239 0 34.650940889060976 0.005965352567170933 0
          34.75757786942156 0 0 34.60420641286091 -0.02432881500707003 0
          34.667063083985475 0 0 34.718885884446756 -0.032808325902939944 0
          34.58268152332463 -0.012852444183636283 0 34.598722211575364 0 0
          34.66898928075055 0.0241435512718802 0 34.740303065857816 0 0
          34.961502708847384 0.05554310170829731 0 34.61327115386333 0.061662697770168126 0
          35.20605372435871 0 0 34.39106131702036 -0.045406999157796585 0
          34.964435657469124 -0.12606344450727291 0 34.540957890037824 0 0
          34.351439162006784 -0.12577458022314877 0 34.32493707175522 -0.29349436620613606 0
          36.77960335767311 0.0060576620328904535 0 33.98535263156748 0.5963369931365957 0
          34.623472910543406 0 0 34.462153584873384 -0.19596843041306633 0
          34.52463631559566 0.0568158781576875 0 36.06893710636321 -2.4041675491171492 0
          34.53219363857107 1.1493895112901504 0 34.75384284990556 0 0
          34.90456241345909 0.3716261866358827 0 34.665985482102336 0 0
          34.684 0 0 34.684 0 0
          34.684 0 0 34.69083080001448 -0.006283808861517881 0
          34.67745121508577 -0.002684249201777368 0 34.6808869380916 0.001933570679212291 0
          34.68271042970031 0.0007446233248568266 0 34.683310868031626 0 0
          50.05197429469019 -9.60961694653449 0 28.04134691761143 12.00995839991051 0
          23.521312262444223 0.7592581910623445 0 34.63216505494401 -0.004837025752665751 0
          35.75157579457176 0.18103706769887165 0 36.28713720826753 2.4529697859389485 0
          34.15751797304383 -0.6278026796481608 0 34.46244205949035 0 0
          34.7081508600553 0 0 32.48342463799056 -3.6448759966596334 0
          34.684 0 0 35.9805865969652 0.19779292314345373 0
          <InformationKey name="L2_NORM_RANGE" location="vtkDataArray" length="2">
            <Value index="0">
              23.533563341
            </Value>
            <Value index="1">
              50.966114906
            </Value>
          </InformationKey>
        </DataArray>
        <DataArray type="Float64" Name="Pressure" format="ascii" RangeMin="99579.54770753635" RangeMax="109713.2285336423">
          103061.80516837587 103065.9996764219 103066.78137858663 103078.67522392003 103058.65031158806 103065.5470875734
          103057.94409462425 103044.57344141441 103074.01593537294 103073.86404443157 103083.67650064372 103049.8517096921
          103094.78992690313 103032.33395544255 103059.24127141031 103074.86490972614 103022.60510615823 103045.62863751917
          103063.51344139213 103087.8660517138 103171.51569910727 103035.92901320351 103376.38442085085 102914.27705602047
          103191.0893426624 102996.36983793491 102895.45002089329 102922.88991749284 103873.05933703098 102871.6726703536
          103056.2690323877 102316.74960836308 102861.82164028398 104164.4996195056 102691.88539476485 103422.26682336003
          102636.61123739435 103268.6265230172 103064.02800005513 103064.02800005513 103043.88000005507 103067.7513420084
          103062.03492386323 103062.8282638274 103063.42493160568 103064.05637859995 109713.2285336423 99579.54770753635
          100432.54746555441 102667.0622733361 102149.88998386043 104453.15486558327 102538.23855477611 103314.355719013
          103073.38887185298 104837.89760464652 103064.02800005513 102836.8588094237
        </DataArray>
        <DataArray type="Float64" Name="Temperature" format="ascii" RangeMin="295.164413839503" RangeMax="309.7400641856992">
          299.99813696767 300.00167004757037 300.00235331223024 300.01242580016356 299.9953918147358 300.00126634194584
          299.9947813412911 299.98340774098443 300.0086266123383 300.0086137111783 300.0170193318082 299.98786409545386
          300.02633013033955 299.9717370775331 299.9957569966509 300.00910205862397 299.9639496885234 299.98368167677177
          300.00196412282617 300.0210593723348 300.09655964323554 299.97440783518687 300.27587389277625 299.8484692267801
          300.11666306126386 299.93896676694646 299.8490352896965 299.86805775311177 300.9137784673092 299.802869700472
          299.99608157566576 299.1435662639923 299.80695863126095 301.1439222151468 299.66425079371015 300.3146902898122
          299.6218881272634 300.1755111835003 300 300 300 300.00316655960415
          299.99831355187666 299.9989825614506 299.99949245935045 300.0000182968938 309.7400641856992 295.164413839503
          295.83752714376976 299.54835245004256 299.0168185195906 301.36711723908496 299.51758773989053 300.2196740961602
          300.007988945777 301.63157205892037 300 299.81517202026674
        </DataArray>
        <DataArray type="Float64" Name="Density" format="ascii" RangeMin="1.1553758933111598" RangeMax="1.2130501609213586">
          1.1765119314756534 1.1765459580959818 1.1765522019467833 1.1766484697566852 1.1764866824248557 1.176542374832477
          1.1764810145350322 1.1763729782817298 1.1766101836606626 1.1766085003929245 1.1766875431667814 1.1764157597665215
          1.1767778811658165 1.1762790127801774 1.1764919965111744 1.1766180101947827 1.1761984769865605 1.1763839503273221
          1.176516423300748 1.1767195206296164 1.1773780711736022 1.1763095830062742 1.1790115175768505 1.1754142190897077
          1.1775225606594217 1.1759968961938871 1.1751969714136106 1.1754358001430547 1.1821647286332242 1.1751063264439436
          1.1764567935001213 1.1713433512946603 1.1749777726139643 1.184575586978331 1.1735952423142662 1.1793823503728047
          1.1731293937190024 1.1781763225087034 1.176530000000629 1.1765300000006291 1.1763000000006285 1.1765600850787479
          1.1765138617546205 1.176520294505264 1.176525106105321 1.1765302522004568 1.2130501609213586 1.1553758933111598
          1.162621536497423 1.1737655221855414 1.169928808980244 1.1869784834635937 1.1724131256023016 1.1785246512379512
          1.1766055264752215 1.1903060858502916 1.176530000000629 1.174660444789424
        </DataArray>
        <DataArray type="Float64" Name="Momentum" NumberOfComponents="3" format="ascii" RangeMin="27.360627571347035" RangeMax="61.824453888781655">
          40.796541224272 0 0 40.814615418745 -0.0023513289140979603 0
          40.81815766725361 0.0012314293403623815 0 40.85232272179191 0 0
          40.79071081717965 -0.006095024154385226 0 40.815229304120066 0.007688112751248554 0
          40.783658363984514 -0.014025839427667827 0 40.747496406158845 0 0
          40.83003055185419 0.030482162239777753 0 40.83391202468327 0.007574593664542312 0
          40.8727556169854 0.013609340615702124 0 40.7639129526295 0.0070177347725835625 0
          40.901948839633775 0 0 40.70420175736152 -0.0286174744986279 0
          40.7855222608569 0 0 40.85086642553747 -0.03860286714173915 0
          40.6760973378457 -0.015117025274347775 0 40.70138151153069 0 0
          40.78863526804061 0.028405284588170716 0 40.879592770183805 0 0
          41.1629066246734 0.06539522995631429 0 40.71592255748407 0.07253442230106838 0
          41.508342829448296 0 0 40.42374248161174 -0.05337203245626849 0
          41.171411807394634 -0.1484425499817509 0 40.62005927024824 0 0
          40.36970726688927 -0.14780990575906264 0 40.346759871798604 -0.34498378517898826 0
          43.47954982256125 0.007161154393263728 0 39.93640288378327 0.7007593733273723 0
          40.73301992017621 0 0 40.36701447293688 -0.22954631802799555 0
          40.565680278405765 0.06675739396682605 0 42.7263823444547 -2.8479181856897022 0
          40.52681816090198 1.3489180620160401 0 40.98806886480871 0 0
          40.94756814212834 0.43596560301825793 0 40.84264329144343 0 0
          40.806766520021824 0 0 40.80676652002181 0 0
          40.79878920002181 0 0 40.81584683751748 -0.007393278688726067 0
          40.798502044868016 -0.0031580563942948487 0 40.802767314107285 0.0022748851449535877 0
          40.80507956832328 0.0008760680362856748 0 40.80596448271209 0 0
          60.715555472605644 -11.65694738338628 0 32.39829624458344 13.876016414926472 0
          27.346384202998582 0.882729924691157 0 40.650041300132216 -0.005677534058402626 0
          41.826798488510256 0.21180048099421672 0 43.07205109270474 2.9116223564958292 0
          40.04672240959311 -0.7360441019078007 0 40.61483750896897 0 0
          40.83780211567678 0 0 38.66521803585947 -4.338518080993609 0
          40.80676652002183 0 0 42.264971855775535 0.2323395230758897 0
          <InformationKey name="L2_NORM_RANGE" location="vtkDataArray" length="2">
            <Value index="0">
              27.360627571
            </Value>
            <Value index="1">
              61.824453889
            </Value>
          </InformationKey>
        </DataArray>
        <DataArray type="Float64" Name="Energy" format="ascii" RangeMin="245394.1302112959" RangeMax="271349.7846281161">
          254126.42346820797 254137.34376578438 254139.3850238001 254169.75860700282 254118.47900974326 254136.25436808035
          254116.50146444433 254082.4360046227 254157.55155347628 254157.3134104061 254182.74236448164 254095.957851499
          254211.02896438332 254050.89803144403 254119.74902996453 254160.35783996308 254026.05143317 254083.4276282545
          254130.34747206877 254193.26220434622 254408.42429692336 254060.12715610582 254923.288960718 253751.44770334006
          254456.77060376547 253959.72494562317 253703.432981336 253770.01761112665 256213.4727994237 253630.41400122078
          254110.6427485374 252282.66570997733 253627.61552680255 256904.48722271295 253210.01420091387 255017.68336699865
          253088.29464798718 254635.5753887588 254132.23294512575 254132.23294512575 254082.55260244219 254141.68518249464
          254127.05525328984 254129.150045985 254130.69449233753 254132.27475596793 271349.7846281161 245394.1302112959
          247275.95023055482 253152.36082696955 251924.49042545498 257625.3435332788 252815.87553782377 254739.93709922934
          254156.28178458064 258422.23328903734 254132.23294512575 253626.35696121413
        </DataArray>
      </PointData>
      <CellData>
        <DataArray type="UInt8" Name="vtkGhostType" format="ascii" RangeMin="0" RangeMax="1">
          1 1 1 0 1 0
          1 0 0 0 0 1
          1 0 0 0 0 0
          0 0 0 0 0 0
          0 0 0 0 0 0
          0 0 0 0 0 0
          0 0 0 0 0 0
          0 0 0 0 0 0
          0 0 0 1 1 0
          0 0 0 1 0 0
          0 0 0 0 0 0
          0 0 0 0 0 0
          0 0 0 0 0 0
          0 0 0 0
        </DataArray>
      </CellData>
      <Points>
        <DataArray type="Float32" Name="Points" NumberOfComponents="3" format="ascii" RangeMin="0.30000001192092896" RangeMax="4.65725242116432">
          4 1.2000000476837158 0 4 0.5320507884025574 0
          3.75 0.09903810918331146 0 3.5 1.2000000476837158 0
          3.5 0.5320507884025574 0 3.5 -0.33397459983825684 0
          3.25 0.09903810918331146 0 3 1.2000000476837158 0
          2.9339659214019775 0.3125396966934204 0 2.9850969314575195 -0.18481269478797913 0
          2.75 0.7669873237609863 0 3.0359580516815186 -0.6821928024291992 0
          2.5 1.2000000476837158 0 2.528865098953247 0.019508730620145798 0
          3 -1.2000000476837158 0 2.5798211097717285 -0.47746700048446655 0
          2.25 0.7669873237609863 0 2 1.2000000476837158 0
          2.1248021125793457 -0.274284690618515 0 2.5 -1.2000000476837158 0
          1.8583029508590698 0.4420956075191498 0 2.1729509830474854 -0.7651854157447815 0
          1.5 1.2000000476837158 0 1.6643450260162354 -0.16851860284805298 0
          1.7341229915618896 -0.5399479269981384 0 2 -1.2000000476837158 0
          1.410377025604248 0.5858561992645264 0 1.4437849521636963 0.2196556031703949 0
          1.3130509853363037 -0.04950660839676857 0 1.3759469985961914 -0.348176509141922 0
          1.5 -1.2000000476837158 0 1.1399699449539185 -0.19158749282360077 0
          1.2639700174331665 -0.7296581864356995 0 1.0851390361785889 -0.4247578978538513 0
          0.8886095285415649 -0.6650667190551758 0 1 -1.2000000476837158 0
          0.4590522050857544 -0.7891657948493958 0 0.5 -1.2000000476837158 0
          0 -0.6000000238418579 0 0 -0.8999999761581421 0
          0 -1.2000000476837158 0 3.75 -0.7669873237609863 0
          4 -0.33397459983825684 0 4.25 0.09903810918331146 0
          4.5 0.5320507884025574 0 4.5 1.2000000476837158 0
          0.9649400115013123 -0.0952281504869461 0 0.9571449756622314 -0.27218320965766907 0
          1.1142899990081787 -1.1752379625029619e-10 0 1.1399699449539185 0.19158749282360077 0
          0.795934796333313 -0.3902161121368408 0 1.0117520093917847 0.5012874007225037 0
          1.086230993270874 0.8328040242195129 0 1 1.2000000476837158 0
          3.5 -1.2000000476837158 0 0.5882480144500732 -0.5012874007225037 0
          0 -0.30000001192092896 0 0.30146610736846924 -0.47640809416770935 0
          <InformationKey name="L2_NORM_RANGE" location="vtkDataArray" length="2">
            <Value index="0">
              0.30000001192
            </Value>
            <Value index="1">
              4.6572524212
            </Value>
          </InformationKey>
        </DataArray>
      </Points>
      <Cells>
        <DataArray type="Int64" Name="connectivity" format="ascii" RangeMin="0" RangeMax="57">
          41 42 5 5 42 2
          2 42 43 5 2 6
          2 43 1 6 2 4
          1 43 44 2 1 4
          4 1 0 0 3 4
          3 7 4 45 0 1
          1 44 45 46 47 31
          48 46 31 48 31 28
          49 48 28 31 47 33
          47 50 33 28 31 29
          31 33 29 29 33 32
          28 29 23 50 34 33
          49 28 27 27 28 23
          49 26 51 32 33 34
          29 32 24 52 51 26
          23 29 24 23 24 18
          53 52 22 24 32 30
          26 49 27 26 27 20
          52 26 22 27 23 20
          18 24 21 23 18 20
          26 20 17 21 24 25
          21 25 19 18 21 15
          15 21 19 18 15 13
          13 15 9 18 13 20
          9 15 11 13 9 8
          17 22 26 41 5 11
          54 41 11 6 4 8
          6 8 9 6 9 5
          35 30 32 14 54 11
          7 12 10 10 12 16
          7 10 4 16 12 17
          16 17 20 10 16 13
          11 15 19 19 14 11
          13 8 10 10 8 4
          30 25 24 9 11 5
          16 20 13 32 34 35
          50 55 34 34 55 36
          38 39 36 56 38 57
          39 40 37 55 57 36
          34 36 35 57 38 36
          37 35 36 37 36 39
        </DataArray>
        <DataArray type="Int64" Name="offsets" format="ascii" RangeMin="3" RangeMax="246">
          3 6 9 12 15 18
          21 24 27 30 33 36
          39 42 45 48 51 54
          57 60 63 66 69 72
          75 78 81 84 87 90
          93 96 99 102 105 108
          111 114 117 120 123 126
          129 132 135 138 141 144
          147 150 153 156 159 162
          165 168 171 174 177 180
          183 186 189 192 195 198
          201 204 207 210 213 216
          219 222 225 228 231 234
          237 240 243 246
        </DataArray>
        <DataArray type="UInt8" Name="types" format="ascii" RangeMin="5" RangeMax="5">
          5 5 5 5 5 5
          5 5 5 5 5 5
          5 5 5 5 5 5
          5 5 5 5 5 5
          5 5 5 5 5 5
          5 5 5 5 5 5
          5 5 5 5 5 5
          5 5 5 5 5 5
          5 5 5 5 5 5
          5 5 5 5 5 5
          5 5 5 5 5 5
          5 5 5 5 5 5
          5 5 5 5 5 5
          5 5 5 5
        </DataArray>
      </Cells>
    </Piece>
  </UnstructuredGrid>
</VTKFile>
