<?xml version="1.0"?>
<VTKFile type="UnstructuredGrid" version="0.1" byte_order="LittleEndian" header_type="UInt32" compressor="vtkZLibDataCompressor">
  <UnstructuredGrid>
    <Piece NumberOfPoints="36" NumberOfCells="50">
      <PointData>
        <DataArray type="Float64" Name="Velocity" NumberOfComponents="3" format="ascii" RangeMin="0" RangeMax="0.18677928870361246">
          0 0 0 0 0 0
          0 0 0 0.0928249168938482 0.03414663488304262 0
          0 0 0 0 0 0
          0.012220679023298986 0.08749900302729599 0 0.07456775313113187 -0.0609524743928541 0
          0.01461964756395176 -0.05264018424498494 0 0 0 0
          0 0 0 0.09269785104029654 0.04843771846078634 0
          0.0010190423363397412 0.07011218199514369 0 0.02886166425599901 0.07666828033760022 0
          0.0005049235744781723 -0.057583618255869405 0 0 0 0
          0 0 0 -0.05394155653096222 0.035416701114973526 0
          0.03804611379166867 -0.15056571686094358 0 0.003965245532504859 0.0670356108499443 0
          -0.06159791391037978 -0.047593728046424054 0 0.005947080058415072 -0.160148303930498 0
          0 0 0 0 0 0
          -0.05203560930245438 0.07078941553252008 0 0.0007415560616296536 -0.1659118407933209 0
          0 0 0 0 0 0
          0 0 0 0 0 0
          -0.04167786146505119 -0.18206992764409893 0 0 0 0
          0 0 0 0 0 0
          0 0 0 0 0 0
          <InformationKey name="L2_NORM_RANGE" location="vtkDataArray" length="2">
            <Value index="0">
              0
            </Value>
            <Value index="1">
              0.1867792887
            </Value>
          </InformationKey>
        </DataArray>
        <DataArray type="Float64" Name="Pressure" format="ascii" RangeMin="-0.9379654945778354" RangeMax="0.6060211903680687">
          -0.789085766546487 -0.8201437341178828 -0.5534605912040147 -0.5650350892962405 -0.8479400051863725 -0.29214028758451505
          -0.2932491714825889 -0.5779432462742706 -0.29592679031677116 -0.8760718404315284 -0.017967214955152522 -0.5914518311707758
          -0.017500040871099555 -0.30047925111432466 -0.013600029991657723 -0.9113824982883194 0.25261216895829935 0.2541698407258759
          -0.6135152038841902 -0.009402527482542507 0.2676302454858082 -0.3054113777142529 0.5127379294402242 -0.9379654945778354
          0.2820843558583373 -0.0017235734011010247 0.5251627447967542 -0.6115935296160057 0.5491525521108785 -0.3060706931590648
          0.30530144607671383 0.5787863536977506 0.0004031569296429543 0.6060211903680687 0.30328745651970923 0.5595438030489985
        </DataArray>
        <DataArray type="Float64" Name="Temperature" format="ascii" RangeMin="239.99999999999994" RangeMax="960.0000000000001">
          960.0000000000001 611.3532753803004 960.0000000000001 631.0196693261312 589.8755472212882 960
          615.0943823456288 594.7613797986232 595.9342307909752 603.1316011831475 960 603.4444243555326
          612.2783498403581 602.6195371102773 597.887694865094 586.7553972319364 960 601.6421005835768
          590.8113416020449 602.7228825501768 596.9432108203905 589.0142098890507 960.0000000000001 240
          602.8779751632427 589.3459299392847 611.7679784163392 240 597.1594351604255 239.99999999999994
          584.3724110234423 604.9206664912617 239.99999999999997 590.4434423532106 240 240
        </DataArray>
        <DataArray type="Float64" Name="Density" format="ascii" RangeMin="0.36715872783158365" RangeMax="1.468634911326335">
          0.36715872783158365 0.576544516751072 0.36715872783158365 0.5585758984259986 0.5975368539664053 0.36715872783158365
          0.5730378765193501 0.5926282214855004 0.5914618770103014 0.5844037653256511 0.36715872783158365 0.5841008127546364
          0.5756734315531847 0.5849003509055152 0.5895294078561885 0.6007143357881936 0.36715872783158365 0.5858505885416454
          0.596590406952168 0.5848000613930183 0.5904621617756751 0.5984106542772772 0.36715872783158365 1.4686349113263346
          0.5846496193908569 0.5980738320439959 0.5761536908661881 1.4686349113263346 0.5902483624388007 1.468634911326335
          0.6031639620032999 0.5826753791745548 1.4686349113263348 0.5969621363115538 1.4686349113263346 1.4686349113263346
        </DataArray>
        <DataArray type="Float64" Name="stream" format="ascii" RangeMin="-0.015572939148173493" RangeMax="0.01750180097798438">
          0 0.00228467862119557 -0.0004889856834233796 -0.003404709043265959 0.0037042494887172817 -0.003822513215498293
          -0.01082201740502417 -0.00425259305489968 -0.011722513374840727 0.00620814808335847 -0.004445891855976444 -0.0025730276396952853
          -0.011718784654120658 -0.012239287483643313 -0.012337366211475695 0.00963881055325047 -0.004448860412731563 -0.008502017879662987
          0.0009872803339739634 -0.015572939148173493 -0.007872336986366387 -0.004192435685755658 -0.0025084648981199276 0.01750180097798438
          -0.008194469277486583 -0.0019142854624999922 -0.003570498644035936 0.013354366761361668 -0.0012419372624124572 0.013862946724725734
          -0.0024979062187299246 -0.005160189375976361 0.011317323673627663 0.002800757524133927 0.006242978596546204 0.002800757524133927
        </DataArray>
      </PointData>
      <CellData>
        <DataArray type="UInt8" Name="vtkGhostType" format="ascii" RangeMin="0" RangeMax="0">
          0 0 0 0 0 0
          0 0 0 0 0 0
          0 0 0 0 0 0
          0 0 0 0 0 0
          0 0 0 0 0 0
          0 0 0 0 0 0
          0 0 0 0 0 0
          0 0 0 0 0 0
          0 0
        </DataArray>
      </CellData>
      <Points>
        <DataArray type="Float32" Name="Points" NumberOfComponents="3" format="ascii" RangeMin="0" RangeMax="1.4142135623730951">
          0 1 0 0.20000000298023224 1 0
          0 0.800000011920929 0 0.20000000298023224 0.800000011920929 0
          0.4000000059604645 1 0 0 0.6000000238418579 0
          0.20000000298023224 0.6000000238418579 0 0.4000000059604645 0.800000011920929 0
          0.4000000059604645 0.6000000238418579 0 0.6000000238418579 1 0
          0 0.4000000059604645 0 0.6000000238418579 0.800000011920929 0
          0.20000000298023224 0.4000000059604645 0 0.6000000238418579 0.6000000238418579 0
          0.4000000059604645 0.4000000059604645 0 0.800000011920929 1 0
          0 0.20000000298023224 0 0.20000000298023224 0.20000000298023224 0
          0.800000011920929 0.800000011920929 0 0.6000000238418579 0.4000000059604645 0
          0.4000000059604645 0.20000000298023224 0 0.800000011920929 0.6000000238418579 0
          0 0 0 1 1 0
          0.6000000238418579 0.20000000298023224 0 0.800000011920929 0.4000000059604645 0
          0.20000000298023224 0 0 1 0.800000011920929 0
          0.4000000059604645 0 0 1 0.6000000238418579 0
          0.800000011920929 0.20000000298023224 0 0.6000000238418579 0 0
          1 0.4000000059604645 0 0.800000011920929 0 0
          1 0.20000000298023224 0 1 0 0
          <InformationKey name="L2_NORM_RANGE" location="vtkDataArray" length="2">
            <Value index="0">
              0
            </Value>
            <Value index="1">
              1.4142135624
            </Value>
          </InformationKey>
        </DataArray>
      </Points>
      <Cells>
        <DataArray type="Int64" Name="connectivity" format="ascii" RangeMin="0" RangeMax="35">
          26 17 22 17 16 22
          28 20 26 20 17 26
          31 24 28 24 20 28
          33 30 31 30 24 31
          35 34 33 34 30 33
          17 12 16 12 10 16
          20 14 17 14 12 17
          24 19 20 19 14 20
          30 25 24 25 19 24
          34 32 30 32 25 30
          12 6 10 6 5 10
          14 8 12 8 6 12
          19 13 14 13 8 14
          25 21 19 21 13 19
          32 29 25 29 21 25
          6 3 5 3 2 5
          8 7 6 7 3 6
          13 11 8 11 7 8
          21 18 13 18 11 13
          29 27 21 27 18 21
          3 1 2 1 0 2
          7 4 3 4 1 3
          11 9 7 9 4 7
          18 15 11 15 9 11
          27 23 18 23 15 18
        </DataArray>
        <DataArray type="Int64" Name="offsets" format="ascii" RangeMin="3" RangeMax="150">
          3 6 9 12 15 18
          21 24 27 30 33 36
          39 42 45 48 51 54
          57 60 63 66 69 72
          75 78 81 84 87 90
          93 96 99 102 105 108
          111 114 117 120 123 126
          129 132 135 138 141 144
          147 150
        </DataArray>
        <DataArray type="UInt8" Name="types" format="ascii" RangeMin="5" RangeMax="5">
          5 5 5 5 5 5
          5 5 5 5 5 5
          5 5 5 5 5 5
          5 5 5 5 5 5
          5 5 5 5 5 5
          5 5 5 5 5 5
          5 5 5 5 5 5
          5 5 5 5 5 5
          5 5
        </DataArray>
      </Cells>
    </Piece>
  </UnstructuredGrid>
</VTKFile>
