<?xml version="1.0"?>
<VTKFile type="UnstructuredGrid" version="0.1" byte_order="LittleEndian" header_type="UInt32" compressor="vtkZLibDataCompressor">
  <UnstructuredGrid>
    <Piece NumberOfPoints="36" NumberOfCells="50">
      <PointData>
        <DataArray type="Float64" Name="Velocity" NumberOfComponents="3" format="ascii" RangeMin="0" RangeMax="0.21649953728572252">
          0 0 0 0 0 0
          0 0 0 0.10724770713303372 0.05570846290356893 0
          0 0 0 0 0 0
          0.01422350796738503 0.11467425865647615 0 0.09118438699339093 -0.07451350219589399 0
          0.015521273628129231 -0.06359849533119315 0 0 0 0
          0 0 0 0.1155504054927759 0.06372095520838325 0
          -0.00026224949012669876 0.09538302304457266 0 0.03460575213574858 0.09565114951062563 0
          -0.0034025621534161006 -0.06749633425380573 0 0 0 0
          0 0 0 -0.06363887770514284 0.049513135346902375 0
          0.052193069315618706 -0.16815302547807992 0 0.0004069189054095729 0.08885605938460397 0
          -0.07812409518707701 -0.052371594486255196 0 0.006282862967791729 -0.19413027007407774 0
          0 0 0 0 0 0
          -0.07225786571769825 0.08484134974165765 0 -0.00022806476049774295 -0.2035115728040947 0
          0 0 0 0 0 0
          0 0 0 0 0 0
          -0.06091342194281703 -0.20775371157249706 0 0 0 0
          0 0 0 0 0 0
          0 0 0 0 0 0
          <InformationKey name="L2_NORM_RANGE" location="vtkDataArray" length="2">
            <Value index="0">
              0
            </Value>
            <Value index="1">
              0.21649953729
            </Value>
          </InformationKey>
        </DataArray>
        <DataArray type="Float64" Name="Pressure" format="ascii" RangeMin="-1.0463963560225256" RangeMax="0.494976683811596">
          -0.8979754144648999 -0.9278031710030692 -0.6641145701224616 -0.6756987532562506 -0.9564667083213076 -0.4050046526246113
          -0.4062421780035045 -0.6899255947890733 -0.4086944443620177 -0.9863517900839747 -0.13120680249200245 -0.703528339427739
          -0.13099091802163584 -0.41396662170327087 -0.12700628590078927 -1.0193810356557897 0.13926577181164046 0.14044933600160753
          -0.7258586444188251 -0.12321462869602738 0.15408883721425418 -0.41913249949063924 0.39835686972222284 -1.0463963560225256
          0.16848449564613202 -0.11522539508064115 0.4115522974809193 -0.7220208079485211 0.4357328200250597 -0.4187922920009152
          0.19302825129250792 0.4673627446080443 -0.11236111028256114 0.494976683811596 0.1901816329639824 0.4411749739083708
        </DataArray>
        <DataArray type="Float64" Name="Temperature" format="ascii" RangeMin="239.99999999999997" RangeMax="960.0000000000001">
          960 614.2378749315964 960 641.0256156007588 586.9991921833343 960.0000000000001
          619.0976200807106 593.9422414599607 595.2106857815188 603.6608400682808 960 603.9361176340249
          614.5932645321993 602.7806189432961 597.841865034653 583.9010053160032 960.0000000000001 600.6839199204
          590.9740744969757 603.265743253278 596.1261396589258 586.9715527288593 959.9999999999999 240.00000000000003
          603.5875136537235 586.9190036329446 614.8506412871831 240 596.5856692039106 240
          577.7935784675591 606.4495604952501 240.00000000000003 588.6110004164001 239.99999999999997 240
        </DataArray>
        <DataArray type="Float64" Name="Density" format="ascii" RangeMin="0.36704233428118244" RangeMax="1.46816933712473">
          0.3670423342811825 0.5736550207835609 0.3670423342811825 0.5496826216214598 0.6002744903265288 0.36704233428118244
          0.5691519874749293 0.593257418505548 0.5919931367617861 0.5837063091090674 0.3670423342811825 0.5834402524067286
          0.5733233037920391 0.584558676633699 0.5893876985170838 0.6034595551333912 0.36704233428118244 0.5865990901781231
          0.5962370535625559 0.584088595864457 0.591084029818821 0.6003027561928571 0.3670423342811825 1.4681693371247297
          0.5837772202691448 0.6003565035871615 0.5730833103992086 1.46816933712473 0.5906287379985652 1.46816933712473
          0.6098382779616144 0.5810221721031241 1.4681693371247297 0.5986307436671507 1.46816933712473 1.46816933712473
        </DataArray>
        <DataArray type="Float64" Name="stream" format="ascii" RangeMin="-0.02107607646343404" RangeMax="0.017146272777798944">
          0 0.0011495071499331468 -0.00042949370191220645 -0.004906428986227216 0.002554940251158078 -0.004214124398516101
          -0.013867625084409037 -0.0070406623634022706 -0.01607600536863159 0.00553190559376008 -0.004927901766986221 -0.005236437796511881
          -0.014599889037744444 -0.017570388335845465 -0.016533938445629424 0.008460615965119255 -0.004914011367733712 -0.010302386852556003
          -0.0020733868362062522 -0.02107607646343404 -0.010199843660741855 -0.008207034164611847 -0.0026600643775623006 0.017146272777798944
          -0.011226204881950636 -0.005559552261208728 -0.0042682196728410565 0.012586959659269939 -0.0017019853412148468 0.01345505485838907
          -0.004246669987355899 -0.00633698515957425 0.0110380989362807 0.0025657751393000235 0.006289222080791697 0.0025657751393000235
        </DataArray>
      </PointData>
      <CellData>
        <DataArray type="UInt8" Name="vtkGhostType" format="ascii" RangeMin="0" RangeMax="0">
          0 0 0 0 0 0
          0 0 0 0 0 0
          0 0 0 0 0 0
          0 0 0 0 0 0
          0 0 0 0 0 0
          0 0 0 0 0 0
          0 0 0 0 0 0
          0 0 0 0 0 0
          0 0
        </DataArray>
      </CellData>
      <Points>
        <DataArray type="Float32" Name="Points" NumberOfComponents="3" format="ascii" RangeMin="0" RangeMax="1.4142135623730951">
          0 1 0 0.20000000298023224 1 0
          0 0.800000011920929 0 0.20000000298023224 0.800000011920929 0
          0.4000000059604645 1 0 0 0.6000000238418579 0
          0.20000000298023224 0.6000000238418579 0 0.4000000059604645 0.800000011920929 0
          0.4000000059604645 0.6000000238418579 0 0.6000000238418579 1 0
          0 0.4000000059604645 0 0.6000000238418579 0.800000011920929 0
          0.20000000298023224 0.4000000059604645 0 0.6000000238418579 0.6000000238418579 0
          0.4000000059604645 0.4000000059604645 0 0.800000011920929 1 0
          0 0.20000000298023224 0 0.20000000298023224 0.20000000298023224 0
          0.800000011920929 0.800000011920929 0 0.6000000238418579 0.4000000059604645 0
          0.4000000059604645 0.20000000298023224 0 0.800000011920929 0.6000000238418579 0
          0 0 0 1 1 0
          0.6000000238418579 0.20000000298023224 0 0.800000011920929 0.4000000059604645 0
          0.20000000298023224 0 0 1 0.800000011920929 0
          0.4000000059604645 0 0 1 0.6000000238418579 0
          0.800000011920929 0.20000000298023224 0 0.6000000238418579 0 0
          1 0.4000000059604645 0 0.800000011920929 0 0
          1 0.20000000298023224 0 1 0 0
          <InformationKey name="L2_NORM_RANGE" location="vtkDataArray" length="2">
            <Value index="0">
              0
            </Value>
            <Value index="1">
              1.4142135624
            </Value>
          </InformationKey>
        </DataArray>
      </Points>
      <Cells>
        <DataArray type="Int64" Name="connectivity" format="ascii" RangeMin="0" RangeMax="35">
          26 17 22 17 16 22
          28 20 26 20 17 26
          31 24 28 24 20 28
          33 30 31 30 24 31
          35 34 33 34 30 33
          17 12 16 12 10 16
          20 14 17 14 12 17
          24 19 20 19 14 20
          30 25 24 25 19 24
          34 32 30 32 25 30
          12 6 10 6 5 10
          14 8 12 8 6 12
          19 13 14 13 8 14
          25 21 19 21 13 19
          32 29 25 29 21 25
          6 3 5 3 2 5
          8 7 6 7 3 6
          13 11 8 11 7 8
          21 18 13 18 11 13
          29 27 21 27 18 21
          3 1 2 1 0 2
          7 4 3 4 1 3
          11 9 7 9 4 7
          18 15 11 15 9 11
          27 23 18 23 15 18
        </DataArray>
        <DataArray type="Int64" Name="offsets" format="ascii" RangeMin="3" RangeMax="150">
          3 6 9 12 15 18
          21 24 27 30 33 36
          39 42 45 48 51 54
          57 60 63 66 69 72
          75 78 81 84 87 90
          93 96 99 102 105 108
          111 114 117 120 123 126
          129 132 135 138 141 144
          147 150
        </DataArray>
        <DataArray type="UInt8" Name="types" format="ascii" RangeMin="5" RangeMax="5">
          5 5 5 5 5 5
          5 5 5 5 5 5
          5 5 5 5 5 5
          5 5 5 5 5 5
          5 5 5 5 5 5
          5 5 5 5 5 5
          5 5 5 5 5 5
          5 5 5 5 5 5
          5 5
        </DataArray>
      </Cells>
    </Piece>
  </UnstructuredGrid>
</VTKFile>
