<?xml version="1.0"?>
<VTKFile type="UnstructuredGrid" version="0.1" byte_order="LittleEndian" header_type="UInt32" compressor="vtkZLibDataCompressor">
  <UnstructuredGrid>
    <Piece NumberOfPoints="36" NumberOfCells="50">
      <PointData>
        <DataArray type="Float64" Name="Velocity" NumberOfComponents="3" format="ascii" RangeMin="0" RangeMax="0.15714481037517503">
          0 0 0 0 0 0
          0 0 0 0.07818600441305562 0.012974213461947381 0
          0 0 0 0 0 0
          0.010144381639748339 0.060377845714543785 0 0.058292424403268414 -0.047614375023926805 0
          0.014152976621604502 -0.04245904150090067 0 0 0 0
          0 0 0 0.06845709180325193 0.030895002846520102 0
          0.002217963986787636 0.04462395561219973 0 0.023734073758189055 0.0566598586922947 0
          0.00396829878430259 -0.04704178894040048 0 0 0 0
          0 0 0 -0.0444090221058587 0.019259028624157612 0
          0.024485589291684928 -0.13083504823018427 0 0.007449749938701117 0.04481979296826706 0
          -0.0445946394957044 -0.041116522248238516 0 0.005778958041828083 -0.12706323245886225 0
          0 0 0 0 0 0
          -0.03219272951206613 0.0534427183164292 0 0.0013965458884082904 -0.1286034213647682 0
          0 0 0 0 0 0
          0 0 0 0 0 0
          -0.021763244571303936 -0.1556305002677153 0 0 0 0
          0 0 0 0 0 0
          0 0 0 0 0 0
          <InformationKey name="L2_NORM_RANGE" location="vtkDataArray" length="2">
            <Value index="0">
              0
            </Value>
            <Value index="1">
              0.15714481038
            </Value>
          </InformationKey>
        </DataArray>
        <DataArray type="Float64" Name="Pressure" format="ascii" RangeMin="-0.8506093778539306" RangeMax="0.7065464450268889">
          -0.6935426894103528 -0.7304522775124651 -0.4599732162283689 -0.47209285009434815 -0.7576803600034367 -0.19557062540804812
          -0.19635932759045982 -0.4833067455842336 -0.1992784287591347 -0.785806468710733 0.08060374688164026 -0.49793416551868286
          0.08138760526897644 -0.2036507192618996 0.08511217122715654 -0.825259951410271 0.35312949611622896 0.35508357192885115
          -0.5213733761544427 0.08957011986670745 0.36794786198684043 -0.20919985903269786 0.6153571446385143 -0.8506093778539306
          0.3826048067071837 0.09676593256527839 0.6272047822930487 -0.5205471539821764 0.6506926983456314 -0.21018349548121898
          0.40671987715551255 0.6792217142472889 0.0993190349239518 0.7065464450268889 0.4061358490248839 0.6609114372435613
        </DataArray>
        <DataArray type="Float64" Name="Temperature" format="ascii" RangeMin="239.99999999999997" RangeMax="960.0000000000001">
          960 608.5495629863407 960 621.7925339819861 592.6692546498657 960
          611.1990229222823 595.8889503689018 596.7713774779708 602.4162347853118 959.9999999999998 602.788812360792
          609.5948265648424 602.2344557706072 598.1084905581766 589.8943070552809 960.0000000000001 602.1491892080529
          591.7540998111621 602.1474325596027 597.6920962324424 591.4263093253728 959.9999999999999 240
          602.1192227121386 591.7725953429346 608.7310703958741 240 597.8304752083484 240
          589.831467289885 603.5050679007525 240 592.1497326706377 239.99999999999997 240
        </DataArray>
        <DataArray type="Float64" Name="Density" format="ascii" RangeMin="0.36728301308659256" RangeMax="1.4691320523463707">
          0.3672830130865926 0.5793968380042088 0.3672830130865926 0.567056812832918 0.5949215178564161 0.3672830130865926
          0.5768852359699584 0.59170704935013 0.590832110704144 0.5852958008158347 0.36728301308659267 0.584934035491172
          0.5784033544871691 0.585472467050992 0.5895112644765793 0.597720114173074 0.36728301308659256 0.5855553721277243
          0.595841571145255 0.5855570803720533 0.5899219594598856 0.5961718087335726 0.36728301308659267 1.4691320523463705
          0.5855845142676936 0.595822948439849 0.5792240772823196 1.4691320523463705 0.5897854110569524 1.4691320523463705
          0.597783794383151 0.5842398205363758 1.4691320523463705 0.5954434716586211 1.4691320523463707 1.4691320523463705
        </DataArray>
        <DataArray type="Float64" Name="stream" format="ascii" RangeMin="-0.009885935268421346" RangeMax="0.018091563375337138">
          0 0.0033715473567497334 -0.0005434315912592352 -0.001902615007887908 0.004871241720379967 -0.003417239817532648
          -0.007753263514867313 -0.0014102148881582459 -0.007281725166957141 0.007074499662656431 -0.003951292568886408 0.0003343370086862027
          -0.008746405410219477 -0.006735893712410659 -0.008063783401122673 0.011085287545369 -0.003990684876107147 -0.006639720007834973
          0.00438629926818466 -0.009885935268421346 -0.005436724876383292 0.0001119264757401672 -0.0023722347166851222 0.018091563375337138
          -0.005053401270416426 0.0020381593037097304 -0.0027796154943290513 0.014406251521461334 -0.0007565758231223974 0.014605071281865237
          -0.0004953266496552792 -0.003811279473847795 0.011850716273844592 0.003213813095979262 0.006374855837615791 0.003213813095979262
        </DataArray>
      </PointData>
      <CellData>
        <DataArray type="UInt8" Name="vtkGhostType" format="ascii" RangeMin="0" RangeMax="0">
          0 0 0 0 0 0
          0 0 0 0 0 0
          0 0 0 0 0 0
          0 0 0 0 0 0
          0 0 0 0 0 0
          0 0 0 0 0 0
          0 0 0 0 0 0
          0 0 0 0 0 0
          0 0
        </DataArray>
      </CellData>
      <Points>
        <DataArray type="Float32" Name="Points" NumberOfComponents="3" format="ascii" RangeMin="0" RangeMax="1.4142135623730951">
          0 1 0 0.20000000298023224 1 0
          0 0.800000011920929 0 0.20000000298023224 0.800000011920929 0
          0.4000000059604645 1 0 0 0.6000000238418579 0
          0.20000000298023224 0.6000000238418579 0 0.4000000059604645 0.800000011920929 0
          0.4000000059604645 0.6000000238418579 0 0.6000000238418579 1 0
          0 0.4000000059604645 0 0.6000000238418579 0.800000011920929 0
          0.20000000298023224 0.4000000059604645 0 0.6000000238418579 0.6000000238418579 0
          0.4000000059604645 0.4000000059604645 0 0.800000011920929 1 0
          0 0.20000000298023224 0 0.20000000298023224 0.20000000298023224 0
          0.800000011920929 0.800000011920929 0 0.6000000238418579 0.4000000059604645 0
          0.4000000059604645 0.20000000298023224 0 0.800000011920929 0.6000000238418579 0
          0 0 0 1 1 0
          0.6000000238418579 0.20000000298023224 0 0.800000011920929 0.4000000059604645 0
          0.20000000298023224 0 0 1 0.800000011920929 0
          0.4000000059604645 0 0 1 0.6000000238418579 0
          0.800000011920929 0.20000000298023224 0 0.6000000238418579 0 0
          1 0.4000000059604645 0 0.800000011920929 0 0
          1 0.20000000298023224 0 1 0 0
          <InformationKey name="L2_NORM_RANGE" location="vtkDataArray" length="2">
            <Value index="0">
              0
            </Value>
            <Value index="1">
              1.4142135624
            </Value>
          </InformationKey>
        </DataArray>
      </Points>
      <Cells>
        <DataArray type="Int64" Name="connectivity" format="ascii" RangeMin="0" RangeMax="35">
          26 17 22 17 16 22
          28 20 26 20 17 26
          31 24 28 24 20 28
          33 30 31 30 24 31
          35 34 33 34 30 33
          17 12 16 12 10 16
          20 14 17 14 12 17
          24 19 20 19 14 20
          30 25 24 25 19 24
          34 32 30 32 25 30
          12 6 10 6 5 10
          14 8 12 8 6 12
          19 13 14 13 8 14
          25 21 19 21 13 19
          32 29 25 29 21 25
          6 3 5 3 2 5
          8 7 6 7 3 6
          13 11 8 11 7 8
          21 18 13 18 11 13
          29 27 21 27 18 21
          3 1 2 1 0 2
          7 4 3 4 1 3
          11 9 7 9 4 7
          18 15 11 15 9 11
          27 23 18 23 15 18
        </DataArray>
        <DataArray type="Int64" Name="offsets" format="ascii" RangeMin="3" RangeMax="150">
          3 6 9 12 15 18
          21 24 27 30 33 36
          39 42 45 48 51 54
          57 60 63 66 69 72
          75 78 81 84 87 90
          93 96 99 102 105 108
          111 114 117 120 123 126
          129 132 135 138 141 144
          147 150
        </DataArray>
        <DataArray type="UInt8" Name="types" format="ascii" RangeMin="5" RangeMax="5">
          5 5 5 5 5 5
          5 5 5 5 5 5
          5 5 5 5 5 5
          5 5 5 5 5 5
          5 5 5 5 5 5
          5 5 5 5 5 5
          5 5 5 5 5 5
          5 5 5 5 5 5
          5 5
        </DataArray>
      </Cells>
    </Piece>
  </UnstructuredGrid>
</VTKFile>
