<?xml version="1.0"?>
<VTKFile type="UnstructuredGrid" version="0.1" byte_order="LittleEndian" header_type="UInt32" compressor="vtkZLibDataCompressor">
  <UnstructuredGrid>
    <Piece NumberOfPoints="36" NumberOfCells="50">
      <PointData>
        <DataArray type="Float64" Name="Velocity" NumberOfComponents="3" format="ascii" RangeMin="0" RangeMax="0.12617226926996178">
          0 0 0 0 0 0
          0 0 0 0.061834851580662833 -0.0066081014806839145 0
          0 0 0 0 0 0
          0.008316904725145256 0.032916151574316876 0 0.04218168036991794 -0.03542538589157482 0
          0.013666477576300878 -0.03290563126226456 0 0 0 0
          0 0 0 0.04297521108952636 0.011842779923708122 0
          0.003339819905217173 0.019397585376949716 0 0.01875194644570099 0.03467546704862817 0
          0.006851748523357654 -0.03622493756467774 0 0 0 0
          0 0 0 -0.0337335304386612 0.0019367558977134713 0
          0.012479847485795031 -0.10784996821590469 0 0.010322714640119317 0.022780429851285467 0
          -0.02725139627248027 -0.0334201558555746 0 0.005683503752756596 -0.0952632749223064 0
          0 0 0 0 0 0
          -0.012240341563141563 0.03230467540183864 0 0.002413743528738733 -0.09297895709139806 0
          0 0 0 0 0 0
          0 0 0 0 0 0
          -0.002401793134176558 -0.12614940714277006 0 0 0 0
          0 0 0 0 0 0
          0 0 0 0 0 0
          <InformationKey name="L2_NORM_RANGE" location="vtkDataArray" length="2">
            <Value index="0">
              0
            </Value>
            <Value index="1">
              0.12617226927
            </Value>
          </InformationKey>
        </DataArray>
        <DataArray type="Float64" Name="Pressure" format="ascii" RangeMin="-0.8106696443858132" RangeMax="0.7543642021918718">
          -0.6583713125115489 -0.711538457486181 -0.43680187290374145 -0.45200034907854963 -0.7381173019102153 -0.16870702254460815
          -0.16902579600888337 -0.45744566600031294 -0.16830846845576064 -0.7600058763362968 0.1107585153597534 -0.4676830981330837
          0.11284042244207984 -0.16661804193612564 0.12057654601820819 -0.7924326771530346 0.3854901159958251 0.3908868378151277
          -0.486220427707546 0.13169662569658336 0.4079011045996555 -0.1670550798181081 0.6468470220245438 -0.8106696443858132
          0.42978001182514153 0.14421387393317409 0.6650535914589938 -0.4826440455087821 0.6946289385381773 -0.16670345568912812
          0.46226427619722327 0.7286133126233637 0.14848121001496803 0.7543642021918718 0.46273485651380974 0.6995196343325206
        </DataArray>
        <DataArray type="Float64" Name="Temperature" format="ascii" RangeMin="239.99999999999997" RangeMax="960.0000000000001">
          959.9999999999999 605.743231761112 960.0000000000001 613.4580716011759 595.3234503971076 959.9999999999999
          607.3930458913788 597.2113856474822 597.7344406350704 601.6103782095425 959.9999999999999 601.9692533239305
          606.6047172689345 601.6372047354831 598.5279328271056 593.2255386948574 960.0000000000001 602.1307533072028
          593.8052200970375 601.516214482056 598.4065808325383 594.1109886377895 959.9999999999998 240.00000000000003
          601.3808332187851 594.3208821154024 605.7800435885451 239.99999999999997 598.5428066275012 240.00000000000006
          594.0656354734381 602.2467973758609 239.99999999999997 594.1890996486703 239.99999999999997 240
        </DataArray>
        <DataArray type="Float64" Name="Density" format="ascii" RangeMin="0.3674232964413109" RangeMax="1.469693185765244">
          0.367423296441311 0.5823034350019181 0.3674232964413109 0.5749803954213427 0.5924953306448353 0.367423296441311
          0.5807217698154832 0.5906223040293197 0.5901054726056942 0.5863036565848652 0.367423296441311 0.5859541208059842
          0.5814764615938182 0.5862775137696792 0.5893231464028416 0.5945906600037553 0.3674232964413109 0.5857969596243161
          0.5940102118435693 0.586395438878366 0.5894426563506786 0.5937044951691753 0.367423296441311 1.4696931857652435
          0.5865274466692806 0.593494819378007 0.5822680497927322 1.469693185765244 0.589308501711182 1.4696931857652433
          0.5937498207627423 0.5856840851965922 1.469693185765244 0.5936264478635119 1.469693185765244 1.4696931857652438
        </DataArray>
        <DataArray type="Float64" Name="stream" format="ascii" RangeMin="-0.005634422192791881" RangeMax="0.018898601916734696">
          0 0.004212775644601357 -0.0005703579421778895 -0.00037968227186391533 0.006062781366789022 -0.0029268414789629695
          -0.004645834711045065 0.0014617837030659355 -0.002735563654960997 0.008111381712707451 -0.0033857676244215145 0.003546194516694008
          -0.005634422192791881 -0.001096833229986693 -0.003723694366660663 0.012823860649323981 -0.0034863325051840955 -0.004700716759438315
          0.008132640791697508 -0.003926847709429663 -0.002891143461544928 0.004834690546409012 -0.002248792215363543 0.018898601916734696
          -0.0018413764307678496 0.00618263219717527 -0.0019406034699606053 0.01584117611820429 -0.0002723116961669026 0.015698287084489858
          0.001743180957450234 -0.0022336952923573323 0.01248202414535198 0.003781233222947787 0.006601736809288974 0.003781233222947787
        </DataArray>
      </PointData>
      <CellData>
        <DataArray type="UInt8" Name="vtkGhostType" format="ascii" RangeMin="0" RangeMax="0">
          0 0 0 0 0 0
          0 0 0 0 0 0
          0 0 0 0 0 0
          0 0 0 0 0 0
          0 0 0 0 0 0
          0 0 0 0 0 0
          0 0 0 0 0 0
          0 0 0 0 0 0
          0 0
        </DataArray>
      </CellData>
      <Points>
        <DataArray type="Float32" Name="Points" NumberOfComponents="3" format="ascii" RangeMin="0" RangeMax="1.4142135623730951">
          0 1 0 0.20000000298023224 1 0
          0 0.800000011920929 0 0.20000000298023224 0.800000011920929 0
          0.4000000059604645 1 0 0 0.6000000238418579 0
          0.20000000298023224 0.6000000238418579 0 0.4000000059604645 0.800000011920929 0
          0.4000000059604645 0.6000000238418579 0 0.6000000238418579 1 0
          0 0.4000000059604645 0 0.6000000238418579 0.800000011920929 0
          0.20000000298023224 0.4000000059604645 0 0.6000000238418579 0.6000000238418579 0
          0.4000000059604645 0.4000000059604645 0 0.800000011920929 1 0
          0 0.20000000298023224 0 0.20000000298023224 0.20000000298023224 0
          0.800000011920929 0.800000011920929 0 0.6000000238418579 0.4000000059604645 0
          0.4000000059604645 0.20000000298023224 0 0.800000011920929 0.6000000238418579 0
          0 0 0 1 1 0
          0.6000000238418579 0.20000000298023224 0 0.800000011920929 0.4000000059604645 0
          0.20000000298023224 0 0 1 0.800000011920929 0
          0.4000000059604645 0 0 1 0.6000000238418579 0
          0.800000011920929 0.20000000298023224 0 0.6000000238418579 0 0
          1 0.4000000059604645 0 0.800000011920929 0 0
          1 0.20000000298023224 0 1 0 0
          <InformationKey name="L2_NORM_RANGE" location="vtkDataArray" length="2">
            <Value index="0">
              0
            </Value>
            <Value index="1">
              1.4142135624
            </Value>
          </InformationKey>
        </DataArray>
      </Points>
      <Cells>
        <DataArray type="Int64" Name="connectivity" format="ascii" RangeMin="0" RangeMax="35">
          26 17 22 17 16 22
          28 20 26 20 17 26
          31 24 28 24 20 28
          33 30 31 30 24 31
          35 34 33 34 30 33
          17 12 16 12 10 16
          20 14 17 14 12 17
          24 19 20 19 14 20
          30 25 24 25 19 24
          34 32 30 32 25 30
          12 6 10 6 5 10
          14 8 12 8 6 12
          19 13 14 13 8 14
          25 21 19 21 13 19
          32 29 25 29 21 25
          6 3 5 3 2 5
          8 7 6 7 3 6
          13 11 8 11 7 8
          21 18 13 18 11 13
          29 27 21 27 18 21
          3 1 2 1 0 2
          7 4 3 4 1 3
          11 9 7 9 4 7
          18 15 11 15 9 11
          27 23 18 23 15 18
        </DataArray>
        <DataArray type="Int64" Name="offsets" format="ascii" RangeMin="3" RangeMax="150">
          3 6 9 12 15 18
          21 24 27 30 33 36
          39 42 45 48 51 54
          57 60 63 66 69 72
          75 78 81 84 87 90
          93 96 99 102 105 108
          111 114 117 120 123 126
          129 132 135 138 141 144
          147 150
        </DataArray>
        <DataArray type="UInt8" Name="types" format="ascii" RangeMin="5" RangeMax="5">
          5 5 5 5 5 5
          5 5 5 5 5 5
          5 5 5 5 5 5
          5 5 5 5 5 5
          5 5 5 5 5 5
          5 5 5 5 5 5
          5 5 5 5 5 5
          5 5 5 5 5 5
          5 5
        </DataArray>
      </Cells>
    </Piece>
  </UnstructuredGrid>
</VTKFile>
