<?xml version="1.0"?>
<VTKFile type="UnstructuredGrid" version="0.1" byte_order="LittleEndian" header_type="UInt32" compressor="vtkZLibDataCompressor">
  <UnstructuredGrid>
    <Piece NumberOfPoints="139" NumberOfCells="185">
      <PointData>
        <DataArray type="Float64" Name="Temperature" format="ascii" RangeMin="0" RangeMax="5.627201992817547">
          0.4792019961361785 0 1.0246559459745852 0.4328288753226881 0.2768394594961334 1.1514226438702624
          0.2763181404563737 0.4935393931245246 1.0246559411383824 0.8574885137489419 1.569478159361331 0
          1.212585556688014 0.6642960655639477 1.5694781911625906 1.1763270837706588 0.4186533239844951 1.6930138963813308
          2.7142433197570535 3.679325932571211 5.0093014597664105 2.579331655668792 3.4387624189569257 4.360274127486989
          3.812802017226439 0.3716660936578896 0.3792398392762893 1.19201456172104 1.354018102530556 1.0945312118720878
          0.15474984204973882 0.455461756740188 0.36797647756129037 0.4945907617198832 0.47378281706710984 0.9447586574359815
          1.6617975256427056 0.3407281028444724 0.9584299300494024 0.5604140495949502 0.904257946344661 1.661797544133197
          1.418344817489385 1.2089413789943393 0.8160255809705858 0.1903336379930144 2.663213641573122 3.137133190664142
          2.998908432033536 4.156375984406027 3.636756685185864 3.8941576582592776 4.69025783569821 4.022167593816084
          3.247700878864045 4.402378633480754 0.19522689669151902 0.278580068311896 0.349429956802116 0.25993166081132646
          1.27487363167162 0.9631735737246272 0.9837521030631609 0.5385515929511129 0.1251313605017262 0.2222541766731656
          0.6244286952438817 0.6336615594984543 0.3701693133753646 0.765216322173236 0.9811863308048967 1.0855543721205196
          0.7368396178324165 0.6576692712279557 1.4646292034678088 1.4183447804881881 1.3540180761075118 1.7958820782976077
          1.6614301618084502 0.7350973840728134 1.4646292211555163 1.7958821067406423 1.661430202355333 1.109312295105518
          1.4808435858044018 1.4864698186958636 0.23374757701420393 0.6881649048792539 0.514383858323986 2.2201932714741512
          2.4689346758569624 2.1843167435973503 2.838453332783107 3.2232737731409378 5.2331266398946426 4.832560295332129
          3.6192649711055003 3.3246718546494822 3.962418741887773 0.05934160447398282 0.34243177685730286 0
          0 0 0.07845017589186042 0.2938854533909102 1.5207558560586052 1.1843628685622065
          0.9447586578431989 0.5993071633522079 0.8730179209864339 0.8093826740657577 0.9252195003673533 0.6243780996044572
          0.44994188592962286 0.5937176287725062 0.9834698842008276 1.3758444649853947 1.5207558498081941 1.1843628606490406
          1.0945312001862386 0.8730179204047657 0.9252194944748525 0.8093826767236598 1.86396985183915 3.3355077104264588
          4.022167571792171 2.0682602142469007 3.046825645487125 4.427852214814458 1.463963273524248 2.219282318332872
          0 2.7254743499034113 4.62908193962604 5.315414244262031 1.8639698613597264 3.335507729230312
          5.627201992817547
        </DataArray>
      </PointData>
      <CellData>
        <DataArray type="UInt8" Name="vtkGhostType" format="ascii" RangeMin="0" RangeMax="1">
          1 1 1 1 1 0
          0 0 0 1 1 1
          1 1 1 1 1 1
          1 1 1 1 1 1
          1 1 1 1 1 0
          0 0 0 1 1 1
          1 1 1 1 1 1
          1 1 1 1 1 1
          0 0 0 0 1 1
          1 1 1 1 1 1
          1 1 1 1 1 1
          1 1 1 1 1 1
          1 1 1 1 1 1
          1 1 1 1 1 1
          1 1 1 1 1 1
          1 1 1 1 1 1
          1 1 1 1 1 1
          1 1 1 1 1 1
          1 1 1 1 1 1
          1 1 1 1 1 1
          1 0 0 0 0 0
          0 0 0 1 1 1
          0 0 0 0 1 1
          1 1 1 1 1 1
          1 1 1 1 1 1
          1 1 1 1 1 1
          1 0 0 0 0 1
          1 1 0 0 0 0
          0 0 0 0 1 1
          0 0 0 0 1 1
          1 1 1 1 1
        </DataArray>
      </CellData>
      <Points>
        <DataArray type="Float32" Name="Points" NumberOfComponents="3" format="ascii" RangeMin="0.4861359120657514" RangeMax="1.1473474844178637">
          0.25 0.75 0 0.25 1 0
          0.375 0.625 0 0.375 0.875 0
          0.1875 0.8125 0 0.4375 0.6875 0
          0.4375 0.9375 0 0.3125 0.8125 0
          0.375 0.375 0 0.3125 0.4375 0
          0.5 0.375 0 0.5 1 0
          0.5 0.75 0 0.5 0.875 0
          0.5 0.625 0 0.5625 0.8125 0
          0.5625 0.9375 0 0.5 0.5 0
          0.75 0.75 0 0.75 0.5 0
          0.875 0.625 0 0.6875 0.6875 0
          0.75 0.625 0 0.8125 0.5625 0
          0.8125 0.6875 0 0.21875 0.78125 0
          0.25 0.8125 0 0.46875 0.71875 0
          0.46875 0.65625 0 0.40625 0.65625 0
          0.46875 0.96875 0 0.46875 0.90625 0
          0.40625 0.90625 0 0.28125 0.78125 0
          0.34375 0.84375 0 0.34375 0.40625 0
          0.5 0.4375 0 0.5 0.9375 0
          0.5 0.8125 0 0.53125 0.90625 0
          0.53125 0.84375 0 0.5 0.5625 0
          0.5 0.6875 0 0.53125 0.78125 0
          0.5625 0.875 0 0.53125 0.96875 0
          0.71875 0.71875 0 0.75 0.6875 0
          0.71875 0.65625 0 0.8125 0.625 0
          0.78125 0.65625 0 0.78125 0.59375 0
          0.84375 0.59375 0 0.78125 0.53125 0
          0.78125 0.71875 0 0.84375 0.65625 0
          0.15625 0.84375 0 0.21875 0.84375 0
          0.1875 0.75 0 0.15625 0.78125 0
          0.4375 0.625 0 0.40625 0.71875 0
          0.4375 0.75 0 0.4375 0.875 0
          0.40625 0.96875 0 0.375 0.9375 0
          0.3125 0.75 0 0.34375 0.78125 0
          0.28125 0.84375 0 0.28125 0.46875 0
          0.34375 0.46875 0 0.375 0.4375 0
          0.28125 0.40625 0 0.25 0.4375 0
          0.46875 0.40625 0 0.5 0.3125 0
          0.46875 0.34375 0 0.53125 0.40625 0
          0.53125 0.34375 0 0.46875 0.84375 0
          0.46875 0.59375 0 0.53125 0.59375 0
          0.53125 0.65625 0 0.59375 0.84375 0
          0.59375 0.78125 0 0.5625 0.75 0
          0.59375 0.96875 0 0.59375 0.90625 0
          0.625 0.9375 0 0.6875 0.75 0
          0.65625 0.65625 0 0.65625 0.71875 0
          0.6875 0.625 0 0.71875 0.59375 0
          0.875 0.5625 0 0.84375 0.53125 0
          0.75 0.5625 0 0.8125 0.75 0
          0.84375 0.71875 0 0.21875 0.96875 0
          0.3125 0.875 0 0.1875 1 0
          0.4375 1 0 0.3125 1 0
          0.28125 0.96875 0 0.34375 0.90625 0
          0.46875 0.53125 0 0.40625 0.59375 0
          0.34375 0.59375 0 0.28125 0.71875 0
          0.34375 0.65625 0 0.3125 0.625 0
          0.375 0.6875 0 0.375 0.8125 0
          0.21875 0.71875 0 0.40625 0.84375 0
          0.46875 0.78125 0 0.4375 0.5 0
          0.46875 0.46875 0 0.40625 0.40625 0
          0.40625 0.34375 0 0.34375 0.34375 0
          0.375 0.3125 0 0.3125 0.375 0
          0.53125 0.46875 0 0.71875 0.46875 0
          0.78125 0.46875 0 0.5625 0.5 0
          0.6875 0.5 0 0.8125 0.5 0
          0.53125 0.71875 0 0.71875 0.78125 0
          0.5625 1 0 0.78125 0.78125 0
          0.875 0.6875 0 0.90625 0.65625 0
          0.53125 0.53125 0 0.71875 0.53125 0
          0.90625 0.59375 0
          <InformationKey name="L2_NORM_RANGE" location="vtkDataArray" length="2">
            <Value index="0">
              0.48613591207
            </Value>
            <Value index="1">
              1.1473474844
            </Value>
          </InformationKey>
        </DataArray>
      </Points>
      <Cells>
        <DataArray type="Int64" Name="connectivity" format="ascii" RangeMin="0" RangeMax="138">
          17 106 117 2 108 107
          0 114 109 2 110 111
          2 111 108 11 30 37
          6 31 30 13 37 31
          30 31 37 3 115 32
          6 32 63 115 63 32
          12 38 116 13 79 38
          38 79 116 6 63 31
          13 31 79 63 79 31
          0 109 33 7 33 66
          109 66 33 2 112 110
          3 34 113 7 67 34
          34 67 113 7 66 67
          17 41 106 14 80 41
          41 80 106 12 27 42
          5 28 27 14 42 28
          27 28 42 2 107 29
          5 29 60 107 60 29
          14 28 80 5 60 28
          28 60 80 3 113 115
          2 29 112 5 61 29
          29 61 112 12 116 27
          5 27 62 116 62 27
          5 62 61 1 101 99
          0 33 25 7 26 33
          4 25 26 33 26 25
          3 100 34 7 34 68
          100 68 34 4 57 56
          7 68 26 4 26 57
          68 57 26 11 102 30
          6 30 64 102 64 30
          1 104 103 3 32 105
          6 65 32 32 65 105
          6 64 65 3 105 100
          1 99 104 0 25 114
          4 58 25 25 58 114
          4 56 59 4 59 58
          17 118 36 10 36 74
          118 74 36 8 120 119
          10 76 75 10 74 76
          8 121 122 8 122 120
          8 123 121 17 117 118
          9 70 69 8 119 35
          9 35 71 119 71 35
          9 71 70 8 35 123
          9 72 35 35 72 123
          9 69 73 9 73 72
          17 36 124 10 77 36
          36 77 124 10 75 78
          10 78 77 17 124 127
          19 128 125 19 126 129
          19 125 126 11 45 132
          16 86 45 45 86 132
          16 87 88 16 88 86
          18 133 131 17 136 41
          14 41 81 136 81 41
          12 42 130 14 82 42
          42 82 130 14 81 82
          18 131 46 21 46 89
          131 89 46 21 91 90
          21 89 91 11 37 45
          13 39 37 16 45 39
          37 39 45 12 43 38
          15 40 43 13 38 40
          43 40 38 16 44 87
          15 83 44 87 44 83
          13 40 39 15 44 40
          16 39 44 40 44 39
          15 84 83 12 130 43
          15 43 85 130 85 43
          15 85 84 18 54 133
          24 97 54 54 97 133
          20 134 55 24 55 98
          134 98 55 24 98 97
          20 138 135 20 135 134
          20 52 138 23 94 52
          52 94 138 19 129 53
          23 53 95 129 95 53
          23 95 94 18 46 54
          21 47 46 24 54 47
          46 47 54 22 48 92
          21 90 48 92 48 90
          20 55 49 24 50 55
          22 49 50 55 50 49
          21 48 47 22 50 48
          24 47 50 48 50 47
          17 127 136 19 137 128
          20 49 52 22 51 49
          23 52 51 49 51 52
          22 92 93 19 53 137
          23 96 53 53 96 137
          22 93 51 23 51 96
          93 96 51
        </DataArray>
        <DataArray type="Int64" Name="offsets" format="ascii" RangeMin="3" RangeMax="555">
          3 6 9 12 15 18
          21 24 27 30 33 36
          39 42 45 48 51 54
          57 60 63 66 69 72
          75 78 81 84 87 90
          93 96 99 102 105 108
          111 114 117 120 123 126
          129 132 135 138 141 144
          147 150 153 156 159 162
          165 168 171 174 177 180
          183 186 189 192 195 198
          201 204 207 210 213 216
          219 222 225 228 231 234
          237 240 243 246 249 252
          255 258 261 264 267 270
          273 276 279 282 285 288
          291 294 297 300 303 306
          309 312 315 318 321 324
          327 330 333 336 339 342
          345 348 351 354 357 360
          363 366 369 372 375 378
          381 384 387 390 393 396
          399 402 405 408 411 414
          417 420 423 426 429 432
          435 438 441 444 447 450
          453 456 459 462 465 468
          471 474 477 480 483 486
          489 492 495 498 501 504
          507 510 513 516 519 522
          525 528 531 534 537 540
          543 546 549 552 555
        </DataArray>
        <DataArray type="UInt8" Name="types" format="ascii" RangeMin="5" RangeMax="5">
          5 5 5 5 5 5
          5 5 5 5 5 5
          5 5 5 5 5 5
          5 5 5 5 5 5
          5 5 5 5 5 5
          5 5 5 5 5 5
          5 5 5 5 5 5
          5 5 5 5 5 5
          5 5 5 5 5 5
          5 5 5 5 5 5
          5 5 5 5 5 5
          5 5 5 5 5 5
          5 5 5 5 5 5
          5 5 5 5 5 5
          5 5 5 5 5 5
          5 5 5 5 5 5
          5 5 5 5 5 5
          5 5 5 5 5 5
          5 5 5 5 5 5
          5 5 5 5 5 5
          5 5 5 5 5 5
          5 5 5 5 5 5
          5 5 5 5 5 5
          5 5 5 5 5 5
          5 5 5 5 5 5
          5 5 5 5 5 5
          5 5 5 5 5 5
          5 5 5 5 5 5
          5 5 5 5 5 5
          5 5 5 5 5 5
          5 5 5 5 5
        </DataArray>
      </Cells>
    </Piece>
  </UnstructuredGrid>
</VTKFile>
