<?xml version="1.0"?>
<VTKFile type="UnstructuredGrid" version="0.1" byte_order="LittleEndian" header_type="UInt32" compressor="vtkZLibDataCompressor">
  <UnstructuredGrid>
    <Piece NumberOfPoints="414" NumberOfCells="715">
      <PointData>
        <DataArray type="Float64" Name="Temperature" format="ascii" RangeMin="0" RangeMax="1.6970238273731768">
          0 0.2970527673391201 0 0.133817642184591 1.3540386257052726 0.8600750713987836
          0.6228581562065101 0.48004654475056124 1.109198876383018 0.052048980296447375 0.11482903573042122 0
          0.07664555777860022 0 0.07090347049383644 0.21236721129668337 0.14809907626625343 0.06265034681825295
          0 1.5246114434678555 1.233344554463067 1.1877048710235145 1.0886684675683505 1.46849773952574
          1.278434727063523 0.9475756702597987 0.7675524154659241 0.9840577171068323 0.7391306100137041 0.659720229353547
          0.4533872211660558 0.8118887975028609 0.554496405628837 0.575725258108528 0.40133836860582267 0.3866726941145838
          0.3140481688411562 1.3794779887845197 0.8763010372541469 1.233344583839633 0.9840577442848109 0.22948679002907396
          0.28419862166144305 0.24163679301602062 0.161848977388791 0.20080456620736323 0.14994219247543628 0.1366018391097227
          0.027540821287232734 0.024623199800017644 0.07338599973090279 0.045955537938407676 0.05762602386353351 0.08215761911763629
          0.021456773073905252 0.12491115691921781 0.09012621096888945 0.1036381559388731 0 0.03970818774469135
          0 0.03832277888930011 0.11649498135129994 0.07803096663399145 0.037763454584423914 0.07391997944570086
          0.11237231702242682 0 0.03255676625314762 0 0.03462004718175398 0.03632793270385775
          0.1034496883824661 0.06708843720255539 0.10872793245726796 0.25400598127637464 0.22191704475219048 0.1722446557583084
          0.18109313388602974 0.14150092287434482 0.15222174059512655 0.1880532329876114 0.030191162842176454 0.09723896595879832
          0 0 1.6107478913100708 1.45233729809853 1.4389380255389526 1.3731068069669032
          1.5959342776738663 1.5035069458323618 1.2942891000908157 1.171542248942648 1.3063745235627797 1.1606840640060212
          1.1040568203690864 1.1067885196047855 1.0631472522959617 1.2702043379309065 1.1390467509410551 1.1481310584127826
          1.234291594367308 0.9703340712804325 1.017553435119884 1.2161781333016835 1.0369013389564399 1.5224246816631821
          1.5664324411850297 1.4122347580104162 1.4198149960200783 1.3724107959943332 1.322407441650476 1.2224325430771115
          1.1868084031492 1.3197398334932529 0.9887120230544476 0.904595229691927 0.878953711922935 0.8399078261498959
          0.7200808107706398 0.8219260217141737 0.8143032424132479 0.8722368610719693 0.6690239564504125 0.7134113057156364
          1.0466113488570248 0.9304318992603844 0.92179800010348 0.6803170723960315 0.776478550048997 0.7991155321364801
          0.6442925565103037 0.700123004223308 0.7568603412910875 0.5677390553214808 0.6181741947519905 0.6066841314732536
          0.37395660580427165 0.4047996660876871 0.5360955512523808 0.48407183581300417 0.4208492186580412 0.5033398828554918
          0.5669244678987674 0.9159542732102035 0.7144986864023536 0.5179155897443404 0.4688920735448953 0.5895577371922615
          0.32835534143623907 0.6239412335523385 0.5326032988134446 0.5276940240663379 0.48677695796663084 0.4411129618554125
          0.36095678637368067 0.4452092660874712 0.31866820170846777 0.35758617885672545 0.34133391578512023 0.3071653161249103
          0.432975322086155 0.35104403867901857 0.39580169565775203 0.2717674794351151 0.23519628688257793 0.2765881049585171
          1.5316646727137302 1.2390804639256077 1.452337313519187 1.3063745387075854 0.7711254924231036 0.9886437012484722
          0.8219260341421293 0.9304319126499017 1.1715422635058235 1.2942891447064417 1.3731068373567836 1.1040568488833493
          1.1606841071886773 0.9217980396504417 0.8722368867712004 1.0466113629765779 1.0369013806123208 0.2640275496087466
          0.1929155974765368 1.3540386850208193 1.5246114743397703 1.4684978278805945 1.187704955425101 1.2784348381323463
          1.08866852347551 0.2841986723730104 0.24163684008905906 0.1618490140773078 0.2008046086470022 1.6107479070884063
          1.5959343243872355 1.4389380711364497 1.503507006599828 1.4122348324474931 1.5664325171781337 1.3724108967852346
          1.1067886152940511 1.148131166887484 1.2702044105651205 1.234291692864084 1.0631473343219942 1.139046821727146
          1.222432675116881 1.1868085240989021 1.3224075286169865 1.319739957531169 1.2161781914999001 0.9703341246859761
          1.017553503123898 1.2545926439904804 0.6541451595050102 0.15634440492399967 0.29705281005463136 0.6228582365265319
          0.15634441596626045 0.48004657816826357 0.1338176703264667 0 0.672133097919158 0
          0.3201271941507386 0 0.0794163754893827 0.2379514818627652 0.4533872842353217 0.5544964616951846
          0.7391306782658523 0.0794163782522398 0.23795149038462474 0.2294868146651584 0.3140481913759337 0.07664556570617086
          0.14809909744473063 0.3866727352858321 0.5757252776679905 0.4013383828410295 0.6597202722533143 0.06265036178699043
          0.07090348312953837 0.21236724908896948 0.15936797203353115 0.4890283570151863 0 0
          0.7675524391764299 0.03970818774469135 0.1178803902066912 0.27905345560814243 0.19865972694814818 0.19714794339338243
          0.027540828844776957 0.05762603905926984 0.12491118697849683 0.09012623381000827 0.7144987745936869 0.8789537994295133
          0.7764786318536108 0.3739566590930507 0.40479973090204263 0.5360956233027886 0.48407191089492047 0.4208492705938385
          0.5033399433004859 0.5669245521907128 0.5895578055750362 0.517915634456301 0.4688921225320543 0.6442926191419324
          0.6066841821989152 0.7991155924160203 0.8399078998216524 0.6803171475853694 0.7001230599584084 0.0397081891261199
          0.0397081891261199 0.11788039710925012 0.07803097197920533 0.2790534606795829 0.19865973120907793 0.1971479531754426
          0.2765881199340287 0.31866821316693555 0.2640275829225728 0.307165349059689 0.2717675030205461 0.2219170766415678
          0.19291561531570944 0.18805325671489095 0.3958017237697119 0.3510440702717801 0.23519630367109706 0.35758619804256525
          0.037763459296801784 0.03832278285308543 0.11649499083621564 0.0739199902228033 0.11237233157545073 0.15222175670549554
          0.14150094812478012 0.18109316318986748 0.1087279500757254 0.34133395871725336 0.43297536031045675 0.6239412441153435
          0.5326033080513758 0.5276940514522513 0.4867769749689736 0.6690239782747861 0.6181742258029923 0.36095679284373683
          0.44520927402377 0.4411129852040458 0.5677390938255594 0.7568603882178514 0.7134113398029427 0.32835539490906884
          0.030191170547814856 0.03255677360664966 0.09723898793348905 0.06708845132837626 0.1034497085762066 0.03632793866906162
          0.0346200539471598 0.2540060224196306 0.17224468940732096 0.23897866390307834 0.578394341354742 0.4032051000967609
          0 0 0 0 0 0.7200808222613484
          0.8143032792652208 1.027682616416772 0.860075121722052 1.0977470046009112 0.9475757483475529 1.0641474360183236
          0.9887121155400249 0.9045952940467743 0.09141304421890045 0 0.26868849339683654 0.18737426418564884
          0.15528585173282564 0.039383273401245374 0.5126748270051764 0.35772509309850226 0.3123080909970706 0.22699955876873018
          0.17216603399908353 0.12191888552744984 0.06386789858933757 0.018059937838857357 0.9505942080783938 0.8450688720087035
          0.6541450676298329 0.7465657777641871 0.5955810608988765 0.43364146773547585 0.9825407857170786 1.011442746035755
          1.036929131468698 1.1548076632812418 1.1281011550333186 1.1548078070457928 0.26868854858171476 0.18737430883730224
          1.0977471315319305 0.6831541895122051 0.3123081502391236 0.22699960937202687 0.14994223053163178 1.064147552327802
          1.128101291628605 1.1774408601544528 0.7465658770081524 0.5955811536965315 0.052048994980843984 0.1148290659516989
          0.8118888922432256 0.5126749106905496 0.3577251554798042 0 0.02462320702186118 0.08215764164899181
          0.9159543738520439 0.4336415410825692 1.0276827214513737 1.3577889222073642 1.5224247828470545 1.4198151091952587
          1.282852883746295 1.5735880120745758 1.6970238273731768 1.357788789486878 1.6659271617577684 1.6659271005798704
          1.254592502497596 1.4641963933420716 1.6892033735157113 1.6273097896012372 1.6892033423415065 1.6273097014473907
        </DataArray>
      </PointData>
      <CellData>
        <DataArray type="UInt8" Name="vtkGhostType" format="ascii" RangeMin="0" RangeMax="1">
          0 0 0 0 0 0
          0 0 0 0 0 0
          0 0 0 0 0 0
          0 0 0 0 0 0
          0 0 0 0 0 0
          0 0 0 0 0 0
          0 0 0 0 0 0
          0 0 0 0 0 0
          0 0 0 0 0 0
          0 0 0 0 0 0
          0 0 0 0 0 0
          0 0 0 0 0 0
          0 0 0 0 0 0
          1 0 0 1 0 0
          0 1 1 1 1 1
          1 1 1 1 1 1
          1 1 0 0 0 0
          0 0 0 0 0 0
          0 0 0 0 0 0
          0 0 0 0 0 0
          0 0 0 0 0 0
          0 0 0 0 0 0
          0 0 0 0 0 0
          0 0 0 0 0 0
          0 0 0 0 0 0
          0 0 0 0 0 0
          0 0 0 0 0 0
          0 0 0 0 0 0
          0 0 0 0 0 0
          0 0 0 0 0 0
          0 0 0 0 0 0
          0 0 0 0 0 0
          0 0 0 0 0 0
          0 0 0 0 0 0
          0 0 1 0 0 0
          0 0 0 0 0 0
          0 0 0 0 0 0
          0 0 0 0 0 0
          0 0 0 1 1 0
          1 0 0 0 0 0
          0 0 0 1 0 0
          0 0 0 0 0 0
          0 0 0 1 1 1
          1 1 0 0 0 0
          0 0 0 0 0 0
          0 0 0 0 0 0
          0 0 0 0 0 0
          0 0 0 0 0 0
          0 0 0 0 0 0
          0 0 0 0 0 0
          0 0 0 0 0 0
          0 0 0 0 0 0
          0 0 0 0 0 1
          1 1 0 0 0 0
          1 1 0 1 1 0
          1 1 0 1 0 0
          0 1 0 0 0 0
          1 0 1 1 0 1
          0 0 0 0 0 0
          0 0 1 0 0 0
          0 0 0 0 1 0
          1 1 0 1 0 0
          1 0 1 1 0 0
          0 0 0 0 0 0
          0 0 0 0 0 0
          0 0 0 0 0 0
          0 0 0 0 0 0
          0 0 0 0 0 0
          0 0 0 0 0 0
          0 0 0 0 0 0
          0 0 0 0 0 0
          0 0 0 0 0 0
          0 0 0 0 0 0
          0 1 1 0 1 1
          0 1 1 0 0 0
          0 1 0 0 0 1
          0 1 0 0 0 0
          1 0 0 0 0 0
          0 0 0 0 1 1
          1 0 1 1 1 1
          0 0 0 0 0 0
          0 0 0 0 0 0
          0 0 0 0 1 1
          1 0 0 1 0 0
          1 0 0 0 1 1
          1 0 1 1 1 0
          0 0 0 0 0 0
          0 0 0 0 0 0
          0 0 0 0 0 0
          0 0 0 0 0 0
          0 0 0 0 0 0
          0 0 0 0 0 0
          0 0 0 0 0 0
          0 0 0 0 0 0
          0 0 0 0 1 0
          0 0 0 1 0 1
          1 0 1 0 0 0
          0 0 0 0 0 0
          0 0 0 0 0 0
          0 1 0 1 1 0
          0 0 0 0 1 0
          0 0 0 1 0 0
          0 0 0 0 0 0
          0 0 0 0 0 0
          0 0 0 0 0 0
          0 0 0 0 0 0
          0 0 0 0 0 0
          0 0 1 1 1 0
          0 0 0 0 0 0
          0 0 0 0 0 0
          0 0 0 0 0 0
          0 0 0 0 0 0
          0 0 0 0 0 0
          0 0 0 0 0 0
          0 0 0 0 0 0
          0 0 0 0 0 0
          0 0 0 0 0 0
          0 0 1 0 0 0
          0 1 0 1 1 0
          1
        </DataArray>
      </CellData>
      <Points>
        <DataArray type="Float32" Name="Points" NumberOfComponents="3" format="ascii" RangeMin="0.1875" RangeMax="0.875">
          0 0.75 0 0.125 0.625 0
          0 0.625 0 0.0625 0.6875 0
          0.4375 0.5625 0 0.3125 0.5625 0
          0.25 0.625 0 0.1875 0.5625 0
          0.375 0.5 0 0.03125 0.78125 0
          0.0625 0.75 0 0 0.5625 0
          0.03125 0.59375 0 0 0.6875 0
          0.03125 0.65625 0 0.09375 0.65625 0
          0.0625 0.625 0 0.03125 0.71875 0
          0 0.8125 0 0.46875 0.53125 0
          0.40625 0.53125 0 0.40625 0.59375 0
          0.375 0.5625 0 0.46875 0.59375 0
          0.4375 0.625 0 0.34375 0.59375 0
          0.28125 0.53125 0 0.34375 0.53125 0
          0.28125 0.59375 0 0.25 0.5625 0
          0.1875 0.625 0 0.3125 0.625 0
          0.21875 0.59375 0 0.21875 0.53125 0
          0.15625 0.53125 0 0.15625 0.59375 0
          0.125 0.5625 0 0.4375 0.5 0
          0.3125 0.5 0 0.40625 0.46875 0
          0.34375 0.46875 0 0.09375 0.59375 0
          0.125 0.65625 0 0.109375 0.671875 0
          0.078125 0.703125 0 0.09375 0.6875 0
          0.078125 0.734375 0 0.078125 0.765625 0
          0.015625 0.765625 0 0.015625 0.796875 0
          0.046875 0.796875 0 0.03125 0.8125 0
          0.03125 0.75 0 0.046875 0.765625 0
          0.015625 0.828125 0 0.0625 0.71875 0
          0.046875 0.734375 0 0.0625 0.78125 0
          0 0.53125 0 0.015625 0.546875 0
          0 0.59375 0 0.015625 0.578125 0
          0.046875 0.578125 0 0.03125 0.5625 0
          0.015625 0.609375 0 0.03125 0.625 0
          0.046875 0.609375 0 0 0.71875 0
          0.015625 0.703125 0 0 0.65625 0
          0.015625 0.671875 0 0.015625 0.640625 0
          0.046875 0.671875 0 0.03125 0.6875 0
          0.046875 0.640625 0 0.109375 0.640625 0
          0.09375 0.625 0 0.078125 0.671875 0
          0.078125 0.640625 0 0.0625 0.65625 0
          0.0625 0.59375 0 0.078125 0.609375 0
          0.015625 0.734375 0 0.046875 0.703125 0
          0 0.78125 0 0 0.84375 0
          0.484375 0.515625 0 0.453125 0.515625 0
          0.453125 0.546875 0 0.4375 0.53125 0
          0.484375 0.546875 0 0.46875 0.5625 0
          0.421875 0.546875 0 0.390625 0.515625 0
          0.421875 0.515625 0 0.390625 0.546875 0
          0.375 0.53125 0 0.390625 0.609375 0
          0.375 0.59375 0 0.421875 0.578125 0
          0.390625 0.578125 0 0.40625 0.625 0
          0.421875 0.609375 0 0.34375 0.5625 0
          0.359375 0.578125 0 0.40625 0.5625 0
          0.359375 0.546875 0 0.484375 0.609375 0
          0.484375 0.578125 0 0.453125 0.578125 0
          0.46875 0.625 0 0.453125 0.609375 0
          0.4375 0.59375 0 0.4375 0.65625 0
          0.421875 0.640625 0 0.453125 0.640625 0
          0.359375 0.609375 0 0.328125 0.578125 0
          0.328125 0.609375 0 0.3125 0.59375 0
          0.265625 0.515625 0 0.296875 0.515625 0
          0.296875 0.546875 0 0.3125 0.53125 0
          0.25 0.53125 0 0.265625 0.546875 0
          0.359375 0.515625 0 0.328125 0.515625 0
          0.328125 0.546875 0 0.265625 0.609375 0
          0.296875 0.609375 0 0.296875 0.578125 0
          0.25 0.59375 0 0.265625 0.578125 0
          0.28125 0.5625 0 0.21875 0.5625 0
          0.234375 0.546875 0 0.234375 0.578125 0
          0.15625 0.625 0 0.171875 0.640625 0
          0.21875 0.625 0 0.203125 0.640625 0
          0.171875 0.609375 0 0.203125 0.609375 0
          0.234375 0.640625 0 0.34375 0.625 0
          0.28125 0.625 0 0.203125 0.578125 0
          0.1875 0.59375 0 0.234375 0.609375 0
          0.140625 0.640625 0 0.234375 0.515625 0
          0.203125 0.515625 0 0.203125 0.546875 0
          0.1875 0.53125 0 0.171875 0.546875 0
          0.140625 0.515625 0 0.171875 0.515625 0
          0.125 0.53125 0 0.140625 0.546875 0
          0.140625 0.609375 0 0.125 0.59375 0
          0.171875 0.578125 0 0.140625 0.578125 0
          0.15625 0.5625 0 0.109375 0.578125 0
          0.09375 0.5625 0 0.109375 0.546875 0
          0.46875 0.5 0 0.40625 0.5 0
          0.453125 0.484375 0 0.421875 0.484375 0
          0.28125 0.5 0 0.34375 0.5 0
          0.296875 0.484375 0 0.328125 0.484375 0
          0.390625 0.484375 0 0.421875 0.453125 0
          0.4375 0.46875 0 0.375 0.46875 0
          0.390625 0.453125 0 0.328125 0.453125 0
          0.3125 0.46875 0 0.359375 0.484375 0
          0.359375 0.453125 0 0.109375 0.609375 0
          0.078125 0.578125 0 0.4375 0.4375 0
          0.46875 0.46875 0 0.46875 0.40625 0
          0.40625 0.40625 0 0.4375 0.375 0
          0.375 0.4375 0 0.125 0.34375 0
          0.109375 0.328125 0 0.078125 0.296875 0
          0.09375 0.3125 0 0.484375 0.484375 0
          0.484375 0.453125 0 0.453125 0.453125 0
          0.46875 0.4375 0 0.453125 0.421875 0
          0.484375 0.421875 0 0.453125 0.390625 0
          0.390625 0.390625 0 0.40625 0.375 0
          0.421875 0.421875 0 0.421875 0.390625 0
          0.375 0.40625 0 0.390625 0.421875 0
          0.4375 0.34375 0 0.421875 0.359375 0
          0.4375 0.40625 0 0.453125 0.359375 0
          0.40625 0.4375 0 0.34375 0.4375 0
          0.359375 0.421875 0 0.453125 0.328125 0
          0.265625 0.359375 0 0.0625 0.5625 0
          0.125 0.375 0 0.25 0.375 0
          0.0625 0.4375 0 0.1875 0.4375 0
          0.0625 0.3125 0 0 0.5 0
          0.25 0.5 0 0 0.25 0
          0.125 0.5 0 0 0.375 0
          0.03125 0.53125 0 0.09375 0.53125 0
          0.1875 0.375 0 0.21875 0.40625 0
          0.28125 0.40625 0 0.03125 0.46875 0
          0.09375 0.46875 0 0.09375 0.40625 0
          0.125 0.4375 0 0.03125 0.40625 0
          0.0625 0.375 0 0.15625 0.40625 0
          0.21875 0.46875 0 0.15625 0.46875 0
          0.25 0.4375 0 0.03125 0.28125 0
          0.03125 0.34375 0 0.09375 0.34375 0
          0.0625 0.5 0 0.1875 0.5 0
          0 0.4375 0 0 0.3125 0
          0.28125 0.46875 0 0.015625 0.515625 0
          0.046875 0.546875 0 0.109375 0.515625 0
          0.078125 0.515625 0 0.078125 0.546875 0
          0.015625 0.234375 0 0.03125 0.25 0
          0.0625 0.28125 0 0.046875 0.265625 0
          0.28125 0.375 0 0.328125 0.390625 0
          0.296875 0.390625 0 0.15625 0.375 0
          0.171875 0.359375 0 0.21875 0.375 0
          0.203125 0.359375 0 0.171875 0.390625 0
          0.203125 0.390625 0 0.234375 0.359375 0
          0.234375 0.390625 0 0.203125 0.421875 0
          0.1875 0.40625 0 0.25 0.40625 0
          0.234375 0.421875 0 0.296875 0.421875 0
          0.3125 0.40625 0 0.265625 0.390625 0
          0.265625 0.421875 0 0.015625 0.484375 0
          0.015625 0.453125 0 0.046875 0.453125 0
          0.03125 0.4375 0 0.109375 0.484375 0
          0.078125 0.484375 0 0.078125 0.453125 0
          0.109375 0.453125 0 0.125 0.46875 0
          0.109375 0.390625 0 0.125 0.40625 0
          0.109375 0.421875 0 0.09375 0.375 0
          0.078125 0.421875 0 0.078125 0.390625 0
          0.15625 0.4375 0 0.140625 0.421875 0
          0.09375 0.4375 0 0.140625 0.453125 0
          0.015625 0.390625 0 0.015625 0.421875 0
          0.046875 0.421875 0 0.03125 0.375 0
          0.046875 0.390625 0 0.0625 0.40625 0
          0.0625 0.34375 0 0.078125 0.359375 0
          0.046875 0.359375 0 0.140625 0.390625 0
          0.171875 0.421875 0 0.234375 0.484375 0
          0.203125 0.484375 0 0.203125 0.453125 0
          0.1875 0.46875 0 0.25 0.46875 0
          0.234375 0.453125 0 0.140625 0.484375 0
          0.171875 0.484375 0 0.171875 0.453125 0
          0.21875 0.4375 0 0.28125 0.4375 0
          0.265625 0.453125 0 0.140625 0.359375 0
          0.015625 0.265625 0 0.015625 0.296875 0
          0.046875 0.296875 0 0.03125 0.3125 0
          0.046875 0.328125 0 0.015625 0.359375 0
          0.015625 0.328125 0 0.109375 0.359375 0
          0.078125 0.328125 0 0.09375 0.5 0
          0.21875 0.5 0 0.15625 0.5 0
          0 0.21875 0 0 0.46875 0
          0 0.40625 0 0 0.28125 0
          0 0.34375 0 0.265625 0.484375 0
          0.296875 0.453125 0 0.375 0.625 0
          0.3125 0.4375 0 0.40625 0.65625 0
          0.34375 0.40625 0 0.390625 0.640625 0
          0.359375 0.390625 0 0.328125 0.421875 0
          0.0625 0.8125 0 0 0.875 0
          0.125 0.6875 0 0.09375 0.71875 0
          0.09375 0.78125 0 0.03125 0.84375 0
          0.21875 0.65625 0 0.15625 0.65625 0
          0.140625 0.671875 0 0.109375 0.703125 0
          0.09375 0.75 0 0.078125 0.796875 0
          0.046875 0.828125 0 0.015625 0.859375 0
          0.359375 0.640625 0 0.328125 0.640625 0
          0.265625 0.640625 0 0.296875 0.640625 0
          0.25 0.65625 0 0.1875 0.65625 0
          0.375 0.65625 0 0.390625 0.671875 0
          0.40625 0.6875 0 0.4375 0.6875 0
          0.421875 0.671875 0 0.4375 0.3125 0
          0.125 0.3125 0 0.09375 0.28125 0
          0.40625 0.34375 0 0.28125 0.34375 0
          0.140625 0.328125 0 0.109375 0.296875 0
          0.078125 0.265625 0 0.390625 0.359375 0
          0.421875 0.328125 0 0.453125 0.296875 0
          0.296875 0.359375 0 0.25 0.34375 0
          0.03125 0.21875 0 0.0625 0.25 0
          0.3125 0.375 0 0.21875 0.34375 0
          0.15625 0.34375 0 0 0.1875 0
          0.015625 0.203125 0 0.046875 0.234375 0
          0.34375 0.375 0 0.1875 0.34375 0
          0.375 0.375 0 0.46875 0.34375 0
          0.484375 0.390625 0 0.46875 0.375 0
          0.46875 0.3125 0 0.5 0.625 0
          0.5 0.5 0 0.46875 0.65625 0
          0.5 0.4375 0 0.5 0.5625 0
          0.453125 0.671875 0 0.484375 0.640625 0
          0.5 0.46875 0 0.5 0.40625 0
          0.5 0.53125 0 0.5 0.59375 0
          <InformationKey name="L2_NORM_RANGE" location="vtkDataArray" length="2">
            <Value index="0">
              0.1875
            </Value>
            <Value index="1">
              0.875
            </Value>
          </InformationKey>
        </DataArray>
      </Points>
      <Cells>
        <DataArray type="Int64" Name="connectivity" format="ascii" RangeMin="0" RangeMax="413">
          219 36 41 230 12 11
          219 16 12 225 248 230
          219 230 231 248 231 230
          225 235 248 222 236 235
          235 236 248 222 237 238
          250 239 235 222 239 240
          404 86 168 19 87 86
          37 168 87 86 87 168
          4 92 88 20 89 92
          19 88 89 92 89 88
          8 169 93 37 94 169
          20 93 94 169 94 93
          19 89 87 20 94 89
          37 87 94 89 94 87
          343 116 97 25 98 116
          21 97 98 116 98 97
          5 103 117 22 104 103
          25 117 104 103 104 117
          4 99 105 21 100 99
          22 105 100 99 100 105
          25 104 98 22 100 104
          21 98 100 104 100 98
          226 172 120 38 121 172
          26 120 121 172 121 120
          8 126 173 27 127 126
          38 173 127 126 127 173
          5 122 128 26 123 122
          27 128 123 122 123 128
          38 127 121 27 123 127
          26 121 123 127 123 121
          4 105 92 22 95 105
          20 92 95 105 95 92
          5 128 103 27 106 128
          22 103 106 128 106 103
          8 93 126 20 96 93
          27 126 96 93 96 126
          22 106 95 27 96 106
          20 95 96 106 96 95
          1 138 150 30 139 138
          357 150 139 138 139 150
          6 144 140 356 141 144
          30 140 141 144 141 140
          30 141 139 356 369 141
          357 139 369 141 369 139
          343 364 145 31 145 365
          364 365 145 6 146 366
          31 367 146 146 367 366
          31 365 367 6 366 144
          356 144 368 366 368 144
          226 151 334 33 152 151
          249 334 152 151 152 334
          7 155 153 34 154 155
          33 153 154 155 154 153
          228 335 156 249 157 335
          34 156 157 335 157 156
          33 154 152 34 157 154
          249 152 157 154 157 152
          1 185 160 41 161 185
          35 160 161 185 161 160
          7 162 164 35 163 162
          36 164 163 162 163 164
          41 165 161 36 163 165
          35 161 163 165 163 161
          228 156 255 34 158 156
          231 255 158 156 158 255
          7 164 155 36 159 164
          34 155 159 164 159 155
          219 257 166 231 167 257
          36 166 167 257 167 166
          34 159 158 36 167 159
          231 158 167 159 167 158
          343 145 116 31 118 145
          25 116 118 145 118 116
          6 129 146 28 130 129
          31 146 130 129 130 146
          5 117 131 25 119 117
          28 131 119 117 119 131
          31 130 118 28 119 130
          25 118 119 130 119 118
          1 160 138 35 142 160
          30 138 142 160 142 138
          7 147 162 32 148 147
          35 162 148 147 148 162
          6 140 149 30 143 140
          32 149 143 140 143 149
          35 148 142 32 143 148
          30 142 143 148 143 142
          226 120 151 26 124 120
          33 151 124 120 124 151
          5 134 122 29 125 134
          26 122 125 134 125 122
          7 153 135 33 136 153
          29 135 136 153 136 135
          26 125 124 29 136 125
          33 124 136 125 136 124
          6 149 129 32 132 149
          28 129 132 149 132 129
          7 135 147 29 137 135
          32 147 137 135 137 147
          5 131 134 28 133 131
          29 134 133 131 133 134
          32 137 132 29 133 137
          28 132 133 137 133 132
          343 370 364 404 412 86
          407 90 412 19 86 90
          412 90 86 403 107 413
          23 108 107 407 413 108
          107 108 413 4 88 109
          19 91 88 23 109 91
          88 91 109 407 108 90
          23 91 108 19 90 91
          108 91 90 343 97 347
          21 101 97 345 347 101
          97 101 347 4 112 99
          24 102 112 21 99 102
          112 102 99 373 374 113
          345 114 374 24 113 114
          374 114 113 21 102 101
          24 114 102 345 101 114
          102 114 101 403 409 107
          405 110 409 23 107 110
          409 110 107 373 113 408
          24 115 113 405 408 115
          113 115 408 4 109 112
          23 111 109 24 112 111
          109 111 112 405 115 110
          24 111 115 23 110 111
          115 111 110 343 347 370
          345 371 347 347 371 370
          345 374 372 345 372 371
          225 253 58 230 59 253
          11 58 59 253 59 58
          219 62 254 12 63 62
          230 254 63 62 63 254
          2 60 64 11 61 60
          12 64 61 60 61 64
          1 75 185 15 76 75
          41 185 76 75 76 185
          3 79 77 16 78 79
          15 77 78 79 78 77
          219 186 80 41 81 186
          16 80 81 186 81 80
          15 78 76 16 81 78
          41 76 81 78 81 76
          0 67 82 13 68 67
          17 82 68 67 68 82
          2 71 69 14 70 71
          13 69 70 71 70 69
          3 83 72 17 73 83
          14 72 73 83 73 72
          13 70 68 14 73 70
          17 68 73 70 73 68
          3 72 79 14 74 72
          16 79 74 72 74 79
          2 64 71 12 65 64
          14 71 65 64 65 71
          16 74 66 14 65 74
          12 66 65 74 65 66
          1 150 42 357 358 150
          352 42 358 150 358 42
          0 48 84 9 49 48
          18 84 49 48 49 84
          350 362 50 355 51 362
          9 50 51 362 51 50
          351 85 363 18 54 85
          355 363 54 85 54 363
          9 51 49 355 54 51
          18 49 54 51 54 49
          1 42 75 352 43 42
          15 75 43 42 43 75
          3 77 44 15 45 77
          353 44 45 77 45 44
          352 359 43 353 45 359
          15 43 45 359 45 43
          0 82 48 17 52 82
          9 48 52 82 52 48
          3 55 83 10 56 55
          17 83 56 55 56 83
          350 50 57 9 53 50
          10 57 53 50 53 57
          17 56 52 10 53 56
          9 52 53 56 53 52
          350 57 361 10 47 57
          354 361 47 57 47 361
          3 44 55 353 46 44
          10 55 46 44 46 55
          354 47 360 10 46 47
          353 360 46 47 46 360
          404 168 197 37 170 168
          188 197 170 168 170 197
          8 176 169 39 171 176
          37 169 171 176 171 169
          187 199 177 188 178 199
          39 177 178 199 178 177
          37 171 170 39 178 171
          188 170 178 171 178 170
          226 341 172 252 174 341
          38 172 174 341 174 172
          344 181 342 40 182 181
          252 342 182 181 182 342
          8 173 183 38 175 173
          40 183 175 173 175 183
          252 182 174 40 175 182
          38 174 175 182 175 174
          8 183 176 40 179 183
          39 176 179 183 179 176
          344 215 181 192 184 215
          40 181 184 215 184 181
          187 177 214 39 180 177
          192 214 180 177 180 214
          40 184 179 192 180 184
          39 179 180 184 180 179
          404 197 410 188 198 197
          406 410 198 197 198 410
          187 201 199 189 200 201
          188 199 200 201 200 199
          406 202 411 189 400 202
          411 202 400 188 200 198
          189 202 200 406 198 202
          200 202 198 398 383 204
          378 205 383 190 204 205
          383 205 204 375 210 384
          191 211 210 378 384 211
          210 211 384 187 206 212
          190 207 206 191 212 207
          206 207 212 378 211 205
          191 207 211 190 205 207
          211 207 205 375 385 217
          399 217 402 385 402 217
          187 212 201 191 203 212
          189 201 203 212 203 201
          375 217 210 399 213 217
          191 210 213 217 213 210
          189 401 400 191 213 203
          399 401 213 189 203 401
          213 401 203 221 218 262
          379 386 218 390 262 386
          218 386 262 221 271 218
          391 387 271 379 218 387
          271 387 218 398 204 348
          190 208 204 346 348 208
          204 208 348 187 214 206
          192 209 214 190 206 209
          214 209 206 344 349 215
          346 216 349 192 215 216
          349 216 215 190 209 208
          192 216 209 346 208 216
          209 216 208 220 193 323
          376 380 193 392 323 380
          193 380 323 220 331 193
          247 194 331 376 193 194
          331 194 193 224 195 332
          377 196 195 247 332 196
          195 196 332 247 196 194
          377 381 196 376 194 381
          196 381 194 224 260 195
          389 382 260 377 195 382
          260 382 195 228 255 333
          231 256 255 248 333 256
          255 256 333 228 333 285
          248 286 333 236 285 286
          333 286 285 220 309 290
          241 291 309 237 290 291
          309 291 290 223 296 310
          238 297 296 241 310 297
          296 297 310 241 297 291
          238 292 297 237 291 292
          297 292 291 226 334 311
          249 312 334 242 311 312
          334 312 311 228 317 335
          243 318 317 249 335 318