<?xml version="1.0"?>
<VTKFile type="UnstructuredGrid" version="0.1" byte_order="LittleEndian" header_type="UInt32" compressor="vtkZLibDataCompressor">
  <UnstructuredGrid>
    <Piece NumberOfPoints="7" NumberOfCells="6">
      <PointData>
        <DataArray type="Float64" Name="tem_BC" format="ascii" RangeMin="0" RangeMax="0">
          0 0 0 0 0 0
          0
        </DataArray>
        <DataArray type="Float64" Name="tem_FIXNO" format="ascii" RangeMin="-1" RangeMax="1">
          -1 1 1 -1 1 -1
          1
        </DataArray>
        <DataArray type="Float64" Name="Temperature" format="ascii" RangeMin="0" RangeMax="2.1348039215510903">
          0.3406862745048483 0 0 1.2794117646888123 0 2.1348039215510903
          0
        </DataArray>
      </PointData>
      <CellData>
        <DataArray type="UInt8" Name="vtkGhostType" format="ascii" RangeMin="0" RangeMax="0">
          0 0 0 0 0 0
        </DataArray>
      </CellData>
      <Points>
        <DataArray type="Float32" Name="Points" NumberOfComponents="3" format="ascii" RangeMin="0" RangeMax="1">
          0.25 0.25 0 0.5 0 0
          0 0 0 0.5 0.5 0
          0 0.5 0 0.75 0.25 0
          1 0 0
          <InformationKey name="L2_NORM_RANGE" location="vtkDataArray" length="2">
            <Value index="0">
              0
            </Value>
            <Value index="1">
              1
            </Value>
          </InformationKey>
        </DataArray>
      </Points>
      <Cells>
        <DataArray type="Int64" Name="connectivity" format="ascii" RangeMin="0" RangeMax="6">
          1 0 2 3 0 1
          4 0 3 2 0 4
          1 5 3 6 5 1
        </DataArray>
        <DataArray type="Int64" Name="offsets" format="ascii" RangeMin="3" RangeMax="18">
          3 6 9 12 15 18
        </DataArray>
        <DataArray type="UInt8" Name="types" format="ascii" RangeMin="5" RangeMax="5">
          5 5 5 5 5 5
        </DataArray>
      </Cells>
    </Piece>
  </UnstructuredGrid>
</VTKFile>
