<?xml version="1.0"?>
<VTKFile type="UnstructuredGrid" version="0.1" byte_order="LittleEndian" header_type="UInt32" compressor="vtkZLibDataCompressor">
  <UnstructuredGrid>
    <Piece NumberOfPoints="386" NumberOfCells="712">
      <PointData>
        <DataArray type="Float64" Name="Temperature" format="ascii" RangeMin="0" RangeMax="6.7709637214334775">
          1.005380733706033 0 1.180157867039035 0.42022966113856847 1.8225037867478173 1.5307272560926815
          0.6369856176110635 0 0 1.7561407407415115 0.5624290250527486 0.9073149252623053
          1.1131475736941208 0.8189261995622301 1.2127071475977427 1.4854040625482798 1.4908361316704073 1.795051204566435
          0.19103963748621355 0.6907663556131255 0.2346738730179769 0.516473009492905 2.1237123947772183 2.1899422264995025
          1.4460433297073494 1.8175360597443826 1.2371212498061024 1.6810489139575078 1.9126062684988951 2.0807985858058253
          1.3088679654933064 1.0497022468402804 0.35768882136365576 0.2888719828208831 0.8495250577932648 0.7916507411029031
          0 0.7641457253706925 0 0.5728030557527264 0 0
          1.1396931014185836 2.1590522892447512 1.2900578977764423 2.942856687557278 3.155929125607686 1.3659730099790748
          0.4479370520979867 0.2712370246378183 0.44781687375596513 1.083728623952802 0.9383764982968911 0.4964051652256319
          0.37915154542614776 0.6189516851277725 0.686054094851626 0.739050725068438 0.7829843071026604 1.0396860828690535
          1.065665263780279 0.867724531530616 1.0647901482897595 0.9072842642863846 1.1513319923418612 0.9612410782259013
          1.2747387946689628 1.3064162535485564 1.0051179919897337 0.6233221467829053 0.7601968123907781 1.2177914854701386
          1.2003815677331222 1.34721525631612 1.3484386319849087 1.6500432144799866 1.470362400895327 1.3287435439621016
          1.648679051744273 1.4919788096057072 1.3425077088134745 1.6240137304651487 1.4826717031046828 1.6397671007363293
          2.081237261109821 1.923551682822601 1.7710515259698034 1.812438800367202 1.9564591099424036 0.0909608734000537
          0.3006588361909741 0.10081353446600794 0.21172621871712657 0.8424207365036642 0.5501442323025998 0.7657633090494543
          0.6098153600054592 0.12385105728051049 0.11172209337645676 0.33322212958506736 0.26024207455968323 0.36941193057987304
          0.46577048347814265 0.57319042837142 0.6763600217873584 0.40981644434893116 2.2437888597123945 2.2964847172453546
          1.9830328743531263 2.1601802095613016 2.002565096291597 2.3842872219748488 2.343545060152337 2.21224809692026
          2.0142932148453934 1.2328597388421372 1.4115667978772832 1.6430976739963272 1.6270170441378282 1.8007675291587648
          1.6009028305147674 1.8244797546024876 2.017391629828446 1.1147179629057933 1.3082103599602828 1.374845646432925
          1.4520112567120786 1.036349441632183 1.1514256596698684 1.6139132468682018 1.7336821717283668 1.5145409347322183
          1.924100699271383 1.8685428892217346 2.1496379830016408 2.2462399027361863 1.708399885558782 2.0062078485556603
          1.7975489840452405 1.5999400574084928 2.380828884136613 2.3225383733359073 1.7972392244747224 2.1384301048063037
          1.429724130546251 1.1657904934869285 1.4693978290697218 1.1704131338411026 1.039528899281558 0.834983822154649
          0.9435452136944719 1.2815441412315527 0.9303670830550509 0.18942696074511753 0.16982351425708422 0.5063734009402151
          0.32111695435454235 0.39953074030732055 0.5646431282622059 0.4551633162472102 0.13740058476465128 0.15261930467273938
          0.9339688366513375 0.7509336498521809 0.886695475474704 0.6315755725627998 0.7092139289706315 0
          0.5129747068484364 0 0.4190878628400101 1.231001972270988 0.9117174448951034 0.35530569321109184
          1.0506990919106798 0.6565887663947356 0 0.23829668080981725 0 0.2695131817057041
          0.30747002580175614 0.8013487607222272 0.5047613899265477 0.9123919735312187 0 0
          0 0 0.6834499208314341 1.4833169565239852 1.8785425402204803 2.125228258093962
          2.3074313312722006 1.883626583106487 1.9776882565796636 1.7061851869788862 2.758638689904657 2.644416100898252
          1.1296298932786384 1.4904670574349816 1.4915156971377106 3.5728092755870606 2.8064977582259676 2.3320674963414105
          3.6354256432461773 3.0595639388246747 2.503556018380521 3.724624831130092 3.2327354948055023 3.6865126866523203
          1.179854932129369 1.5637716686993652 0.21198901840534887 0.709398655363981 1.773181617550111 0.9977124227202021
          2.721329762928007 0 2.4279194819689427 6.1648888033351925 2.5851922903869196 3.819243006007049
          4.088706838421974 2.696453406327052 4.220175928209026 4.210190903515465 2.225967110093756 2.226287635355536
          2.1808537731333644 1.6580655746777773 2.6695891570797246 2.474404272440016 3.1434433430620574 3.0047840056325126
          3.642800921283052 3.2545780482351057 4.40829899380155 3.3322274327936356 3.969346612653056 5.893640035179266
          4.840737223091719 5.02365578829745 3.3590018586913657 3.36962724979388 4.635296099180213 4.1732871390640875
          2.7332809065840746 2.599688705200093 5.185558154049979 4.229582866196644 3.2912610522764822 2.6551422194768524
          5.332600140659928 2.4685945072274498 2.461019837439239 1.9940168187944851 2.2311810478980125 2.4655730366184403
          2.209587785205077 2.4179810290052646 2.4438414852171984 2.010961326923714 1.9654689392304086 2.4230368898609167
          2.450808221952128 2.029934475791559 1.313823500203909 2.69997402803643 2.6310590298739913 2.9474690723442314
          2.902993803941276 2.410846742774783 2.532739809758681 2.6570575386484285 2.727329334063407 3.4652553785102698
          3.202808531143139 2.850985361206392 3.3902772446185905 3.0772055112952197 2.792194818362676 3.2224105233883105
          2.9268368882338374 3.3091210533780835 4.287406211956498 3.90030110957545 3.5461026526636528 3.734034397024513
          4.008349999961962 2.983611645006084 3.5334130600048397 3.010581414398019 3.2979906755363637 4.7097611770216785
          4.111169999909658 4.52437030506837 4.20829971765976 3.0331087853676504 3.027421705190901 3.5940875250249373
          3.3564172717594505 3.6465917974378304 3.8978662858391813 4.0331360878685665 4.299303998216645 3.6902173376879093
          4.97620901875948 5.1029442880819325 6.029971598810453 6.331981289377907 5.567270761020625 5.457067160640415
          4.461399964147833 4.7408127934263655 5.225253528156674 4.531882232275436 4.934994325385989 5.343213776508218
          4.651003559234235 5.106994135965089 4.595079249948313 2.919626702247172 2.97129777193914 3.7479039418238256
          3.3708517180259627 3.332896915952527 3.76047274759784 3.7242359122044038 3.0265158159357095 3.006385540945047
          4.845098127528538 4.383785281242889 4.201541169243099 3.761209769836593 4.135567108217098 2.732813350608727
          2.7215920673345444 2.524340288183579 2.656388576703064 5.674561867234938 5.260276931219452 4.699911400530451
          4.742419679700059 4.229322896378107 4.222328391030748 4.779679209475412 2.849483551663447 3.749439965434451
          6.4935985144141 1.5936183007573932 3.502275587076126 5.780041469406019 4.813625870565576 1.2162488028885328
          0.666593123241427 0.34195305838961787 0.9615473495590076 0.17231557400898373 0.5072455813957378 1.0945064472104702
          0.8184901673426004 0 1.7411012013984515 1.4681334082310622 2.033407824209659 1.3394709209544178
          1.6020763088370187 2.1860984351329207 1.8849705513417583 2.34269154946337 5.014733693680943 3.444497080165694
          5.613630542532127 4.162061961083117 2.843994258791296 5.321009277482398 6.7709637214334775 4.570425609249704
          3.787503272512762 2.582014006723805 3.1307516713618617 5.169563726319088 5.4690135293795805 5.755051810035219
          6.169234603551107 6.584702012219769
        </DataArray>
      </PointData>
      <CellData>
        <DataArray type="UInt8" Name="vtkGhostType" format="ascii" RangeMin="0" RangeMax="1">
          1 0 1 1 0 0
          0 0 1 1 0 1
          0 0 1 0 0 0
          0 0 0 0 0 0
          0 0 0 0 0 0
          0 0 1 1 0 1
          1 0 1 1 0 0
          0 0 1 0 0 0
          0 0 0 0 0 0
          0 0 1 0 0 0
          0 0 0 0 1 0
          0 0 0 0 0 0
          0 0 0 0 0 0
          0 0 0 0 0 0
          0 0 0 0 0 0
          0 0 0 0 0 0
          0 0 0 0 0 0
          0 0 0 0 0 0
          0 0 0 0 0 0
          0 0 0 0 0 0
          0 0 0 0 0 0
          0 0 1 1 0 1
          1 0 1 1 0 0
          0 0 1 0 0 0
          1 0 1 1 0 0
          0 0 1 1 0 1
          0 0 1 0 0 0
          0 0 1 0 0 0
          0 0 0 0 0 0
          0 0 0 0 0 0
          0 0 0 0 0 0
          0 0 0 0 0 0
          0 0 0 0 0 0
          0 0 0 0 0 0
          0 0 0 0 0 0
          0 0 0 0 0 0
          0 0 0 0 0 0
          0 0 0 0 0 0
          0 0 0 0 0 0
          0 0 0 0 0 0
          0 0 0 0 0 0
          0 0 0 0 0 0
          0 0 0 0 0 0
          0 0 0 0 0 0
          0 0 0 0 0 0
          0 0 0 0 0 0
          0 0 0 0 0 0
          0 0 0 0 0 0
          1 0 0 0 0 0
          0 0 0 0 0 0
          0 0 0 0 0 0
          0 0 0 0 0 0
          0 0 0 0 0 0
          0 0 0 0 0 0
          0 0 0 0 0 0
          0 0 0 0 0 0
          0 0 0 0 0 0
          0 0 0 0 0 0
          0 0 0 0 0 0
          0 0 0 0 0 0
          0 0 0 0 0 0
          0 0 0 0 0 0
          0 0 0 0 0 0
          0 0 0 0 0 0
          0 0 0 0 0 0
          0 0 0 0 0 0
          0 0 0 0 0 0
          0 0 0 0 0 0
          0 0 0 0 0 0
          0 0 0 0 0 0
          0 0 0 0 0 0
          0 0 0 0 0 0
          0 0 0 0 0 0
          0 0 0 0 0 0
          0 0 0 0 0 0
          0 0 0 0 0 0
          0 0 0 0 0 0
          0 0 0 0 0 0
          0 0 0 0 0 0
          0 0 0 0 0 0
          0 0 0 0 0 0
          0 0 0 0 0 0
          0 0 0 0 0 0
          0 0 0 0 0 0
          0 0 0 0 0 0
          0 0 1 1 0 1
          1 0 1 1 0 0
          0 0 1 0 0 0
          1 0 1 1 0 0
          0 0 1 1 0 1
          0 0 1 0 0 0
          0 0 1 0 0 0
          0 0 0 0 0 0
          0 0 0 1 0 0
          1 1 1 1 0 0
          0 0 0 0 0 0
          0 0 0 0 0 0
          0 0 0 0 0 0
          0 0 0 0 0 0
          0 0 0 0 0 0
          1 0 0 0 0 0
          0 0 0 0 0 0
          0 0 0 0 0 0
          0 0 0 0 0 0
          0 0 0 0 0 0
          0 0 0 0 0 0
          0 0 0 0 0 0
          0 0 0 0 0 0
          1 0 1 1 0 0
          0 0 1 1 0 1
          0 0 1 0 0 0
          0 0 0 0 0 0
          0 0 0 0 0 0
          0 0 0 0 0 0
          1 0 1 1 0 0
          0 0 0 0 0 0
          0 0 0 0 0 0
          0 0 1 0 0 0
          0 0 0 0
        </DataArray>
      </CellData>
      <Points>
        <DataArray type="Float32" Name="Points" NumberOfComponents="3" format="ascii" RangeMin="0.5" RangeMax="1.0476909133900132">
          0.625 0.125 0 0.75 0 0
          0.5625 0.1875 0 0.5625 0.0625 0
          0.625 0.25 0 0.75 0.125 0
          0.6875 0.0625 0 0.875 0 0
          0.625 0 0 0.9375 0.0625 0
          0.53125 0.09375 0 0.53125 0.15625 0
          0.59375 0.15625 0 0.5625 0.125 0
          0.53125 0.21875 0 0.59375 0.21875 0
          0.5625 0.25 0 0.59375 0.28125 0
          0.53125 0.03125 0 0.59375 0.09375 0
          0.59375 0.03125 0 0.625 0.0625 0
          0.625 0.3125 0 0.65625 0.28125 0
          0.625 0.1875 0 0.65625 0.21875 0
          0.6875 0.125 0 0.71875 0.15625 0
          0.8125 0.125 0 0.78125 0.15625 0
          0.78125 0.09375 0 0.71875 0.09375 0
          0.71875 0.03125 0 0.65625 0.03125 0
          0.65625 0.09375 0 0.75 0.0625 0
          0.9375 0 0 0.90625 0.03125 0
          0.8125 0 0 0.84375 0.03125 0
          0.5625 0 0 0.6875 0 0
          0.96875 0.03125 0 0.90625 0.09375 0
          0.875 0.0625 0 0.96875 0.09375 0
          0.9375 0.125 0 0.65625 0.15625 0
          0.78125 0.03125 0 0.515625 0.046875 0
          0.515625 0.078125 0 0.515625 0.203125 0
          0.515625 0.171875 0 0.546875 0.078125 0
          0.53125 0.0625 0 0.515625 0.109375 0
          0.546875 0.109375 0 0.53125 0.125 0
          0.515625 0.140625 0 0.546875 0.171875 0
          0.53125 0.1875 0 0.546875 0.140625 0
          0.609375 0.140625 0 0.59375 0.125 0
          0.578125 0.171875 0 0.578125 0.140625 0
          0.609375 0.171875 0 0.59375 0.1875 0
          0.5625 0.15625 0 0.5625 0.09375 0
          0.578125 0.109375 0 0.515625 0.234375 0
          0.546875 0.203125 0 0.53125 0.25 0
          0.546875 0.234375 0 0.609375 0.234375 0
          0.609375 0.203125 0 0.578125 0.203125 0
          0.59375 0.25 0 0.578125 0.234375 0
          0.5625 0.21875 0 0.5625 0.28125 0
          0.546875 0.265625 0 0.578125 0.265625 0
          0.609375 0.328125 0 0.59375 0.3125 0
          0.578125 0.296875 0 0.609375 0.265625 0
          0.609375 0.296875 0 0.515625 0.015625 0
          0.546875 0.046875 0 0.546875 0.015625 0
          0.5625 0.03125 0 0.609375 0.109375 0
          0.578125 0.078125 0 0.625 0.09375 0
          0.609375 0.078125 0 0.609375 0.015625 0
          0.578125 0.015625 0 0.578125 0.046875 0
          0.625 0.03125 0 0.609375 0.046875 0
          0.59375 0.0625 0 0.65625 0.0625 0
          0.640625 0.078125 0 0.640625 0.046875 0
          0.625 0.34375 0 0.640625 0.328125 0
          0.625 0.28125 0 0.640625 0.296875 0
          0.640625 0.265625 0 0.671875 0.296875 0
          0.65625 0.3125 0 0.671875 0.265625 0
          0.65625 0.25 0 0.625 0.15625 0
          0.640625 0.171875 0 0.625 0.21875 0
          0.640625 0.203125 0 0.671875 0.203125 0
          0.65625 0.1875 0 0.640625 0.234375 0
          0.671875 0.234375 0 0.65625 0.125 0
          0.671875 0.140625 0 0.71875 0.125 0
          0.703125 0.140625 0 0.671875 0.109375 0
          0.703125 0.109375 0 0.734375 0.140625 0
          0.703125 0.171875 0 0.6875 0.15625 0
          0.734375 0.171875 0 0.75 0.15625 0
          0.84375 0.125 0 0.828125 0.140625 0
          0.78125 0.125 0 0.796875 0.140625 0
          0.828125 0.109375 0 0.796875 0.109375 0
          0.796875 0.171875 0 0.8125 0.15625 0
          0.765625 0.140625 0 0.765625 0.171875 0
          0.765625 0.109375 0 0.796875 0.078125 0
          0.8125 0.09375 0 0.75 0.09375 0
          0.765625 0.078125 0 0.703125 0.078125 0
          0.6875 0.09375 0 0.734375 0.109375 0
          0.734375 0.078125 0 0.734375 0.015625 0
          0.703125 0.015625 0 0.703125 0.046875 0
          0.6875 0.03125 0 0.75 0.03125 0
          0.734375 0.046875 0 0.671875 0.046875 0
          0.640625 0.015625 0 0.671875 0.015625 0
          0.640625 0.109375 0 0.671875 0.078125 0
          0.78125 0.0625 0 0.765625 0.046875 0
          0.71875 0.0625 0 0.96875 0 0
          0.953125 0.015625 0 0.90625 0 0
          0.921875 0.015625 0 0.921875 0.046875 0
          0.9375 0.03125 0 0.890625 0.015625 0
          0.890625 0.046875 0 0.875 0.03125 0
          0.78125 0 0 0.796875 0.015625 0
          0.84375 0 0 0.828125 0.015625 0
          0.859375 0.015625 0 0.828125 0.046875 0
          0.8125 0.03125 0 0.859375 0.046875 0
          0.53125 0 0 0.59375 0 0
          0.71875 0 0 0.65625 0 0
          0.984375 0.015625 0 0.953125 0.046875 0
          0.984375 0.046875 0 0.96875 0.0625 0
          0.890625 0.109375 0 0.875 0.09375 0
          0.921875 0.078125 0 0.890625 0.078125 0
          0.90625 0.125 0 0.921875 0.109375 0
          0.84375 0.0625 0 0.859375 0.078125 0
          0.90625 0.0625 0 0.984375 0.109375 0
          0.984375 0.078125 0 0.953125 0.078125 0
          0.96875 0.125 0 0.953125 0.109375 0
          0.9375 0.09375 0 0.9375 0.15625 0
          0.921875 0.140625 0 0.953125 0.140625 0
          0.640625 0.140625 0 0.671875 0.171875 0
          0.765625 0.015625 0 0.796875 0.046875 0
          0.6875 0.1875 0 0.8125 0.0625 0
          0.75 0.25 0 1 0 0
          0.875 0.125 0 1 0.25 0
          0.6875 0.3125 0 0.8125 0.3125 0
          0.875 0.25 0 0.8125 0.1875 0
          0.9375 0.1875 0 1 0.125 0
          0.71875 0.21875 0 0.6875 0.25 0
          0.75 0.1875 0 0.84375 0.09375 0
          0.71875 0.28125 0 0.65625 0.34375 0
          0.75 0.3125 0 0.71875 0.34375 0
          0.78125 0.34375 0 0.78125 0.28125 0
          0.84375 0.34375 0 0.8125 0.25 0
          0.84375 0.28125 0 0.96875 0.28125 0
          0.90625 0.28125 0 0.9375 0.25 0
          0.875 0.1875 0 0.84375 0.21875 0
          0.875 0.3125 0 0.90625 0.21875 0
          0.78125 0.21875 0 0.84375 0.15625 0
          0.96875 0.21875 0 0.96875 0.15625 0
          0.90625 0.15625 0 1 0.0625 0
          1 0.1875 0 0.734375 0.234375 0
          0.71875 0.25 0 0.703125 0.203125 0
          0.703125 0.234375 0 0.75 0.21875 0
          0.734375 0.203125 0 0.6875 0.28125 0
          0.703125 0.265625 0 0.6875 0.21875 0
          0.71875 0.1875 0 0.78125 0.1875 0
          0.765625 0.203125 0 0.859375 0.109375 0
          0.828125 0.078125 0 0.734375 0.265625 0
          0.703125 0.296875 0 0.75 0.28125 0
          0.734375 0.296875 0 0.640625 0.359375 0
          0.671875 0.328125 0 0.671875 0.359375 0
          0.6875 0.34375 0 0.78125 0.3125 0
          0.765625 0.296875 0 0.71875 0.3125 0
          0.765625 0.328125 0 0.734375 0.328125 0
          0.703125 0.328125 0 0.734375 0.359375 0
          0.703125 0.359375 0 0.75 0.34375 0
          0.828125 0.359375 0 0.796875 0.359375 0
          0.765625 0.359375 0 0.796875 0.328125 0
          0.8125 0.34375 0 0.765625 0.265625 0
          0.796875 0.296875 0 0.78125 0.25 0
          0.796875 0.265625 0 0.859375 0.359375 0
          0.828125 0.328125 0 0.859375 0.328125 0
          0.84375 0.3125 0 0.8125 0.21875 0
          0.796875 0.234375 0 0.8125 0.28125 0
          0.828125 0.234375 0 0.828125 0.265625 0
          0.828125 0.296875 0 0.859375 0.265625 0
          0.859375 0.296875 0 0.84375 0.25 0
          0.890625 0.328125 0 0.90625 0.3125 0
          0.984375 0.265625 0 0.984375 0.296875 0
          0.96875 0.25 0 0.953125 0.265625 0
          0.890625 0.265625 0 0.890625 0.296875 0
          0.921875 0.296875 0 0.90625 0.25 0
          0.921875 0.265625 0 0.9375 0.28125 0
          0.9375 0.21875 0 0.953125 0.234375 0
          0.921875 0.234375 0 0.875 0.15625 0
          0.859375 0.171875 0 0.875 0.21875 0
          0.859375 0.203125 0 0.890625 0.171875 0
          0.890625 0.203125 0 0.859375 0.234375 0
          0.828125 0.203125 0 0.84375 0.1875 0
          0.875 0.34375 0 0.875 0.28125 0
          0.921875 0.203125 0 0.90625 0.1875 0
          0.890625 0.234375 0 0.765625 0.234375 0
          0.796875 0.203125 0 0.859375 0.140625 0
          0.828125 0.171875 0 0.984375 0.234375 0
          0.984375 0.203125 0 0.953125 0.203125 0
          0.96875 0.1875 0 0.953125 0.171875 0
          0.984375 0.140625 0 0.984375 0.171875 0
          0.890625 0.140625 0 0.921875 0.171875 0
          1 0.28125 0 1 0.03125 0
          1 0.09375 0 1 0.21875 0
          1 0.15625 0 0.5 0.25 0
          0.5 0.125 0 0.5 0.0625 0
          0.5 0.1875 0 0.5 0.03125 0
          0.5 0.09375 0 0.5 0.21875 0
          0.5 0.15625 0 0.5 0 0
          0.5625 0.3125 0 0.53125 0.28125 0
          0.59375 0.34375 0 0.515625 0.265625 0
          0.546875 0.296875 0 0.609375 0.359375 0
          0.578125 0.328125 0 0.625 0.375 0
          0.875 0.375 0 0.75 0.375 0
          0.9375 0.3125 0 0.8125 0.375 0
          0.6875 0.375 0 0.90625 0.34375 0
          1 0.3125 0 0.84375 0.375 0
          0.78125 0.375 0 0.65625 0.375 0
          0.71875 0.375 0 0.890625 0.359375 0
          0.921875 0.328125 0 0.953125 0.296875 0
          0.96875 0.3125 0 0.984375 0.328125 0
          <InformationKey name="L2_NORM_RANGE" location="vtkDataArray" length="2">
            <Value index="0">
              0.5
            </Value>
            <Value index="1">
              1.0476909134
            </Value>
          </InformationKey>
        </DataArray>
      </Points>
      <Cells>
        <DataArray type="Int64" Name="connectivity" format="ascii" RangeMin="0" RangeMax="385">
          361 89 357 18 49 89
          355 357 49 89 49 357
          3 53 90 10 54 53
          18 90 54 53 54 90
          354 358 55 355 50 358
          10 55 50 358 50 55
          18 54 49 10 50 54
          355 49 50 54 50 49
          0 62 93 12 63 62
          19 93 63 62 63 93
          2 68 64 13 65 68
          12 64 65 68 65 64
          3 94 69 19 70 94
          13 69 70 94 70 69
          12 65 63 13 70 65
          19 63 70 65 70 63
          353 359 71 356 51 359
          14 71 51 359 51 71
          354 58 360 11 52 58
          356 360 52 58 52 360
          2 72 59 14 60 72
          11 59 60 72 60 59
          356 52 51 11 60 52
          14 51 60 52 60 51
          3 69 53 13 56 69
          10 53 56 69 56 53
          2 59 68 11 61 59
          13 68 61 59 61 68
          354 55 58 10 57 55
          11 58 57 55 57 58
          13 61 56 11 57 61
          10 56 57 61 57 56
          369 106 271 22 107 106
          231 271 107 106 107 271
          4 110 108 23 109 110
          22 108 109 110 109 108
          220 272 111 231 112 272
          23 111 112 272 112 111
          22 109 107 23 112 109
          231 107 112 109 112 107
          0 210 115 47 116 210
          24 115 116 210 116 115
          214 119 211 25 120 119
          47 211 120 119 120 211
          4 117 121 24 118 117
          25 121 118 117 118 121
          47 120 116 25 118 120
          24 116 118 120 118 116
          220 111 259 23 113 111
          227 259 113 111 113 259
          4 121 110 25 114 121
          23 110 114 121 114 110
          214 261 119 227 122 261
          25 119 122 261 122 119
          23 114 113 25 122 114
          227 113 122 114 122 113
          0 115 62 24 66 115
          12 62 66 115 66 62
          4 75 117 15 76 75
          24 117 76 75 76 117
          2 64 77 12 67 64
          15 77 67 64 67 77
          24 76 66 15 67 76
          12 66 67 76 67 66
          369 367 106 364 84 367
          22 106 84 367 84 106
          362 86 368 17 85 86
          364 368 85 86 85 368
          4 108 87 22 88 108
          17 87 88 108 88 87
          364 85 84 17 88 85
          22 84 88 85 88 84
          353 71 365 14 73 71
          363 365 73 71 73 365
          2 80 72 16 74 80
          14 72 74 80 74 72
          362 366 81 363 82 366
          16 81 82 366 82 81
          14 74 73 16 82 74
          363 73 82 74 82 73
          4 87 75 17 78 87
          15 75 78 87 78 75
          362 81 86 16 83 81
          17 86 83 81 83 86
          2 77 80 15 79 77
          16 80 79 77 79 80
          17 83 78 16 79 83
          15 78 79 83 79 78
          217 188 167 42 168 188
          36 167 168 188 168 167
          9 171 189 37 172 171
          42 189 172 171 172 189
          7 169 173 36 170 169
          37 173 170 169 170 173
          42 172 168 37 170 172
          36 168 170 172 170 168
          218 265 192 229 193 265
          43 192 193 265 193 192
          215 198 266 44 199 198
          229 266 199 198 199 266
          9 194 200 43 195 194
          44 200 195 194 195 200
          229 199 193 44 195 199
          43 193 195 199 195 193
          1 176 212 38 177 176
          48 212 177 176 177 212
          7 180 178 39 179 180
          38 178 179 180 179 178
          215 213 181 48 182 213
          39 181 182 213 182 181
          38 179 177 39 182 179
          48 177 182 179 182 177
          9 200 171 44 174 200
          37 171 174 200 174 171
          215 181 198 39 183 181
          44 198 183 181 183 198
          7 173 180 37 175 173
          39 180 175 173 175 180
          44 183 174 39 175 183
          37 174 175 183 175 174
          0 123 210 26 124 123
          47 210 124 123 124 210
          5 129 125 27 126 129
          26 125 126 129 126 125
          214 211 130 47 131 211
          27 130 131 211 131 130
          26 126 124 27 131 126
          47 124 131 126 131 124
          218 337 134 247 135 337
          28 134 135 337 135 134
          223 140 338 29 141 140
          247 338 141 140 141 338
          5 136 142 28 137 136
          29 142 137 136 137 142
          247 141 135 29 137 141
          28 135 137 141 137 135
          214 130 262 27 132 130
          228 262 132 130 132 262
          5 142 129 29 133 142
          27 129 133 142 133 129
          223 263 140 228 143 263
          29 140 143 263 143 140
          27 133 132 29 143 133
          228 132 143 133 143 132
          361 184 89 40 91 184
          18 89 91 184 91 89
          8 97 185 20 98 97
          40 185 98 97 98 185
          3 90 99 18 92 90
          20 99 92 90 92 99
          40 98 91 20 92 98
          18 91 92 98 92 91
          1 153 186 32 154 153
          41 186 154 153 154 186
          6 159 155 33 156 159
          32 155 156 159 156 155
          8 187 160 41 161 187
          33 160 161 187 161 160
          32 156 154 33 161 156
          41 154 161 156 161 154
          0 93 162 19 95 93
          34 162 95 93 95 162
          3 102 94 21 96 102
          19 94 96 102 96 94
          6 163 103 34 104 163
          21 103 104 163 104 103
          19 96 95 21 104 96
          34 95 104 96 104 95
          8 160 97 33 100 160
          20 97 100 160 100 97
          6 103 159 21 105 103
          33 159 105 103 105 159
          3 99 102 20 101 99
          21 102 101 99 101 102
          33 105 100 21 101 105
          20 100 101 105 101 100
          218 134 265 28 138 134
          229 265 138 134 138 265
          5 144 136 30 139 144
          28 136 139 144 139 136
          215 266 145 229 146 266
          30 145 146 266 146 145
          28 139 138 30 146 139
          229 138 146 139 146 138
          0 162 123 34 127 162
          26 123 127 162 127 123
          6 149 163 31 150 149
          34 163 150 149 150 163
          5 125 151 26 128 125
          31 151 128 125 128 151
          34 150 127 31 128 150
          26 127 128 150 128 127
          1 212 153 48 157 212
          32 153 157 212 157 153
          215 164 213 35 165 164
          48 213 165 164 165 213
          6 155 166 32 158 155
          35 166 158 155 158 166
          48 165 157 35 158 165
          32 157 158 165 158 157
          5 151 144 31 147 151
          30 144 147 151 147 144
          6 166 149 35 152 166
          31 149 152 166 152 149
          215 145 164 30 148 145
          35 164 148 145 148 164
          31 152 147 35 148 152
          30 147 148 152 148 147
          217 349 188 251 190 349
          42 188 190 349 190 188
          225 201 350 45 202 201
          251 350 202 201 202 350
          9 189 203 42 191 189
          45 203 191 189 191 203
          251 202 190 45 191 202
          42 190 191 202 191 190
          218 192 346 43 196 192
          250 346 196 192 196 346
          9 206 194 46 197 206
          43 194 197 206 197 194
          224 347 207 250 208 347
          46 207 208 347 208 207
          43 197 196 46 208 197
          250 196 208 197 208 196
          225 344 201 249 204 344
          45 201 204 344 204 201
          224 207 343 46 209 207
          249 343 209 207 209 343
          9 203 206 45 205 203
          46 206 205 203 205 206
          249 209 204 46 205 209
          45 204 205 209 205 204
          216 267 253 230 254 267
          226 253 254 267 254 253
          220 259 268 227 260 259
          230 268 260 259 260 268
          214 255 261 226 256 255
          227 261 256 255 256 261
          230 260 254 227 256 260
          226 254 256 260 256 254
          216 253 335 226 257 253
          246 335 257 253 257 335
          214 262 255 228 258 262
          226 255 258 262 258 255
          223 336 263 246 264 336
          228 263 264 336 264 263
          226 258 257 228 264 258
          246 257 264 258 264 257
          216 289 267 235 269 289
          230 267 269 289 269 267
          221 275 290 232 276 275
          235 290 276 275 276 290
          220 268 277 230 270 268
          232 277 270 268 270 277
          235 276 269 232 270 276
          230 269 270 276 270 269
          370 377 293 373 284 377
          236 293 284 377 284 293
          371 286 378 234 285 286
          373 378 285 286 285 378
          221 294 287 236 288 294
          234 287 288 294 288 287
          373 285 284 234 288 285
          236 284 288 285 288 284
          369 271 379 231 273 271
          374 379 273 271 273 379
          220 280 272 233 274 280
          231 272 274 280 274 272
          371 380 281 374 282 380
          233 281 282 380 282 281
          231 274 273 233 282 274
          374 273 282 274 282 273
          221 287 275 234 278 287
          232 275 278 287 278 275
          371 281 286 233 283 281
          234 286 283 281 283 286
          220 277 280 232 279 277
          233 280 279 277 279 280
          234 283 278 233 279 283
          232 278 279 283 279 278
          219 348 308 376 309 348
          239 308 309 348 309 308
          239 384 383 376 385 309
          239 309 384 385 384 309
          216 335 289 246 291 335
          235 289 291 335 291 289
          223 297 336 237 298 297
          246 336 298 297 298 336
          221 290 299 235 292 290
          237 299 292 290 292 299
          246 298 291 237 292 298
          235 291 292 298 292 291
          218 321 337 242 322 321
          247 337 322 321 322 337
          222 327 323 243 324 327
          242 323 324 327 324 323
          223 338 328 247 329 338
          243 328 329 338 329 328
          242 324 322 243 329 324
          247 322 329 324 329 322
          370 293 330 236 295 293
          244 330 295 293 295 330
          221 302 294 238 296 302
          236 294 296 302 296 294
          222 331 303 244 304 331
          238 303 304 331 304 303
          236 296 295 238 304 296
          244 295 304 296 304 295
          223 328 297 243 300 328
          237 297 300 328 300 297
          222 303 327 238 305 303
          243 327 305 303 305 327