<?xml version="1.0"?>
<VTKFile type="UnstructuredGrid" version="0.1" byte_order="LittleEndian" header_type="UInt32" compressor="vtkZLibDataCompressor">
  <UnstructuredGrid>
    <Piece NumberOfPoints="378" NumberOfCells="695">
      <PointData>
        <DataArray type="Float64" Name="Temperature" format="ascii" RangeMin="0" RangeMax="7.000596441741481">
          0 1.0053806446416291 0 2.4279194229741474 6.164888720752508 0.6369855747032698
          1.7731815120570862 1.5307271844965686 1.8225036560677992 0 0 0.997712388192089
          2.6964533205207486 1.756140711244431 4.220175853142707 4.0887067495107665 4.210190849239338 5.613630460709776
          1.7950510662190207 1.4908359854673285 0.8495249917170721 0.5164729616558004 0.35768880071248765 0.28887195966886264
          1.04970218772089 0.7916507025963223 2.2259670031129386 2.1808536783014003 1.3659729103950533 1.6810488247437647
          2.226287518626194 1.8175359402404156 1.9126062040009948 2.080798505440728 1.2371211699705507 1.3088679123325029
          1.4460432119358841 2.123712269259785 2.189942103615939 1.4854039289118683 0 0.2346738474890805
          0 0 0.7641457100098441 0 0.5728030390284267 0.44793703347342206
          1.6580655267067073 1.2900578663358846 2.733280809675666 2.5996886322725645 3.332227337010277 3.3696271612659445
          1.1396930867212747 2.159052244845156 2.9428566450375158 3.155929069727887 3.2912609841817524 5.185558074249972
          4.229582800644193 4.173287056124829 5.023655703730724 4.6352960130921455 3.9693465204263414 3.3590017795927545
          4.840737136221352 2.6551421906962664 5.332600067286834 6.770963641545367 6.397524854375277 5.8936399515063735
          5.321009200244487 1.11314746300556 0.6907662823678737 2.4744041631312563 1.8124386648592292 1.9564589770268122
          1.6486789130576869 1.6397669570111921 1.3425075678042657 1.3484384835261471 1.4919786686542589 0.9339687585663403
          0.7657632392154393 0.7509335952533995 0.6763599639818291 1.0363493678167188 0.9435451510484869 0.5731903828924332
          0.46577043326636236 0.6098152992254883 0.36941189333335006 0.4098164088325356 0.18942695060707287 0.16982350353308887
          0.506373369228623 0.3211169324171678 0.3995307206908007 0.5646430982311663 0.1374005727314023 0.15261929325754278
          0.45516328260396993 0.26024205018215923 1.281544075206687 1.1514255898445818 0.8349837704770852 1.1704130776797201
          0.9303670341052055 0.709213888237205 0.8866954389711333 0.6315755439710725 1.0395288528278452 2.468594400435044
          2.465572934552118 1.9940167119311287 2.209587683556436 2.4610197266135634 2.2311809352791436 2.4230367997011415
          2.4508081251291842 1.9654688390778003 2.138430016696384 1.9241006065735966 1.1798548367069277 1.3082102697070261
          1.563771565347165 1.514540840159837 1.411566688569094 1.6009027186677214 1.7336820738047387 1.6139131660828419
          1.4520111712638784 1.8685428043638317 2.0109612136026973 2.4179809125954606 2.44384137092802 2.0173915108460903
          2.2122479762015237 1.8244796286227456 1.6270169243475183 1.8007674158953122 2.01429309111906 2.149637921487511
          2.246239833453019 1.7083998176159794 2.0062077757862755 1.7975489275337886 1.5999399979808977 1.7972391477353855
          2.380828800294867 2.3225382968383967 1.1147178781752105 1.374845570700962 1.1657904495599078 1.4693977786223722
          1.4297240677113607 1.2328596332308697 1.6430975472369704 1.2747386793258264 1.470362274251102 2.296484599005616
          1.9830327439421163 2.1601800846030295 2.3842871038869267 2.343544941564505 2.0025649685222704 1.3287434104751557
          1.3064161289029361 1.6500430810169548 0 0.10081352063732393 0 0.1117220801349913
          0.33322209054212876 0.211726191929287 0.12385104469585145 0 0 0
          0.5129746993909153 0 0.4190878552133676 0.35530568534345247 1.231001949671895 0.9117174299063423
          0.6565887504551121 1.0506990685606632 0 0.2382966716832992 0 0.2695131730644893
          0.8013487351328807 0.5047613722782481 0.3074700175196204 0.9123919491467138 0.21198900871360912 0.7093986282757079
          2.029934421863631 1.8836265372027805 1.3138234585498578 1.4904670176295522 1.4915156668880056 1.7061851487566093
          1.1296298603462238 2.7328132486800043 2.7215919754341384 3.0105813139318047 3.0274216082093353 2.5243402218496036
          2.6563884970245835 2.971297695513053 3.006385458759438 3.5940874290603695 3.2979905767451796 3.033108692945443
          3.646591702769839 3.356417179066762 3.026515728079413 3.724235823016449 3.370851633651151 3.690217245401027
          0.6834499134498241 1.4833169344054153 1.8785425183889481 2.125228229086032 2.3074312793113307 1.9776882195851746
          2.7586386327627324 2.64441605047751 2.3320674600652422 3.572809226966304 2.8064977223785887 3.0595638894899246
          3.635425588274997 3.7246247644538197 3.2327354323900677 2.5035559750057477 3.6865126253040517 2.849483487622026
          3.749439893437399 3.332896842027515 3.7612096929971734 5.674561785672675 5.260276854247105 4.6999113226246125
          4.742419605552443 5.5672706776394785 5.106994053205481 4.2223283308873825 4.779679139701561 4.229322825433765
          4.13556702179366 3.760472665929304 4.2015410898250325 4.531882145638321 4.595079165701306 4.651003477902366
          5.343213691429732 5.457067075802737 4.934994238963389 4.84509804746955 4.524370220255733 4.383785191956143
          4.299303908376722 4.976208936271238 4.740812706214902 4.0331359965663465 3.897866192742458 4.208299628491152
          2.9196266317465582 3.7479038561558786 5.225253443040516 5.102944203946511 4.461399875416604 1.5936182860136903
          3.502275544638048 5.78004138955779 4.813625805606968 6.493598431467733 6.331981207103126 6.58470193536261
          6.0047149426225275 6.169234523146095 6.208947450611833 6.0299715152073405 5.755051726662295 5.169563652121329
          5.496925455957936 5.469013449263789 5.668762482071595 5.837981651404452 1.0647900478882637 0.9072841704976744
          1.151331870987237 0.9612409725709118 0.8424206541549834 0.5501441687144838 0.7601967261265402 2.410846636273052
          2.532739698362229 2.657057437634134 2.7273292304170584 2.926836792198055 1.1801577362185016 0.42022960853630453
          2.7213296573418884 2.585192178337768 3.819242913335401 0.818926101220751 2.6695890468505636 3.143443241908277
          3.00478390719956 3.642800831447354 3.2545779478537775 4.408298911312657 0.49640509847798636 0.6860540045285032
          1.0396859552157045 0.8677244204070494 1.2003814273115045 0.6233220697285622 1.0051178750371508 0.3006587952439038
          2.699973919407066 2.631058918115371 2.9474689672611976 2.902993697701803 2.8509852550972923 3.4652552816864373
          3.2028084293867334 3.0772054109019873 3.3902771483925833 3.2224104317765634 2.792194712671633 3.3091209592636175
          4.287406131918068 3.900301025991808 3.7340343049824223 4.00834991398847 3.546102565172603 2.983611541299187
          3.5334129627340034 4.709761099979893 4.111169911924009 0 0.5624289448381574 0.9073148033728959
          1.2127070000873712 0.19103960950128385 0.3791514902332584 0.7390506221172872 1.0656651266165371 0.0909608590091889
          2.3426914509302716 6.018645339263183 5.632239249823245 2.8439941679213074 2.081237136813767 1.9235515503455427
          1.3472151031252408 1.4826715527912493 1.7710513862730122 1.6240135849737756 2.243788743706529 6.581149675566218
          6.3699511558006225 7.000596441741481 6.791246807666371 5.826431987489848 5.322455420174554 2.5820139112331737
          3.1307515845985483 5.014733624185761 3.4444969973805017 4.162061885513176 4.570425536585689 3.7875031935168244
        </DataArray>
      </PointData>
      <CellData>
        <DataArray type="UInt8" Name="vtkGhostType" format="ascii" RangeMin="0" RangeMax="1">
          1 1 0 1 0 0
          1 0 0 0 0 0
          1 0 0 0 0 0
          0 0 0 0 0 0
          0 0 0 0 0 0
          0 0 0 0 0 0
          0 0 0 0 0 0
          0 0 0 0 0 0
          0 0 0 0 0 0
          0 0 0 0 0 0
          0 0 0 0 0 0
          0 0 0 0 0 0
          0 0 0 0 0 0
          0 0 0 0 0 0
          0 0 0 0 0 0
          0 0 0 0 0 0
          0 0 0 0 0 0
          0 0 0 0 0 0
          0 0 0 0 0 0
          0 0 0 0 0 0
          0 0 0 0 0 0
          0 0 0 0 0 0
          0 0 0 0 0 0
          0 0 0 0 0 0
          0 0 0 0 0 0
          0 0 0 0 0 0
          0 0 0 0 0 0
          0 0 0 0 0 0
          0 0 0 0 0 0
          0 0 0 0 0 0
          0 0 0 0 0 0
          0 0 0 0 0 0
          0 0 0 0 0 0
          0 0 0 0 0 0
          0 0 0 0 0 0
          0 0 0 0 0 0
          0 0 0 0 0 0
          0 0 0 0 0 0
          0 0 0 0 0 0
          0 0 0 0 0 0
          0 0 0 0 0 0
          0 0 0 0 0 0
          0 0 0 0 0 0
          0 0 0 0 0 0
          0 0 0 0 0 0
          0 0 0 0 0 0
          0 0 0 0 0 0
          0 0 0 0 0 0
          1 0 1 1 0 0
          0 0 0 0 0 0
          0 0 0 0 0 0
          0 0 0 0 0 0
          0 0 0 0 0 0
          0 0 0 0 0 0
          0 0 0 0 0 0
          0 0 0 0 0 0
          1 0 0 0 0 1
          1 1 1 0 0 0
          0 0 0 0 0 0
          0 0 0 0 0 0
          0 1 0 1 0 0
          1 1 1 0 0 0
          0 0 0 0 0 1
          1 1 0 0 0 0
          0 0 0 0 0 0
          0 0 0 0 0 0
          0 0 0 0 0 0
          0 0 0 0 0 0
          0 0 0 0 0 0
          0 0 0 0 0 0
          0 0 0 0 0 0
          0 0 0 0 0 0
          0 0 0 0 0 0
          0 0 0 0 0 0
          0 0 0 0 0 0
          0 0 0 0 0 0
          0 0 0 0 0 0
          0 0 1 0 0 0
          0 0 0 0 0 0
          0 0 0 0 0 0
          0 0 0 0 0 0
          0 0 0 0 0 0
          0 0 0 0 0 0
          0 0 0 0 0 0
          0 0 0 0 0 0
          0 0 0 0 0 0
          0 0 0 0 1 1
          1 0 0 0 0 1
          1 0 1 0 0 1
          0 1 1 0 1 1
          0 1 0 0 1 1
          1 0 0 0 0 0
          0 0 0 0 0 0
          0 0 0 0 0 1
          0 0 0 0 0 0
          0 0 0 0 0 0
          0 0 0 0 0 0
          0 0 0 0 0 0
          0 0 0 0 0 0
          0 0 0 0 0 0
          0 0 0 0 0 0
          0 0 0 0 0 1
          1 0 1 1 0 1
          1 0 0 0 0 1
          0 0 0 0 1 1
          1 0 1 1 1 0
          0 1 0 0 1 0
          0 1 0 1 1 0
          0 0 0 0 0 0
          0 0 0 0 0 0
          0 0 0 1 0 1
          1 0 0 0 0 1
          1 0 1 0 0 1
          0 0 0 0 0 1
          0 0 0 0 0 0
          0 0 0 0 0
        </DataArray>
      </CellData>
      <Points>
        <DataArray type="Float32" Name="Points" NumberOfComponents="3" format="ascii" RangeMin="0.8838834764831844" RangeMax="1.4142135623730951">
          1 1 0 0.625 0.875 0
          0.75 1 0 0.875 0.875 0
          1 0.75 0 0.6875 0.9375 0
          0.6875 0.8125 0 0.75 0.875 0
          0.625 0.75 0 0.625 1 0
          0.875 1 0 0.8125 0.9375 0
          0.8125 0.8125 0 0.9375 0.9375 0
          0.9375 0.8125 0 0.875 0.75 0
          1 0.875 0 0.9375 0.6875 0
          0.59375 0.71875 0 0.5625 0.75 0
          0.65625 0.90625 0 0.625 0.9375 0
          0.71875 0.96875 0 0.65625 0.96875 0
          0.71875 0.90625 0 0.75 0.9375 0
          0.71875 0.78125 0 0.75 0.8125 0
          0.65625 0.84375 0 0.71875 0.84375 0
          0.6875 0.75 0 0.65625 0.78125 0
          0.8125 0.875 0 0.78125 0.84375 0
          0.6875 0.875 0 0.78125 0.90625 0
          0.625 0.8125 0 0.625 0.6875 0
          0.65625 0.71875 0 0.59375 0.78125 0
          0.5625 1 0 0.59375 0.96875 0
          0.6875 1 0 0.9375 1 0
          0.90625 0.96875 0 0.8125 1 0
          0.84375 0.96875 0 0.78125 0.96875 0
          0.84375 0.90625 0 0.875 0.9375 0
          0.78125 0.78125 0 0.84375 0.84375 0
          0.8125 0.75 0 0.84375 0.78125 0
          0.96875 0.96875 0 0.90625 0.90625 0
          0.96875 0.90625 0 0.9375 0.875 0
          0.90625 0.84375 0 0.96875 0.78125 0
          0.96875 0.84375 0 0.90625 0.78125 0
          0.9375 0.75 0 0.875 0.6875 0
          0.84375 0.71875 0 0.875 0.8125 0
          0.90625 0.71875 0 1 0.9375 0
          1 0.8125 0 1 0.6875 0
          0.96875 0.65625 0 0.96875 0.71875 0
          0.90625 0.65625 0 0.59375 0.84375 0
          0.59375 0.90625 0 0.65625 0.65625 0
          0.609375 0.734375 0 0.609375 0.703125 0
          0.59375 0.75 0 0.578125 0.734375 0
          0.5625 0.78125 0 0.546875 0.765625 0
          0.578125 0.765625 0 0.640625 0.890625 0
          0.625 0.90625 0 0.671875 0.921875 0
          0.640625 0.921875 0 0.671875 0.890625 0
          0.6875 0.90625 0 0.65625 0.9375 0
          0.59375 0.9375 0 0.609375 0.921875 0
          0.609375 0.953125 0 0.640625 0.953125 0
          0.734375 0.984375 0 0.703125 0.984375 0
          0.703125 0.953125 0 0.6875 0.96875 0
          0.75 0.96875 0 0.734375 0.953125 0
          0.640625 0.984375 0 0.671875 0.984375 0
          0.671875 0.953125 0 0.625 0.96875 0
          0.734375 0.890625 0 0.703125 0.890625 0
          0.703125 0.921875 0 0.75 0.90625 0
          0.734375 0.921875 0 0.71875 0.9375 0
          0.78125 0.9375 0 0.765625 0.953125 0
          0.765625 0.921875 0 0.734375 0.765625 0
          0.75 0.78125 0 0.703125 0.796875 0
          0.734375 0.796875 0 0.71875 0.75 0
          0.703125 0.765625 0 0.78125 0.8125 0
          0.765625 0.796875 0 0.71875 0.8125 0
          0.765625 0.828125 0 0.734375 0.828125 0
          0.640625 0.859375 0 0.671875 0.859375 0
          0.671875 0.828125 0 0.6875 0.84375 0
          0.640625 0.828125 0 0.65625 0.8125 0
          0.703125 0.828125 0 0.734375 0.859375 0
          0.703125 0.859375 0 0.75 0.84375 0
          0.6875 0.78125 0 0.6875 0.71875 0
          0.703125 0.734375 0 0.671875 0.765625 0
          0.671875 0.734375 0 0.640625 0.765625 0
          0.640625 0.796875 0 0.671875 0.796875 0
          0.65625 0.75 0 0.84375 0.875 0
          0.828125 0.859375 0 0.78125 0.875 0
          0.796875 0.859375 0 0.828125 0.890625 0
          0.796875 0.890625 0 0.765625 0.859375 0
          0.796875 0.828125 0 0.8125 0.84375 0
          0.65625 0.875 0 0.71875 0.875 0
          0.796875 0.921875 0 0.8125 0.90625 0
          0.765625 0.890625 0 0.625 0.84375 0
          0.625 0.78125 0 0.609375 0.828125 0
          0.609375 0.796875 0 0.640625 0.671875 0
          0.625 0.71875 0 0.640625 0.703125 0
          0.671875 0.703125 0 0.65625 0.6875 0
          0.640625 0.734375 0 0.578125 0.796875 0
          0.59375 0.8125 0 0.609375 0.765625 0
          0.53125 1 0 0.546875 0.984375 0
          0.59375 1 0 0.578125 0.984375 0
          0.578125 0.953125 0 0.5625 0.96875 0
          0.609375 0.984375 0 0.71875 1 0
          0.65625 1 0 0.96875 1 0
          0.953125 0.984375 0 0.90625 1 0
          0.921875 0.984375 0 0.890625 0.984375 0
          0.921875 0.953125 0 0.9375 0.96875 0
          0.875 0.96875 0 0.890625 0.953125 0
          0.78125 1 0 0.796875 0.984375 0
          0.84375 1 0 0.828125 0.984375 0
          0.828125 0.953125 0 0.8125 0.96875 0
          0.859375 0.984375 0 0.859375 0.953125 0
          0.765625 0.984375 0 0.796875 0.953125 0
          0.859375 0.890625 0 0.875 0.90625 0
          0.828125 0.921875 0 0.859375 0.921875 0
          0.90625 0.9375 0 0.890625 0.921875 0
          0.84375 0.9375 0 0.765625 0.765625 0
          0.796875 0.796875 0 0.78125 0.75 0
          0.796875 0.765625 0 0.859375 0.859375 0
          0.828125 0.828125 0 0.859375 0.828125 0
          0.84375 0.8125 0 0.8125 0.71875 0
          0.796875 0.734375 0 0.8125 0.78125 0
          0.828125 0.734375 0 0.828125 0.765625 0
          0.828125 0.796875 0 0.859375 0.765625 0
          0.859375 0.796875 0 0.84375 0.75 0
          0.984375 0.984375 0 0.953125 0.953125 0
          0.984375 0.953125 0 0.96875 0.9375 0
          0.890625 0.890625 0 0.921875 0.921875 0
          0.90625 0.875 0 0.921875 0.890625 0
          0.953125 0.921875 0 0.984375 0.890625 0
          0.984375 0.921875 0 0.953125 0.890625 0
          0.96875 0.875 0 0.9375 0.84375 0
          0.921875 0.859375 0 0.9375 0.90625 0
          0.953125 0.859375 0 0.890625 0.859375 0
          0.921875 0.828125 0 0.890625 0.828125 0
          0.90625 0.8125 0 0.984375 0.765625 0
          0.984375 0.796875 0 0.953125 0.796875 0
          0.96875 0.8125 0 0.96875 0.75 0
          0.953125 0.765625 0 0.984375 0.859375 0
          0.984375 0.828125 0 0.953125 0.828125 0
          0.890625 0.765625 0 0.890625 0.796875 0
          0.921875 0.796875 0 0.90625 0.75 0
          0.921875 0.765625 0 0.9375 0.78125 0
          0.9375 0.71875 0 0.953125 0.734375 0
          0.921875 0.734375 0 0.875 0.65625 0
          0.859375 0.671875 0 0.875 0.71875 0
          0.859375 0.703125 0 0.890625 0.671875 0
          0.890625 0.703125 0 0.859375 0.734375 0
          0.828125 0.703125 0 0.84375 0.6875 0
          0.875 0.84375 0 0.875 0.78125 0
          0.921875 0.703125 0 0.90625 0.6875 0
          0.890625 0.734375 0 1 0.96875 0
          1 0.90625 0 1 0.78125 0
          1 0.84375 0 1 0.71875 0
          0.984375 0.703125 0 0.984375 0.671875 0
          0.953125 0.671875 0 0.96875 0.6875 0
          0.953125 0.640625 0 0.984375 0.734375 0
          0.953125 0.703125 0 0.890625 0.640625 0
          0.90625 0.625 0 0.921875 0.671875 0
          0.921875 0.640625 0 0.9375 0.65625 0
          0.609375 0.859375 0 0.59375 0.875 0
          0.578125 0.828125 0 0.578125 0.859375 0
          0.609375 0.890625 0 0.578125 0.921875 0
          0.578125 0.890625 0 0.640625 0.640625 0
          0.671875 0.671875 0 0.671875 0.640625 0
          0.6875 0.65625 0 0.703125 0.640625 0
          0.5625 0.8125 0 0.5625 0.9375 0
          0.75 0.75 0 0.6875 0.6875 0
          0.8125 0.6875 0 0.5625 0.875 0
          0.71875 0.71875 0 0.75 0.6875 0
          0.71875 0.65625 0 0.78125 0.65625 0
          0.78125 0.71875 0 0.84375 0.65625 0
          0.546875 0.921875 0 0.546875 0.890625 0
          0.546875 0.828125 0 0.546875 0.859375 0
          0.546875 0.796875 0 0.5625 0.90625 0
          0.5625 0.84375 0 0.546875 0.953125 0
          0.734375 0.734375 0 0.703125 0.703125 0
          0.75 0.71875 0 0.734375 0.703125 0
          0.71875 0.6875 0 0.78125 0.6875 0
          0.765625 0.703125 0 0.734375 0.671875 0
          0.765625 0.671875 0 0.734375 0.640625 0
          0.703125 0.671875 0 0.75 0.65625 0
          0.828125 0.640625 0 0.796875 0.640625 0
          0.796875 0.671875 0 0.8125 0.65625 0
          0.765625 0.640625 0 0.765625 0.734375 0
          0.796875 0.703125 0 0.859375 0.640625 0
          0.828125 0.671875 0 0.5 1 0
          0.53125 0.90625 0 0.53125 0.84375 0
          0.53125 0.78125 0 0.53125 0.96875 0
          0.53125 0.9375 0 0.53125 0.875 0
          0.53125 0.8125 0 0.515625 0.984375 0
          0.625 0.625 0 0.9375 0.625 0
          0.90625 0.59375 0 0.6875 0.625 0
          0.609375 0.671875 0 0.59375 0.6875 0
          0.53125 0.75 0 0.546875 0.734375 0
          0.578125 0.703125 0 0.5625 0.71875 0
          0.625 0.65625 0 0.96875 0.625 0
          0.953125 0.609375 0 1 0.65625 0
          0.984375 0.640625 0 0.921875 0.609375 0
          0.890625 0.609375 0 0.65625 0.625 0
          0.71875 0.625 0 0.875 0.625 0
          0.75 0.625 0 0.8125 0.625 0
          0.84375 0.625 0 0.78125 0.625 0
          <InformationKey name="L2_NORM_RANGE" location="vtkDataArray" length="2">
            <Value index="0">
              0.88388347648
            </Value>
            <Value index="1">
              1.4142135624
            </Value>
          </InformationKey>
        </DataArray>
      </Points>
      <Cells>
        <DataArray type="Int64" Name="connectivity" format="ascii" RangeMin="0" RangeMax="377">
          345 353 170 349 171 353
          40 170 171 353 171 170
          305 174 323 41 175 174
          349 323 175 174 175 323
          9 172 176 40 173 172
          41 176 173 172 173 176
          349 175 171 41 173 175
          40 171 173 175 173 171
          1 83 296 20 84 83
          74 296 84 83 84 296
          5 89 85 21 86 89
          20 85 86 89 86 85
          305 297 90 74 91 297
          21 90 91 297 91 90
          20 86 84 21 91 86
          74 84 91 86 91 84
          2 177 94 42 95 177
          22 94 95 177 95 94
          9 100 178 23 101 100
          42 178 101 100 101 178
          5 96 102 22 97 96
          23 102 97 96 97 102
          42 101 95 23 97 101
          22 95 97 101 97 95
          305 90 174 21 92 90
          41 174 92 90 92 174
          5 102 89 23 93 102
          21 89 93 102 93 89
          9 176 100 41 103 176
          23 100 103 176 103 100
          21 93 92 23 103 93
          41 92 103 93 103 92
          306 205 113 50 114 205
          26 113 114 205 114 113
          12 119 206 27 120 119
          50 206 120 119 120 206
          6 115 121 26 116 115
          27 121 116 115 116 121
          50 120 114 27 116 120
          26 114 116 120 116 114
          3 143 209 32 144 143
          51 209 144 143 144 209
          7 149 145 33 146 149
          32 145 146 149 146 145
          12 210 150 51 151 210
          33 150 151 210 151 150
          32 146 144 33 151 146
          51 144 151 146 151 144
          1 124 152 28 125 124
          34 152 125 124 125 152
          6 130 126 29 127 130
          28 126 127 130 127 126
          7 153 131 34 132 153
          29 131 132 153 132 131
          28 127 125 29 132 127
          34 125 132 127 132 125
          12 150 119 33 122 150
          27 119 122 150 122 119
          7 131 149 29 133 131
          33 149 133 131 133 149
          6 121 130 27 123 121
          29 130 123 121 123 130
          33 133 122 29 123 133
          27 122 123 133 123 122
          0 179 222 43 180 179
          54 222 180 179 180 222
          10 183 181 44 182 183
          43 181 182 183 182 181
          13 223 184 54 185 223
          44 184 185 223 185 184
          43 182 180 44 185 182
          54 180 185 182 185 180
          2 196 188 47 189 196
          45 188 189 196 189 188
          11 192 197 46 193 192
          47 197 193 192 193 197
          10 190 194 45 191 190
          46 194 191 190 191 194
          47 193 189 46 191 193
          45 189 191 193 191 189
          3 226 198 55 199 226
          48 198 199 226 199 198
          13 202 227 49 203 202
          55 227 203 202 203 227
          11 200 204 48 201 200
          49 204 201 200 201 204
          55 203 199 49 201 203
          48 199 201 203 201 199
          10 194 183 46 186 194
          44 183 186 194 186 183
          11 204 192 49 195 204
          46 192 195 204 195 192
          13 184 202 44 187 184
          49 202 187 184 187 202
          46 195 186 49 187 195
          44 186 187 195 187 186
          1 152 83 34 87 152
          20 83 87 152 87 83
          7 104 153 24 105 104
          34 153 105 104 105 153
          5 85 106 20 88 85
          24 106 88 85 88 106
          34 105 87 24 88 105
          20 87 88 105 88 87
          3 198 143 48 147 198
          32 143 147 198 147 143
          11 154 200 35 155 154
          48 200 155 154 155 200
          7 145 156 32 148 145
          35 156 148 145 148 156
          48 155 147 35 148 155
          32 147 148 155 148 147
          2 94 196 22 98 94
          47 196 98 94 98 196
          5 109 96 25 99 109
          22 96 99 109 99 96
          11 197 110 47 111 197
          25 110 111 197 111 110
          22 99 98 25 111 99
          47 98 111 99 111 98
          7 156 104 35 107 156
          24 104 107 156 107 104
          11 110 154 25 112 110
          35 154 112 110 112 154
          5 106 109 24 108 106
          25 109 108 106 108 109
          35 112 107 25 108 112
          24 107 108 112 108 107
          306 113 324 26 117 113
          310 324 117 113 117 324
          6 134 115 30 118 134
          26 115 118 134 118 115
          307 325 135 310 136 325
          30 135 136 325 136 135
          26 118 117 30 136 118
          310 117 136 118 136 117
          1 157 124 36 128 157
          28 124 128 157 128 124
          8 139 158 31 140 139
          36 158 140 139 140 158
          6 126 141 28 129 126
          31 141 129 126 129 141
          36 140 128 31 129 140
          28 128 129 140 129 128
          354 299 364 75 161 299
          37 364 161 299 161 364
          307 164 300 38 165 164
          75 300 165 164 165 300
          8 162 166 37 163 162
          38 166 163 162 163 166
          75 165 161 38 163 165
          37 161 163 165 163 161
          6 141 134 31 137 141
          30 134 137 141 137 134
          8 166 139 38 142 166
          31 139 142 166 142 139
          307 135 164 30 138 135
          38 164 138 135 138 164
          31 142 137 38 138 142
          30 137 138 142 138 137
          1 296 292 74 293 296
          73 292 293 296 293 292
          305 321 297 309 298 321
          74 297 298 321 298 297
          304 294 322 73 295 294
          309 322 295 294 295 322
          74 298 293 309 295 298
          73 293 295 298 295 293
          37 358 364 8 76 162
          18 77 76 37 162 77
          76 77 162 18 362 359
          37 77 358 18 359 77
          77 359 358 1 292 157
          73 159 292 36 157 159
          292 159 157 304 167 294
          39 168 167 73 294 168
          167 168 294 8 158 169
          36 160 158 39 169 160
          158 160 169 73 168 159
          39 160 168 36 159 160
          168 160 159 19 361 363
          304 320 80 348 81 320
          19 80 81 320 81 80
          19 81 361 348 360 81
          361 81 360 8 169 76
          39 78 169 18 76 78
          169 78 76 304 80 167
          19 82 80 39 167 82
          80 82 167 18 79 362
          19 363 79 362 79 363
          39 82 78 19 79 82
          18 78 79 82 79 78
          0 222 275 54 224 222
          67 275 224 222 224 275
          13 230 223 56 225 230
          54 223 225 230 225 223
          16 276 231 67 232 276
          56 231 232 276 232 231
          54 225 224 56 232 225
          67 224 232 225 232 224
          3 239 226 58 228 239
          55 226 228 239 228 226
          14 235 240 57 236 235
          58 240 236 235 236 240
          13 227 237 55 229 227
          57 237 229 227 229 237
          58 236 228 57 229 236
          55 228 229 236 229 228
          4 277 243 68 244 277
          59 243 244 277 244 243
          16 249 278 60 250 249
          68 278 250 249 250 278
          14 245 251 59 246 245
          60 251 246 245 246 251
          68 250 244 60 246 250
          59 244 246 250 246 244
          13 237 230 57 233 237
          56 230 233 237 233 230
          14 251 235 60 238 251
          57 235 238 251 238 235
          16 231 249 56 234 231
          60 249 234 231 234 249
          57 238 233 60 234 238
          56 233 234 238 234 233
          306 341 205 314 207 341
          50 205 207 341 207 205
          308 213 342 52 214 213
          314 342 214 213 214 342
          12 206 215 50 208 206
          52 215 208 206 208 215
          314 214 207 52 208 214
          50 207 208 214 208 207
          373 261 343 63 262 261
          315 343 262 261 262 343
          15 267 263 64 264 267
          63 263 264 267 264 263
          308 344 268 315 269 344
          64 268 269 344 269 268
          63 264 262 64 269 264
          315 262 269 264 269 262
          3 209 270 51 211 209
          65 270 211 209 211 270
          12 218 210 53 212 218
          51 210 212 218 212 210
          15 271 219 65 220 271
          53 219 220 271 220 219
          51 212 211 53 220 212
          65 211 220 212 220 211
          308 268 213 64 216 268
          52 213 216 268 216 213
          15 219 267 53 221 219
          64 267 221 219 221 267
          12 215 218 52 217 215
          53 218 217 215 217 218
          64 221 216 53 217 221
          52 216 217 221 217 216
          4 285 279 71 280 285
          69 279 280 285 280 279
          17 282 286 70 283 282
          71 286 283 282 283 286
          69 281 367 70 368 281
          367 281 368 71 283 280
          70 281 283 69 280 281
          283 281 280 373 370 287
          356 288 370 72 287 288
          370 288 287 17 289 291
          72 290 289 355 291 290
          289 290 291 356 369 288
          355 290 369 72 288 290
          369 290 288 70 365 368
          17 291 282 355 284 291
          70 282 284 291 284 282
          70 284 365 355 366 284
          284 366 365 3 270 239
          65 241 270 58 239 241
          270 241 239 15 252 271
          61 253 252 65 271 253
          252 253 271 14 240 254
          58 242 240 61 254 242
          240 242 254 65 253 241
          61 242 253 58 241 242
          253 242 241 373 287 261
          72 265 287 63 261 265
          287 265 261 17 272 289
          66 273 272 72 289 273
          272 273 289 15 263 274
          63 266 263 66 274 266
          263 266 274 72 273 265
          66 266 273 63 265 266
          273 266 265 4 243 285
          59 247 243 71 285 247
          243 247 285 14 257 245
          62 248 257 59 245 248
          257 248 245 17 286 258
          71 259 286 62 258 259
          286 259 258 59 248 247
          62 259 248 71 247 259
          248 259 247 15 274 252
          66 255 274 61 252 255
          274 255 252 17 258 272
          62 260 258 66 272 260
          258 260 272 14 254 257
          61 256 254 62 257 256
          254 256 257 66 260 255
          62 256 260 61 255 256
          260 256 255 354 371 299
          357 301 371 75 299 301
          371 301 299 374 333 372
          312 303 333 357 372 303
          333 303 372 307 300 334
          75 302 300 312 334 302
          300 302 334 357 303 301
          312 302 303 75 301 302
          303 302 301 305 323 316
          349 350 323 346 316 350
          323 350 316 304 318 320
          347 352 318 348 320 352
          318 352 320 304 322 318
          309 319 322 347 318 319
          322 319 318 305 316 321
          346 317 316 309 321 317
          316 317 321 347 319 351