<?xml version="1.0"?>
<VTKFile type="UnstructuredGrid" version="0.1" byte_order="LittleEndian" header_type="UInt32" compressor="vtkZLibDataCompressor">
  <UnstructuredGrid>
    <Piece NumberOfPoints="149" NumberOfCells="252">
      <PointData>
        <DataArray type="Float64" Name="Temperature" format="ascii" RangeMin="0" RangeMax="1.6930138963813308">
          0 0.1272273432297923 0 0.29600186504558196 0.03358427597967312 0.09963957561143146
          0.26351311795851506 0.22939117224761002 0.09110552411970207 0 0 0.1760738609959932
          0 0.13331789590588666 0 1.350414396854115 0.8574885123023773 0.7308604396489863
          0.6208648780089091 0.7903469244625431 0.4083980684911644 0.4785424787754725 0.7771588226405863 1.1060597042163345
          0.008884350239477118 0.025410919513623502 0.07321105706893448 0.06610627711066337 0.024877652096657498 0.0639732074628042
          0.12192526253216832 0.05934160447398282 0.04192474432504077 0.17341356611453412 0.1357737175152917 0.34243177685730286
          0.3701693133753646 0.19277472966649117 0.278580068311896 0.22993639903226654 0.1821129285767014 0.25993166081132646
          0.2677359226659572 0.31422706116424615 0.1867058418374553 0.15474700017741327 0.051870975485972325 0.03925796418887498
          0.11659303162654816 0.11442525271388898 0 0 0 0.1251313605017262
          0 0.10007029066893595 0.07845017589186042 0.2938854533909102 0.2222541766731656 0
          0.07623842014014776 0 0.07062705079020597 0.21156149761469653 0.1472371823389568 0.06242406838118941
          0 0 1.5207558560586052 1.2299565166401372 1.1843628685622065 1.0855543748519791
          1.4646292211555163 1.27487363167162 0.9447586578431989 0.7652163209488894 0.9811863309968958 0.7368396144205259
          0.6576692684098465 0.5993071633522079 0.5607843971934178 0.8730179209864339 0.6809613781464121 0.6244286952438817
          0.7682021711108927 0.45189568030448146 0.5109740368233572 0.8093826740657577 0.5527313576453428 0.9252195003673533
          0.6243780996044572 0.6336615594984543 0.7943972685162004 0.9631735737246272 0.44994188592962286 0.35649616504743215
          0.349429956802116 0.5739366556789253 0.40012074007582865 0.38542803670179415 0.31331899769322075 0.5937176287725062
          0.5385515929511129 0.9834698842008276 0.7350973840728134 0.9837521030631609 1.3758444649853947 0.8736896075961522
          1.2299565134234112 0.9811863308048967 0.22856863581840575 0.19522689669151902 1.3504143881608839 0.15576337317944813
          0 0.6700647703486581 0.31915137855807396 0.4792019961361785 0 1.0246559459745852
          0.4328288753226881 0.2768394594961334 1.1514226438702624 0.2763181404563737 0.4935393931245246 0.8574885137489419
          0 1.212585556688014 0.6642960655639477 1.5694781911625906 1.6930138963813308 1.5207558498081941
          1.0855543721205196 0.23720545304840723 0.07908785896749423 0.487516980115669 0.3792398392762893 0.3716660936578896
          1.0945312118720878 1.354018102530556 1.19201456172104 0.36797647756129037 0.455461756740188 0.15474984204973882
          0.4945907617198832 0.47378281706710984 0.765216322173236 0.9584299300494024 1.661797544133197
        </DataArray>
      </PointData>
      <CellData>
        <DataArray type="UInt8" Name="vtkGhostType" format="ascii" RangeMin="0" RangeMax="0">
          0 0 0 0 0 0
          0 0 0 0 0 0
          0 0 0 0 0 0
          0 0 0 0 0 0
          0 0 0 0 0 0
          0 0 0 0 0 0
          0 0 0 0 0 0
          0 0 0 0 0 0
          0 0 0 0 0 0
          0 0 0 0 0 0
          0 0 0 0 0 0
          0 0 0 0 0 0
          0 0 0 0 0 0
          0 0 0 0 0 0
          0 0 0 0 0 0
          0 0 0 0 0 0
          0 0 0 0 0 0
          0 0 0 0 0 0
          0 0 0 0 0 0
          0 0 0 0 0 0
          0 0 0 0 0 0
          0 0 0 0 0 0
          0 0 0 0 0 0
          0 0 0 0 0 0
          0 0 0 0 0 0
          0 0 0 0 0 0
          0 0 0 0 0 0
          0 0 0 0 0 0
          0 0 0 0 0 0
          0 0 0 0 0 0
          0 0 0 0 0 0
          0 0 0 0 0 0
          0 0 0 0 0 0
          0 0 0 0 0 0
          0 0 0 0 0 0
          0 0 0 0 0 0
          0 0 0 0 0 0
          0 0 0 0 0 0
          0 0 0 0 0 0
          0 0 0 0 0 0
          0 0 0 0 0 0
          0 0 0 0 0 0
        </DataArray>
      </CellData>
      <Points>
        <DataArray type="Float32" Name="Points" NumberOfComponents="3" format="ascii" RangeMin="0.5" RangeMax="1.118033988749895">
          0 1 0 0.125 0.875 0
          0 0.75 0 0.125 0.625 0
          0.0625 0.9375 0 0.1875 0.9375 0
          0.25 0.875 0 0.125 0.75 0
          0.0625 0.8125 0 0.125 1 0
          0.375 1 0 0.3125 0.9375 0
          0 0.625 0 0.0625 0.6875 0
          0 0.875 0 0.4375 0.5625 0
          0.3125 0.5625 0 0.3125 0.6875 0
          0.25 0.625 0 0.375 0.75 0
          0.1875 0.6875 0 0.1875 0.5625 0
          0.4375 0.8125 0 0.375 0.5 0
          0.03125 0.96875 0 0.09375 0.96875 0
          0.09375 0.90625 0 0.125 0.9375 0
          0.03125 0.90625 0 0.0625 0.875 0
          0.15625 0.90625 0 0.21875 0.96875 0
          0.15625 0.96875 0 0.21875 0.90625 0
          0.25 0.9375 0 0.3125 0.875 0
          0.28125 0.84375 0 0.1875 0.875 0
          0.21875 0.84375 0 0.28125 0.90625 0
          0.125 0.8125 0 0.15625 0.78125 0
          0.125 0.6875 0 0.15625 0.71875 0
          0.09375 0.71875 0 0.09375 0.78125 0
          0.03125 0.78125 0 0.03125 0.84375 0
          0.09375 0.84375 0 0.0625 0.75 0
          0.0625 1 0 0.1875 1 0
          0.4375 1 0 0.40625 0.96875 0
          0.3125 1 0 0.34375 0.96875 0
          0.28125 0.96875 0 0.34375 0.90625 0
          0.375 0.9375 0 0 0.5625 0
          0.03125 0.59375 0 0 0.6875 0
          0.03125 0.65625 0 0.09375 0.65625 0
          0.0625 0.625 0 0.03125 0.71875 0
          0 0.9375 0 0 0.8125 0
          0.46875 0.53125 0 0.40625 0.53125 0
          0.40625 0.59375 0 0.375 0.5625 0
          0.46875 0.59375 0 0.4375 0.625 0
          0.34375 0.59375 0 0.28125 0.53125 0
          0.34375 0.53125 0 0.28125 0.59375 0
          0.25 0.5625 0 0.28125 0.71875 0
          0.25 0.6875 0 0.34375 0.65625 0
          0.28125 0.65625 0 0.3125 0.75 0
          0.34375 0.71875 0 0.1875 0.625 0
          0.21875 0.65625 0 0.3125 0.625 0
          0.21875 0.59375 0 0.375 0.6875 0
          0.375 0.8125 0 0.34375 0.78125 0
          0.40625 0.78125 0 0.40625 0.71875 0
          0.21875 0.71875 0 0.15625 0.65625 0
          0.1875 0.75 0 0.21875 0.53125 0
          0.15625 0.53125 0 0.15625 0.59375 0
          0.125 0.5625 0 0.40625 0.84375 0
          0.4375 0.875 0 0.46875 0.78125 0
          0.46875 0.84375 0 0.4375 0.75 0
          0.4375 0.5 0 0.3125 0.5 0
          0.40625 0.46875 0 0.34375 0.46875 0
          0.09375 0.59375 0 0.15625 0.84375 0
          0.4375 0.4375 0 0.0625 0.5625 0
          0 0.5 0 0.25 0.5 0
          0.125 0.5 0 0.25 0.75 0
          0.25 1 0 0.375 0.625 0
          0.375 0.875 0 0.1875 0.8125 0
          0.4375 0.6875 0 0.4375 0.9375 0
          0.3125 0.8125 0 0.3125 0.4375 0
          0.5 1 0 0.5 0.75 0
          0.5 0.875 0 0.5 0.625 0
          0.5 0.5 0 0.46875 0.46875 0
          0.375 0.4375 0 0.09375 0.53125 0
          0.03125 0.53125 0 0.1875 0.5 0
          0.25 0.8125 0 0.21875 0.78125 0
          0.40625 0.65625 0 0.46875 0.65625 0
          0.46875 0.71875 0 0.40625 0.90625 0
          0.46875 0.90625 0 0.46875 0.96875 0
          0.28125 0.78125 0 0.34375 0.84375 0
          0.28125 0.46875 0 0.5 0.8125 0
          0.5 0.5625 0
          <InformationKey name="L2_NORM_RANGE" location="vtkDataArray" length="2">
            <Value index="0">
              0.5
            </Value>
            <Value index="1">
              1.1180339887
            </Value>
          </InformationKey>
        </DataArray>
      </Points>
      <Cells>
        <DataArray type="Int64" Name="connectivity" format="ascii" RangeMin="0" RangeMax="148">
          130 68 106 15 69 68
          23 106 69 68 69 106
          119 74 70 16 71 74
          15 70 71 74 71 70
          115 107 75 23 76 107
          16 75 76 107 76 75
          15 71 69 16 76 71
          23 69 76 71 76 69
          117 94 79 20 80 94
          17 79 80 94 80 79
          3 85 95 18 86 85
          20 95 86 85 86 95
          119 81 87 17 82 81
          18 87 82 81 82 87
          20 86 80 18 82 86
          17 80 82 86 82 80
          115 97 135 21 98 97
          116 135 98 97 98 135
          3 110 99 113 100 110
          21 99 100 110 100 99
          116 98 133 21 100 98
          113 133 100 98 100 133
          119 87 74 18 77 87
          16 74 77 87 77 74
          3 99 85 21 88 99
          18 85 88 99 88 85
          115 75 97 16 78 75
          21 97 78 75 78 97
          18 88 77 21 78 88
          16 77 78 88 78 77
          120 101 141 22 102 101
          123 141 102 101 102 141
          127 147 103 128 104 147
          22 103 104 147 104 103
          123 102 142 22 104 102
          128 142 104 102 104 142
          117 79 144 17 83 79
          124 144 83 79 83 144
          119 89 81 19 84 89
          17 81 84 89 84 81
          120 145 90 124 91 145
          19 90 91 145 91 90
          17 84 83 19 91 84
          124 83 91 84 91 83
          130 148 68 129 72 148
          15 68 72 148 72 68
          119 70 138 15 73 70
          122 138 73 70 73 138
          129 139 72 122 73 139
          15 72 73 139 73 72
          120 90 101 19 92 90
          22 101 92 90 92 101
          119 138 89 122 93 138
          19 89 93 138 93 89
          127 103 140 22 105 103
          122 140 105 103 105 140
          19 93 92 122 105 93
          22 92 105 93 105 92
          0 24 50 4 25 24
          9 50 25 24 25 50
          1 30 26 5 27 30
          4 26 27 30 27 26
          118 51 31 9 32 51
          5 31 32 51 32 31
          4 27 25 5 32 27
          9 25 32 27 32 25
          120 35 145 6 36 35
          124 145 36 35 36 145
          1 111 37 121 38 111
          6 37 38 111 38 37
          124 36 136 6 38 36
          121 136 38 36 38 136
          126 52 143 10 53 52
          123 143 53 52 53 143
          118 56 54 11 55 56
          10 54 55 56 55 54
          120 141 57 123 58 141
          11 57 58 141 58 57
          10 55 53 11 58 55
          123 53 58 55 58 53
          1 37 30 6 33 37
          5 30 33 37 33 30
          120 57 35 11 39 57
          6 35 39 57 39 35
          118 31 56 5 34 31
          11 56 34 31 34 56
          6 39 33 11 34 39
          5 33 34 39 34 33
          114 134 59 113 60 134
          12 59 60 134 60 59
          3 63 110 13 64 63
          113 110 64 63 64 110
          2 61 65 12 62 61
          13 65 62 61 62 65
          113 64 60 13 62 64
          12 60 62 64 62 60
          117 137 94 121 96 137
          20 94 96 137 96 94
          1 40 111 7 41 40
          121 111 41 40 41 111
          3 95 42 20 43 95
          7 42 43 95 43 42
          121 41 96 7 43 41
          20 96 43 41 43 96
          0 66 24 14 28 66
          4 24 28 66 28 24
          2 46 67 8 47 46
          14 67 47 46 47 67
          1 26 48 4 29 26
          8 48 29 26 29 48
          14 47 28 8 29 47
          4 28 29 47 29 28
          3 42 63 7 44 42
          13 63 44 42 44 63
          1 48 40 8 45 48
          7 40 45 48 45 40
          2 65 46 13 49 65
          8 46 49 65 49 46
          7 45 44 8 49 45
          13 44 49 45 49 44
          130 106 131 23 108 106
          112 131 108 106 108 131
          115 146 107 125 109 146
          23 107 109 146 109 107
          23 109 108 125 132 109
          112 108 132 109 132 108
        </DataArray>
        <DataArray type="Int64" Name="offsets" format="ascii" RangeMin="3" RangeMax="756">
          3 6 9 12 15 18
          21 24 27 30 33 36
          39 42 45 48 51 54
          57 60 63 66 69 72
          75 78 81 84 87 90
          93 96 99 102 105 108
          111 114 117 120 123 126
          129 132 135 138 141 144
          147 150 153 156 159 162
          165 168 171 174 177 180
          183 186 189 192 195 198
          201 204 207 210 213 216
          219 222 225 228 231 234
          237 240 243 246 249 252
          255 258 261 264 267 270
          273 276 279 282 285 288
          291 294 297 300 303 306
          309 312 315 318 321 324
          327 330 333 336 339 342
          345 348 351 354 357 360
          363 366 369 372 375 378
          381 384 387 390 393 396
          399 402 405 408 411 414
          417 420 423 426 429 432
          435 438 441 444 447 450
          453 456 459 462 465 468
          471 474 477 480 483 486
          489 492 495 498 501 504
          507 510 513 516 519 522
          525 528 531 534 537 540
          543 546 549 552 555 558
          561 564 567 570 573 576
          579 582 585 588 591 594
          597 600 603 606 609 612
          615 618 621 624 627 630
          633 636 639 642 645 648
          651 654 657 660 663 666
          669 672 675 678 681 684
          687 690 693 696 699 702
          705 708 711 714 717 720
          723 726 729 732 735 738
          741 744 747 750 753 756
        </DataArray>
        <DataArray type="UInt8" Name="types" format="ascii" RangeMin="5" RangeMax="5">
          5 5 5 5 5 5
          5 5 5 5 5 5
          5 5 5 5 5 5
          5 5 5 5 5 5
          5 5 5 5 5 5
          5 5 5 5 5 5
          5 5 5 5 5 5
          5 5 5 5 5 5
          5 5 5 5 5 5
          5 5 5 5 5 5
          5 5 5 5 5 5
          5 5 5 5 5 5
          5 5 5 5 5 5
          5 5 5 5 5 5
          5 5 5 5 5 5
          5 5 5 5 5 5
          5 5 5 5 5 5
          5 5 5 5 5 5
          5 5 5 5 5 5
          5 5 5 5 5 5
          5 5 5 5 5 5
          5 5 5 5 5 5
          5 5 5 5 5 5
          5 5 5 5 5 5
          5 5 5 5 5 5
          5 5 5 5 5 5
          5 5 5 5 5 5
          5 5 5 5 5 5
          5 5 5 5 5 5
          5 5 5 5 5 5
          5 5 5 5 5 5
          5 5 5 5 5 5
          5 5 5 5 5 5
          5 5 5 5 5 5
          5 5 5 5 5 5
          5 5 5 5 5 5
          5 5 5 5 5 5
          5 5 5 5 5 5
          5 5 5 5 5 5
          5 5 5 5 5 5
          5 5 5 5 5 5
          5 5 5 5 5 5
        </DataArray>
      </Cells>
    </Piece>
  </UnstructuredGrid>
</VTKFile>
