<?xml version="1.0"?>
<VTKFile type="UnstructuredGrid" version="0.1" byte_order="LittleEndian" header_type="UInt32" compressor="vtkZLibDataCompressor">
  <UnstructuredGrid>
    <Piece NumberOfPoints="430" NumberOfCells="771">
      <PointData>
        <DataArray type="Float64" Name="Temperature" format="ascii" RangeMin="1.1548076632812418" RangeMax="7.506744140267729">
          1.7411012013984515 1.3577889222073642 1.4681334082310622 1.6657812378731527 2.033407824209659 1.92410052351124
          1.4223174351273258 1.5224247828470545 1.4198151091952587 1.3067514572998815 1.282852883746295 1.4641965151600977
          1.3921382872167707 1.3394709209544178 1.447826416567911 1.6020763088370187 1.5745686105143228 1.7058181364810776
          1.6215341191132637 1.542065298174742 1.7411732086465024 1.7932191164735263 2.1860984351329207 2.124017224289296
          1.8849705513417583 1.9808367668135318 1.9889323238202548 2.0581154041225136 1.8413332131518623 1.8637425253853905
          1.3257979295903999 1.505105625298805 2.34269154946337 5.014733693680943 2.035480165884589 2.9999728519765174
          3.444497080165694 6.255662170440272 4.365539978240822 5.613630542532127 7.185228039941477 7.506744140267729
          2.519859235578989 5.3119146123830765 1.8683179959788594 1.8002757631665987 2.1949232625101582 2.276402906885639
          2.47541487019258 2.6660173537241287 3.340806989987888 2.762321062034995 3.228771115327975 3.6246508336848446
          4.162061961083117 2.843994258791296 3.8996677622452993 6.881244165086753 5.785309217554769 5.63223930246473
          5.238139337077457 6.722091753804144 6.018645403639869 4.027419568932602 4.837607415464511 4.695581720677303
          5.321009277482398 6.397524927475303 7.427104968526027 6.7709637214334775 2.0728608988192967 3.052055787583146
          2.2764028796371965 2.7623210367749738 6.333722674479167 4.432983532187434 5.785309198674972 4.837607395204526
          7.427104933609156 6.881244147106142 1.7829742432183275 1.766668738964914 1.9526320997694673 1.8427381436105486
          1.97050862071273 2.063503812528649 1.6857087914880065 1.7341847849118608 1.9169786696311353 2.2705300096721874
          2.1164044148919836 2.4199997205622172 2.3341549401039505 2.1554171979957744 2.398027429213209 2.1749690505438566
          2.376709668539724 2.5087389902655857 2.726171466892412 2.5720229232251612 2.2457936256826203 2.61828366765149
          2.502802727997564 2.831894747894062 2.756860734529729 2.934929037502834 3.512579265560146 3.196798309700602
          3.169773336203406 3.039031327968968 3.669615070186961 3.483588767237389 2.6414469146039172 2.9070691370856365
          2.8819962475489342 3.3385373999187986 3.034733591163898 3.1157387950096695 3.549641451366614 3.4255863939695357
          3.2987938934685617 3.9795687420616597 3.8254356242908756 3.763504267991582 4.570425609249704 3.787503272512762
          4.427380656708239 4.032671582863607 2.582014006723805 3.1307516713618617 4.131557454761078 4.280965053937114
          3.67044946211493 7.194081384349143 6.607676733394508 6.568360138678149 6.3142506859831276 7.154370122675218
          6.8217952502119905 5.548885535685928 6.059524484314168 6.020953105142445 5.293502954555372 5.511385463826535
          5.322455481169845 5.145435123807026 5.943480373425531 5.436101027403407 5.496925522274974 5.826432046610134
          5.728102063028687 4.784473923519752 4.966029597227974 5.038552978601914 6.489366783264956 6.953965063469619
          7.07459567375185 6.3699512134801495 6.581149738784582 5.837981726131513 5.6687625532533685 6.157429674852776
          6.208947519965837 3.856368342417179 4.230096687819234 4.197289339953107 4.4161407882017425 4.601062597167245
          5.074699558339657 4.6356262464992275 4.856666107691117 4.531762239831865 5.169563726319088 5.4690135293795805
          5.755051810035219 6.169234603551107 6.79124687578834 6.584702012219769 6.004715020677266 7.486847824594789
          7.326902439260135 7.0005965143165545 1.8768634947871163 2.2866203032893866 1.9705086062400714 2.1749690365305305
          3.354810852063025 2.7743800897591546 3.1967982977236313 2.9070691245727174 2.3980274157244827 2.1554171564791638
          2.0635037839967465 2.508738964065411 2.3767096285646065 2.8819962105546155 3.0390313034767154 2.6414469015243456
          2.6182836291982095 6.901001124979182 5.804327075644022 6.607676724205767 6.0595244747522345 4.043354580036651
          4.85528496757971 4.230096677116601 4.635626236064675 6.020953077325464 6.314250667572517 5.54888552609142
          5.511385435280782 5.293502935017427 5.074699548165302 4.601062566460948 4.416140767358657 5.0385529488771725
          7.486847805935535 7.1543700958930865 7.326902389150002 7.074595630700226 7.194081375352988 6.56836011172274
          6.821795214996119 1.7411010647581695 7.185227977633073 2.3426914509302716 2.035480109785836 2.999972804029193
          6.255662134898545 2.0334077052701818 1.924100419692856 1.4681332585124522 1.665781112528498 6.722091703585182
          6.018645339263183 1.8683179664060423 1.8002756788076473 2.194923183653297 2.4754148184043103 3.3408069665987012
          2.666017280541811 3.2287710481247083 3.624650789452303 5.632239249823245 5.2381392991215865 2.8439941679213074
          2.1860983258238815 2.124017123284997 1.8849704226861723 1.9808366545069012 2.081237136813767 1.9235515503455427
          1.841333090712678 1.9889322421548377 2.058115311771971 1.8637424302635646 1.7932190009789928 1.3394707660663159
          1.4478262693777824 1.6020761645644608 1.5745684702508467 1.3472151031252408 1.4826715527912493 1.6215340007569885
          1.5420651628689748 1.7058180042590336 1.7411731013362615 1.7710513862730122 1.6240135849737756 2.243788743706529
          6.953965006974779 6.4893667396150985 6.581149675566218 6.3699511558006225 7.000596441741481 6.791246807666371
          6.157429623278287 5.826431987489848 1.7829742279188594 1.766668693858567 1.9526320564159718 1.8427380852673791
          1.9169785986697507 1.6857086935407555 1.7341847115065179 2.270529920383383 2.116404346664064 2.419999644478841
          2.334154874543768 2.245793571640667 2.7261714169819813 2.572022860060665 3.5125792539534437 3.169773300510843
          3.6696150476423695 3.483588732994149 2.502802641677555 2.831894687292378 2.7568606518866416 2.9349289671826626
          3.115738736722831 3.3385373244384264 3.034733512019456 3.549641386841292 3.425586338068113 3.9795686995788477
          3.8254355911406086 3.2987938473609475 3.7635042143563413 5.322455420174554 5.943480328957592 5.145435069001748
          5.436100981420988 4.784473884141068 4.966029549401424 5.728102026258535 2.5820139112331737 3.1307515845985483
          1.5735881226889608 1.5735880120745758 1.6970238273731768 3.684595868622634 5.014733624185761 3.4444969973805017
          4.365539937464431 1.357788789486878 1.6659271617577684 1.6659271005798704 1.4223172923107428 4.162061885513176
          3.899667700685225 4.695581663826382 4.027419547232835 1.3067513072062293 1.2828527371948784 1.254592502497596
          1.4641963933420716 1.3921381489502704 1.6892033735157113 1.6273097896012372 1.6892033423415065 1.6273097014473907
          1.3257977759871433 1.505105496637579 4.570425536585689 3.7875031935168244 4.427380590508666 4.0326715139352
          3.670449389806266 4.131557403393088 4.280964994840888 4.856666043762929 4.53176219038251 3.8563683311968155
          4.197289308175352 1.1548076632812418 1.2162486473523528 1.1955491436177759 1.2127070000873712 1.208654482879825
          1.1774407107489047 1.2177913317070719 1.2162488028885328 1.1955492960261929 1.2086546382700827 1.1774408601544528
          1.6107478913100708 1.5959342776738663 1.5224246816631821 1.5664324411850297 1.4198149960200783 1.2224325430771115
          1.3197398334932529 1.5316646727137302 1.4684978278805945 1.6107479070884063 1.5959343243872355 1.5664325171781337
          1.3724108967852346 1.319739957531169 1.2545926439904804 1.7950510662190207 1.4908359854673285 2.123712269259785
          6.770963641545367 6.397524854375277 1.9564589770268122 1.6397669570111921 1.3484384835261471 2.296484599005616
          4.84509804746955 6.58470193536261 6.208947450611833 5.169563652121329 5.496925455957936 5.668762482071595
          5.837981651404452 2.410846636273052 2.657057437634134 2.926836792198055 3.2224104317765634 4.287406131918068
          3.900301025991808 3.546102565172603 4.709761099979893 1.2177914854701386 1.34721525631612 1.6240137304651487
          1.4826717031046828 2.081237261109821 1.923551682822601 1.7710515259698034 2.2437888597123945 5.893640035179266
          2.410846742774783 2.6570575386484285 3.2224105233883105 2.9268368882338374 4.287406211956498 3.90030110957545
          3.5461026526636528 4.7097611770216785 4.97620901875948 5.1029442880819325 6.331981289377907 5.457067160640415
          5.225253528156674 5.343213776508218 4.845098127528538 6.4935985144141
        </DataArray>
      </PointData>
      <CellData>
        <DataArray type="UInt8" Name="vtkGhostType" format="ascii" RangeMin="0" RangeMax="1">
          1 1 1 1 1 1
          1 1 1 1 1 1
          1 1 1 1 1 1
          1 0 1 1 1 1
          1 0 1 1 0 0
          0 0 1 1 1 0
          0 1 0 1 0 1
          0 0 1 1 1 0
          1 0 0 0 0 0
          0 0 0 0 0 0
          0 0 0 0 0 0
          0 0 0 0 0 0
          0 0 0 0 0 0
          0 0 0 0 0 0
          0 0 0 0 0 0
          0 0 0 0 0 0
          0 0 0 0 0 0
          0 1 0 0 0 0
          0 0 0 0 0 0
          0 0 0 0 0 0
          0 0 0 0 0 0
          0 0 0 0 0 0
          0 0 0 0 0 0
          0 0 0 0 0 0
          0 0 0 0 0 0
          0 0 0 0 0 0
          0 0 0 0 0 0
          0 0 0 0 0 0
          0 0 0 0 0 0
          0 0 0 0 0 0
          0 0 0 0 0 0
          0 0 0 0 0 0
          0 0 0 0 0 0
          0 0 0 0 0 0
          0 0 0 0 0 0
          0 0 0 0 0 0
          0 0 0 0 0 0
          0 0 0 0 0 0
          0 0 0 0 0 0
          0 0 0 0 0 0
          0 0 0 0 0 0
          0 0 0 0 0 0
          0 0 0 0 0 0
          0 0 0 0 0 0
          0 0 0 0 0 0
          0 0 0 0 0 0
          0 0 0 0 0 0
          0 0 0 0 0 0
          0 0 0 0 0 0
          0 0 0 0 0 0
          0 0 0 0 0 0
          0 0 0 0 0 0
          0 0 0 0 0 0
          0 0 0 0 0 0
          0 0 0 0 0 0
          0 0 0 0 0 0
          0 0 0 0 0 0
          0 0 0 0 0 0
          0 0 0 0 0 0
          0 0 0 0 0 0
          0 0 0 0 0 0
          0 0 0 0 0 0
          0 0 0 0 0 0
          0 0 0 0 0 0
          0 0 0 0 0 0
          0 0 0 0 0 0
          0 0 0 0 0 0
          0 0 0 0 0 0
          0 0 0 0 0 0
          0 0 0 0 0 0
          0 0 0 0 0 0
          0 0 0 0 0 0
          0 0 0 0 0 0
          0 0 0 0 0 0
          0 0 0 0 0 0
          0 0 0 0 0 0
          0 0 0 0 0 0
          0 0 0 0 0 0
          0 0 0 0 0 0
          0 0 0 0 0 0
          0 0 0 0 0 0
          0 0 0 0 0 0
          0 0 0 0 0 0
          0 0 0 0 0 0
          0 0 0 0 0 0
          0 0 0 0 0 0
          0 0 0 0 0 0
          0 0 0 0 0 0
          0 0 0 0 0 0
          0 0 0 0 0 0
          0 0 0 0 0 0
          0 0 0 0 0 1
          0 0 0 0 0 0
          0 0 0 0 0 0
          0 0 0 0 0 0
          0 0 0 0 0 0
          0 0 0 0 0 0
          0 0 0 0 0 0
          0 0 0 0 0 0
          0 0 0 0 1 0
          1 1 0 0 0 0
          0 0 1 0 0 0
          0 0 0 0 0 0
          0 0 0 0 0 0
          0 0 0 0 0 0
          0 0 0 0 0 0
          0 0 0 0 0 0
          0 0 0 0 0 0
          0 0 0 0 0 0
          0 0 0 0 0 0
          0 0 0 0 0 0
          0 0 0 0 0 0
          0 0 0 0 0 0
          0 0 0 0 0 0
          0 0 0 0 0 0
          0 0 0 0 0 0
          0 0 0 0 0 0
          0 0 0 0 0 0
          0 0 0 0 0 0
          0 0 0 0 0 0
          0 0 0 0 0 0
          0 0 0 0 0 1
          1 0 1 1 0 1
          1 0 0 0 0 1
          0 0 0 0 0 0
          0 0 0 0 0 0
          0 0 0 0 0 0
          0 0 0 0 0 0
          0 0 0
        </DataArray>
      </CellData>
      <Points>
        <DataArray type="Float32" Name="Points" NumberOfComponents="3" format="ascii" RangeMin="0.5417167444799911" RangeMax="1.213530489934225">
          0.5625 0.3125 0 0.46875 0.34375 0
          0.53125 0.28125 0 0.53125 0.34375 0
          0.59375 0.34375 0 0.5625 0.375 0
          0.5 0.3125 0 0.484375 0.390625 0
          0.46875 0.375 0 0.484375 0.296875 0
          0.46875 0.3125 0 0.484375 0.359375 0
          0.484375 0.328125 0 0.515625 0.265625 0
          0.515625 0.296875 0 0.546875 0.296875 0
          0.53125 0.3125 0 0.546875 0.328125 0
          0.515625 0.359375 0 0.515625 0.328125 0
          0.53125 0.375 0 0.546875 0.359375 0
          0.609375 0.359375 0 0.59375 0.375 0
          0.578125 0.328125 0 0.578125 0.359375 0
          0.5625 0.40625 0 0.578125 0.390625 0
          0.5625 0.34375 0 0.546875 0.390625 0
          0.5 0.28125 0 0.5 0.34375 0
          0.625 0.375 0 0.875 0.375 0
          0.5625 0.4375 0 0.6875 0.4375 0
          0.75 0.375 0 0.9375 0.4375 0
          0.8125 0.4375 0 0.9375 0.3125 0
          1 0.375 0 1 0.5 0
          0.625 0.5 0 0.875 0.5 0
          0.53125 0.46875 0 0.53125 0.40625 0
          0.59375 0.40625 0 0.59375 0.46875 0
          0.625 0.4375 0 0.65625 0.40625 0
          0.71875 0.46875 0 0.65625 0.46875 0
          0.71875 0.40625 0 0.75 0.4375 0
          0.8125 0.375 0 0.6875 0.375 0
          0.78125 0.40625 0 0.96875 0.46875 0
          0.90625 0.46875 0 0.90625 0.40625 0
          0.875 0.4375 0 0.96875 0.40625 0
          0.9375 0.375 0 0.78125 0.46875 0
          0.84375 0.46875 0 0.84375 0.40625 0
          0.90625 0.34375 0 0.96875 0.34375 0
          1 0.4375 0 1 0.3125 0
          0.5625 0.5 0 0.6875 0.5 0
          0.59375 0.53125 0 0.65625 0.53125 0
          0.9375 0.5 0 0.8125 0.5 0
          0.90625 0.53125 0 0.84375 0.53125 0
          1 0.5625 0 0.96875 0.53125 0
          0.515625 0.484375 0 0.515625 0.453125 0
          0.546875 0.453125 0 0.53125 0.4375 0
          0.546875 0.484375 0 0.5625 0.46875 0
          0.515625 0.390625 0 0.515625 0.421875 0
          0.546875 0.421875 0 0.609375 0.390625 0
          0.578125 0.421875 0 0.625 0.40625 0
          0.609375 0.421875 0 0.578125 0.453125 0
          0.609375 0.484375 0 0.578125 0.484375 0
          0.609375 0.453125 0 0.625 0.46875 0
          0.65625 0.4375 0 0.640625 0.421875 0
          0.59375 0.4375 0 0.640625 0.453125 0
          0.640625 0.390625 0 0.671875 0.421875 0
          0.671875 0.390625 0 0.6875 0.40625 0
          0.734375 0.484375 0 0.703125 0.484375 0
          0.703125 0.453125 0 0.6875 0.46875 0
          0.75 0.46875 0 0.734375 0.453125 0
          0.640625 0.484375 0 0.671875 0.484375 0
          0.671875 0.453125 0 0.734375 0.390625 0
          0.703125 0.390625 0 0.703125 0.421875 0
          0.75 0.40625 0 0.734375 0.421875 0
          0.71875 0.4375 0 0.78125 0.4375 0
          0.765625 0.453125 0 0.765625 0.421875 0
          0.84375 0.375 0 0.78125 0.375 0
          0.828125 0.390625 0 0.796875 0.390625 0
          0.65625 0.375 0 0.71875 0.375 0
          0.796875 0.421875 0 0.8125 0.40625 0
          0.765625 0.390625 0 0.984375 0.484375 0
          0.953125 0.484375 0 0.953125 0.453125 0
          0.9375 0.46875 0 0.984375 0.453125 0
          0.96875 0.4375 0 0.890625 0.484375 0
          0.921875 0.484375 0 0.921875 0.453125 0
          0.875 0.46875 0 0.890625 0.453125 0
          0.890625 0.390625 0 0.875 0.40625 0
          0.921875 0.421875 0 0.890625 0.421875 0
          0.90625 0.375 0 0.921875 0.390625 0
          0.90625 0.4375 0 0.84375 0.4375 0
          0.859375 0.421875 0 0.859375 0.453125 0
          0.953125 0.421875 0 0.984375 0.390625 0
          0.984375 0.421875 0 0.953125 0.390625 0
          0.96875 0.375 0 0.9375 0.34375 0
          0.921875 0.359375 0 0.9375 0.40625 0
          0.953125 0.359375 0 0.765625 0.484375 0
          0.796875 0.484375 0 0.796875 0.453125 0
          0.8125 0.46875 0 0.828125 0.453125 0
          0.859375 0.484375 0 0.828125 0.484375 0
          0.859375 0.390625 0 0.828125 0.421875 0
          0.890625 0.359375 0 0.921875 0.328125 0
          0.953125 0.296875 0 0.96875 0.3125 0
          0.984375 0.359375 0 0.984375 0.328125 0
          0.953125 0.328125 0 1 0.46875 0
          1 0.40625 0 1 0.34375 0
          0.53125 0.5 0 0.59375 0.5 0
          0.546875 0.515625 0 0.578125 0.515625 0
          0.71875 0.5 0 0.65625 0.5 0
          0.703125 0.515625 0 0.671875 0.515625 0
          0.609375 0.515625 0 0.578125 0.546875 0
          0.5625 0.53125 0 0.625 0.53125 0
          0.609375 0.546875 0 0.671875 0.546875 0
          0.6875 0.53125 0 0.640625 0.515625 0
          0.640625 0.546875 0 0.96875 0.5 0
          0.90625 0.5 0 0.953125 0.515625 0
          0.921875 0.515625 0 0.78125 0.5 0
          0.84375 0.5 0 0.796875 0.515625 0
          0.828125 0.515625 0 0.921875 0.546875 0
          0.9375 0.53125 0 0.890625 0.515625 0
          0.890625 0.546875 0 0.875 0.53125 0
          0.859375 0.515625 0 0.828125 0.546875 0
          0.8125 0.53125 0 0.859375 0.546875 0
          1 0.53125 0 0.984375 0.546875 0
          1 0.59375 0 0.984375 0.578125 0
          0.984375 0.515625 0 0.953125 0.546875 0
          0.96875 0.5625 0 0.5625 0.6875 0
          1 0.625 0 0.625 0.625 0
          0.5625 0.5625 0 0.6875 0.5625 0
          0.9375 0.5625 0 0.59375 0.65625 0
          0.5625 0.625 0 0.53125 0.71875 0
          0.53125 0.65625 0 0.96875 0.59375 0
          0.9375 0.625 0 0.53125 0.53125 0
          0.53125 0.59375 0 0.59375 0.59375 0
          0.625 0.5625 0 0.71875 0.53125 0
          0.65625 0.59375 0 0.71875 0.59375 0
          0.75 0.5625 0 0.90625 0.59375 0
          0.875 0.5625 0 0.6875 0.625 0
          0.609375 0.640625 0 0.59375 0.625 0
          0.578125 0.671875 0 0.578125 0.640625 0
          0.609375 0.671875 0 0.59375 0.6875 0
          0.5625 0.65625 0 0.5625 0.59375 0
          0.578125 0.609375 0 0.546875 0.609375 0
          0.546875 0.640625 0 0.515625 0.734375 0
          0.515625 0.703125 0 0.546875 0.703125 0
          0.53125 0.6875 0 0.53125 0.75 0
          0.546875 0.734375 0 0.515625 0.640625 0
          0.515625 0.671875 0 0.546875 0.671875 0
          0.53125 0.625 0 0.578125 0.703125 0
          0.5625 0.71875 0 0.625 0.65625 0
          0.984375 0.609375 0 0.953125 0.578125 0
          0.96875 0.625 0 0.953125 0.609375 0
          1 0.65625 0 0.984375 0.640625 0
          0.9375 0.59375 0 0.921875 0.609375 0
          0.515625 0.515625 0 0.515625 0.546875 0
          0.546875 0.546875 0 0.53125 0.5625 0
          0.546875 0.578125 0 0.515625 0.609375 0
          0.515625 0.578125 0 0.609375 0.609375 0
          0.578125 0.578125 0 0.625 0.59375 0
          0.609375 0.578125 0 0.59375 0.5625 0
          0.65625 0.5625 0 0.640625 0.578125 0
          0.734375 0.515625 0 0.703125 0.546875 0
          0.75 0.53125 0 0.734375 0.546875 0
          0.640625 0.609375 0 0.671875 0.578125 0
          0.671875 0.609375 0 0.6875 0.59375 0
          0.703125 0.578125 0 0.734375 0.609375 0
          0.703125 0.609375 0 0.75 0.59375 0
          0.734375 0.578125 0 0.78125 0.5625 0
          0.765625 0.546875 0 0.71875 0.5625 0
          0.765625 0.578125 0 0.890625 0.609375 0
          0.921875 0.578125 0 0.875 0.59375 0
          0.890625 0.578125 0 0.84375 0.5625 0
          0.859375 0.578125 0 0.90625 0.5625 0
          0.65625 0.625 0 0.71875 0.625 0
          0.5 0.375 0 0.5 0.625 0
          0.5 0.5 0 0.75 0.5 0
          0.875 0.625 0 0.75 0.625 0
          0.8125 0.5625 0 0.46875 0.65625 0
          0.5 0.4375 0 0.5 0.5625 0
          0.5 0.6875 0 0.8125 0.625 0
          0.78125 0.59375 0 0.84375 0.59375 0
          0.78125 0.53125 0 0.484375 0.703125 0
          0.46875 0.6875 0 0.453125 0.671875 0
          0.484375 0.640625 0 0.484375 0.671875 0
          0.5 0.46875 0 0.5 0.40625 0
          0.5 0.53125 0 0.5 0.59375 0
          0.5 0.71875 0 0.5 0.65625 0
          0.84375 0.625 0 0.78125 0.625 0
          0.828125 0.609375 0 0.796875 0.609375 0
          0.765625 0.609375 0 0.796875 0.578125 0
          0.8125 0.59375 0 0.859375 0.609375 0
          0.828125 0.578125 0 0.765625 0.515625 0
          0.796875 0.546875 0 0.4375 0.6875 0
          0.5 0.75 0 0.46875 0.71875 0
          0.53125 0.78125 0 0.484375 0.734375 0
          0.453125 0.703125 0 0.515625 0.765625 0
          0.5 0.25 0 0.46875 0.28125 0
          0.484375 0.265625 0 0.453125 0.296875 0
          0.484375 0.515625 0 0.484375 0.546875 0
          0.484375 0.609375 0 0.484375 0.578125 0
          0.46875 0.625 0 0.4375 0.65625 0
          0.453125 0.640625 0 0.46875 0.5 0
          0.46875 0.40625 0 0.484375 0.484375 0
          0.484375 0.453125 0 0.484375 0.421875 0
          0.453125 0.390625 0 0.453125 0.359375 0
          0.453125 0.328125 0 0.59375 0.71875 0
          0.5625 0.75 0 0.625 0.6875 0
          1 0.6875 0 0.96875 0.65625 0
          0.609375 0.703125 0 0.578125 0.734375 0
          0.546875 0.765625 0 0.640625 0.671875 0
          0.875 0.65625 0 0.984375 0.671875 0
          0.953125 0.640625 0 0.890625 0.640625 0
          0.90625 0.625 0 0.921875 0.640625 0
          0.9375 0.65625 0 0.640625 0.640625 0
          0.671875 0.640625 0 0.703125 0.640625 0
          0.734375 0.640625 0 0.828125 0.640625 0
          0.796875 0.640625 0 0.765625 0.640625 0
          0.859375 0.640625 0 0.515625 0.234375 0
          0.53125 0.25 0 0.5625 0.28125 0
          0.546875 0.265625 0 0.609375 0.328125 0
          0.59375 0.3125 0 0.578125 0.296875 0
          0.625 0.34375 0 0.96875 0.28125 0
          0.640625 0.359375 0 0.671875 0.359375 0
          0.734375 0.359375 0 0.703125 0.359375 0
          0.828125 0.359375 0 0.796875 0.359375 0
          0.765625 0.359375 0 0.859375 0.359375 0
          0.890625 0.328125 0 0.90625 0.3125 0
          0.984375 0.296875 0 0.953125 0.265625 0
          0.921875 0.296875 0 0.9375 0.28125 0
          0.875 0.34375 0 1 0.28125 0
          <InformationKey name="L2_NORM_RANGE" location="vtkDataArray" length="2">
            <Value index="0">
              0.54171674448
            </Value>
            <Value index="1">
              1.2135304899
            </Value>
          </InformationKey>
        </DataArray>
      </Points>
      <Cells>
        <DataArray type="Int64" Name="connectivity" format="ascii" RangeMin="0" RangeMax="429">
          320 366 373 320 340 366
          327 367 340 340 367 366
          319 368 341 327 341 369
          368 369 341 327 369 367
          319 336 368 325 370 336
          336 370 368 355 371 335
          325 335 372 371 372 335
          325 372 370 320 373 375
          320 375 338 326 338 376
          375 376 338 318 339 7
          326 377 339 374 7 377
          339 377 7 326 376 377
          362 30 364 6 9 30
          363 364 9 30 9 364
          318 11 31 1 12 11
          6 31 12 11 12 31
          363 10 365 1 380 10
          365 10 380 6 12 9
          1 10 12 363 9 10
          12 10 9 1 379 380
          318 7 11 374 8 7
          1 11 8 7 8 11
          1 8 379 374 378 8
          379 8 378 32 412 414
          362 13 30 2 14 13
          6 30 14 13 14 30
          0 17 15 3 16 17
          2 15 16 17 16 15
          318 31 18 6 19 31
          3 18 19 31 19 18
          2 16 14 3 19 16
          6 14 19 16 19 14
          32 89 22 46 23 89
          4 22 23 89 23 22
          34 26 90 5 27 26
          46 90 27 26 27 90
          0 24 28 4 25 24
          5 28 25 24 25 28
          46 27 23 5 25 27
          4 23 25 27 25 23
          318 18 86 3 20 18
          45 86 20 18 20 86
          0 28 17 5 21 28
          3 17 21 28 21 17
          34 88 26 45 29 88
          5 26 29 88 29 26
          3 21 20 5 29 21
          45 20 29 21 29 20
          32 22 412 4 409 22
          22 409 412 0 411 24
          4 24 410 411 410 24
          4 410 409 362 405 13
          2 13 406 405 406 13
          0 15 407 2 408 15
          15 408 407 2 406 408
          0 407 411 320 338 80
          326 81 338 44 80 81
          338 81 80 318 86 339
          45 87 86 326 339 87
          86 87 339 34 82 88
          44 83 82 45 88 83
          82 83 88 326 87 81
          45 83 87 44 81 83
          87 83 81 320 80 182
          44 84 80 70 182 84
          80 84 182 34 93 82
          47 85 93 44 82 85
          93 85 82 42 183 94
          70 95 183 47 94 95
          183 95 94 44 85 84
          47 95 85 70 84 95
          85 95 84 32 102 89
          49 91 102 46 89 91
          102 91 89 35 98 103
          48 99 98 49 103 99
          98 99 103 34 90 100
          46 92 90 48 100 92
          90 92 100 49 99 91
          48 92 99 46 91 92
          99 92 91 321 186 106
          71 107 186 50 106 107
          186 107 106 42 112 187
          51 113 112 71 187 113
          112 113 187 35 108 114
          50 109 108 51 114 109
          108 109 114 71 113 107
          51 109 113 50 107 109
          113 109 107 34 100 93
          48 96 100 47 93 96
          100 96 93 35 114 98
          51 101 114 48 98 101
          114 101 98 42 94 112
          47 97 94 51 112 97
          94 97 112 48 101 96
          51 97 101 47 96 97
          101 97 96 33 124 421
          54 418 124 124 418 421
          36 420 125 54 125 419
          420 419 125 54 419 418
          32 414 128 55 128 415
          414 415 128 36 129 416
          55 417 129 129 417 416
          55 415 417 36 416 420
          41 199 133 74 134 199
          57 133 134 199 134 133
          43 139 200 58 140 139
          74 200 140 139 140 200
          37 135 141 57 136 135
          58 141 136 135 136 141
          74 140 134 58 136 140
          57 134 136 140 136 134
          321 163 203 63 164 163
          75 203 164 163 164 203
          38 167 165 64 166 167
          63 165 166 167 166 165
          43 204 168 75 169 204
          64 168 169 204 169 168
          63 166 164 64 169 166
          75 164 169 166 169 164
          33 144 170 59 145 144
          65 170 145 144 145 170
          37 150 146 60 147 150
          59 146 147 150 147 146
          38 171 151 65 152 171
          60 151 152 171 152 151
          59 147 145 60 152 147
          65 145 152 147 152 145
          43 168 139 64 142 168
          58 139 142 168 142 139
          38 151 167 60 153 151
          64 167 153 151 153 167
          37 141 150 58 143 141
          60 150 143 141 143 150
          64 153 142 60 143 153
          58 142 143 153 143 142
          32 128 102 55 104 128
          49 102 104 128 104 102
          36 115 129 52 116 115
          55 129 116 115 116 129
          35 103 117 49 105 103
          52 117 105 103 105 117
          55 116 104 52 105 116
          49 104 105 116 105 104
          33 170 124 65 126 170
          54 124 126 170 126 124
          38 130 171 56 131 130
          65 171 131 130 131 171
          36 125 132 54 127 125
          56 132 127 125 127 132
          65 131 126 56 127 131
          54 126 127 131 127 126
          321 106 163 50 110 106
          63 163 110 106 110 163
          35 120 108 53 111 120
          50 108 111 120 111 108
          38 165 121 63 122 165
          53 121 122 165 122 121
          50 111 110 53 122 111
          63 110 122 111 122 110
          36 132 115 56 118 132
          52 115 118 132 118 115
          38 121 130 53 123 121
          56 130 123 121 123 130
          35 117 120 52 119 117
          53 120 119 117 119 120
          56 123 118 53 119 123
          52 118 119 123 119 118
          41 133 179 57 137 133
          68 179 137 133 137 179
          37 154 135 61 138 154
          57 135 138 154 138 135
          40 180 155 68 156 180
          61 155 156 180 156 155
          57 138 137 61 156 138
          68 137 156 138 156 137
          33 172 144 66 148 172
          59 144 148 172 148 144
          39 159 173 62 160 159
          66 173 160 159 160 173
          37 146 161 59 149 146
          62 161 149 146 149 161
          66 160 148 62 149 160
          59 148 149 160 149 148
          69 424 429 40 176 181
          67 177 176 69 181 177
          176 177 181 39 174 178
          413 175 174 67 178 175
          174 175 178 69 177 424
          67 175 177 413 424 175
          177 175 424 37 161 154
          62 157 161 61 154 157
          161 157 154 39 178 159
          67 162 178 62 159 162
          178 162 159 40 155 176
          61 158 155 67 176 158
          155 158 176 62 162 157
          67 158 162 61 157 158
          162 158 157 33 421 428
          33 428 172 66 172 422
          428 422 172 39 173 426
          66 423 173 173 423 426
          66 422 423 39 427 174
          413 174 425 427 425 174
          39 426 427 41 216 220
          78 217 216 79 220 217
          216 217 220 224 270 218
          233 219 270 78 218 219
          270 219 218 228 221 271
          79 222 221 233 271 222
          221 222 271 78 219 217
          233 222 219 79 217 222
          219 222 217 41 220 199
          79 201 220 74 199 201
          220 201 199 228 207 221
          76 208 207 79 221 208
          207 208 221 43 200 209
          74 202 200 76 209 202
          200 202 209 79 208 201
          76 202 208 74 201 202
          208 202 201 321 203 353
          75 205 203 332 353 205
          203 205 353 43 212 204
          77 206 212 75 204 206
          212 206 204 324 354 213
          332 214 354 77 213 214
          354 214 213 75 206 205
          77 214 206 332 205 214
          206 214 205 228 315 207
          244 210 315 76 207 210
          315 210 207 324 213 313
          77 215 213 244 313 215
          213 215 313 43 209 212
          76 211 209 77 212 211
          209 211 212 244 215 210
          77 211 215 76 210 211
          215 211 210 320 182 278
          70 184 182 235 278 184
          182 184 278 42 190 183
          72 185 190 70 183 185
          190 185 183 226 280 191