<?xml version="1.0"?>
<VTKFile type="UnstructuredGrid" version="0.1" byte_order="LittleEndian" header_type="UInt32" compressor="vtkZLibDataCompressor">
  <UnstructuredGrid>
    <Piece NumberOfPoints="81" NumberOfCells="64">
      <PointData>
        <DataArray type="Float64" Name="Velocity" NumberOfComponents="3" format="ascii" RangeMin="0" RangeMax="0.031400226349476784">
          0 0 0 0.006010199574704541 0 0
          0 0 0 -0.00030258144248879187 0.0042368225768935 0
          0.017662627321580693 0 0 0 0 0
          -0.0007972022723607523 0.003007751266543687 0 -0.0016993498161212448 0.003782600640549712 0
          -0.001740256361737775 0.0021218936184187087 0 0.027597855189969833 0 0
          0 0 0 -0.0005874547297236943 0.0020535988972136664 0
          -0.003262761138596704 0.00244597133829259 0 -0.001333199958308435 0.0014043912736313611 0
          -0.0025325619498716883 0.00134443605210354 0 0.031400226349476784 0 0
          0 0 0 -0.00041165865046320285 0.0013192328788551367 0
          -0.003864449103310991 1.051892196610693e-7 0 -0.0018851409637284766 0.000841352306220379 0
          -0.0008797235468063365 0.0008728486366676806 0 -0.002852478204965688 3.169307361510924e-8 0
          0.027597855189969833 0 0 0 0 0
          -0.0012038049602956045 0.000515104971855112 0 -0.0020939357652454697 1.217079230681677e-7 0
          -0.00029163185534510875 0.000824705191480055 0 -0.0032631626793323634 -0.002445755115215396 0
          -0.0006253384688934721 0.0005450908538440608 0 -0.0025321265379231067 -0.001344273136899306 0
          -0.0013201556037937337 9.35412782780461e-8 0 -0.0008525227286108616 0.00031802502148679384 0
          -0.00188521012803087 -0.000841102193817423 0 0.017662627321580696 0 0
          0 0 0 -0.00020897725583001443 0.0004648513044996348 0
          -0.001699476198499179 -0.003782671552486216 0 -0.0004453673538104308 0.0003075097710951271 0
          -0.001739708943086441 -0.002121465818783153 0 -0.0009332706725623783 8.458054744126391e-8 0
          -0.0012037237446840287 -0.0005148908965578825 0 -0.0006033209715884601 0.00017837327532387728 0
          -0.0013332494643033034 -0.001404142955569199 0 0.006010199574704542 0 0
          0 0 0 -0.00019269725218157402 0.00018584204337318376 0
          -0.0008525318266684608 -0.0003178510689439246 0 -0.000301599397103355 -0.004235731411918505 0
          -0.0006589405290597534 5.6355219718118124e-8 0 -0.0008796322041811277 -0.0008725932145308434 0
          -0.000416497427339119 0.00012525369236060464 0 -0.0007971399166103685 -0.0030070209689580718 0
          -0.0005662811032487922 0.00007226384162164093 0 -0.000587387780088428 -0.002053181543868575 0
          -0.0006033115353158378 -0.00017825523892410833 0 -0.0006253462635734493 -0.0005449194488080038 0
          0 0 0 0 0 0
          0 0 0 0 0 0
          -0.0006188251248134103 2.9784836380057257e-8 0 -0.000411641592069958 -0.0013188964477324563 0
          0 0 0 0 0 0
          -0.00044535847122076486 -0.0003073892966459674 0 0 0 0
          0 0 0 -0.0005662834872500525 -0.00007220295346361916 0
          -0.00029163209496268816 -0.0008244819276676755 0 0 0 0
          0 0 0 -0.0004165022812702062 -0.0001251947106923762 0
          -0.0002089814865357102 -0.0004647022723911291 0 0 0 0
          0 0 0 -0.0001927077442854016 -0.00018576895450671797 0
          0 0 0 0 0 0
          0 0 0 0 0 0
          0 0 0
          <InformationKey name="L2_NORM_RANGE" location="vtkDataArray" length="2">
            <Value index="0">
              0
            </Value>
            <Value index="1">
              0.031400226349
            </Value>
          </InformationKey>
        </DataArray>
        <DataArray type="Float64" Name="Pressure" format="ascii" RangeMin="0" RangeMax="0.5335853606054355">
          0 0.003645284985275431 0.052495948246332774 0.06571573984885493 0.03405506964381273 0.12006038764854565
          0.12792351987760645 0.1023417735220158 0.15637043981111998 0.12961281485355594 0.16867985176550138 0.1736744570036796
          0.17232861836803903 0.193199532765928 0.2051277772606991 0.2668604669116383 0.2012427512284568 0.20469684227717416
          0.26686074126766485 0.22607623686606498 0.21790382721507742 0.2668614111851919 0.4041046782999 0.22199983739149004
          0.23988833067140697 0.26686350555222843 0.22435613878076635 0.36138975258794653 0.23343629807045824 0.32859343676864755
          0.26686576072315465 0.24848136226536818 0.30764991344403136 0.4996520727554715 0.23425643208519836 0.2359444059656627
          0.4313677892999183 0.24255260414663446 0.37734602810097234 0.26686782115906166 0.29384285419909134 0.25350303693380727
          0.34052454421207723 0.5300418034160225 0.24025997774931462 0.24164887492710035 0.28525416173172463 0.46797607023012694
          0.2668693925754537 0.3158265702727019 0.24704209505316282 0.4057878561598389 0.25597343753261736 0.3600476446532933
          0.28023572915641165 0.30029897766813685 0.2416961974613134 0.5335853606054355 0.2430225068218162 0.48119165484019305
          0.26687036878999876 0.32903290190343554 0.24811809699718923 0.41364885134529 0.29118614654837915 0.25657257968857555
          0.36504173954438146 0.27776731732253407 0.3093790081930406 0.2668707162172094 0.3324869131609106 0.28669873193202516
          0.2977944310960757 0.2771688777454378 0.3117354224048135 0.2920921230662936 0.28562344980727644 0.29948258978879816
          0.29071923548880857 0.29348123531172854 0.2920457745471112
        </DataArray>
        <DataArray type="Float64" Name="stream" format="ascii" RangeMin="-0.0012705369708657808" RangeMax="0.00043556552807573403">
          0.00004596236110382027 0.00018202340101692265 0 -0.00023014847320357307 0.0003414666863093463 -0.000001010059339845841
          -0.00019647869289049857 -0.0007085074207703356 -0.0005201763761164678 0.00043556552807573403 0.000003845530699023987 -0.000123920833009381
          -0.0011002724091395664 -0.0003349327897308383 -0.0007461512664276174 0.0004289159555687526 0.000008128100069454527 -0.00007307127067574133
          -0.0012705369708657808 -0.0004759151788361641 -0.00020474893509167834 -0.0008399514508763617 0.00032124788245771376 0.000011703190153286288
          -0.0002892815317017347 -0.0005318734287981732 -0.000037959431135297765 -0.0011456875947178837 -0.00011782782059037326 -0.0007592494026312132
          -0.00032200615423037067 -0.00016786530778676884 -0.0004828869386755146 0.00015401928858633715 0.000014372853826058369 -0.000013422930734958764
          -0.0007869211622470201 -0.00005708348824045781 -0.0005447625005608779 -0.00018557341783102607 -0.0002916089312737232 -0.0000835419855917358
          -0.0003482034077540821 0.000045930718918878004 0.00001660385380119115 0.000007680715683992014 -0.0001658646964529553 -0.00028157176391503647
          -0.00009154323486681378 -0.00020866683136598027 -0.00000655409785031968 -0.00020289115844033758 -0.00001457202850461355 -0.00012161049036156213
          -0.00007865793770858479 -0.00011434741902811832 0.00001660385380119115 0.000028806477801984313 0.00001816407387326577 0.000005983963565927203
          -0.000015802254377053142 -0.00006559043877426357 0.000018820532615820513 0.000006927064960763111 -0.00004821300720068071 0.00001982053653212824
          0.000017759916966104058 -0.000009583293910326828 -0.0000267001817216634 0.00002134742622795662 0.00002282353350549963 0.000003004964374706914
          5.937362879144415e-7 0.000023578425135379036 0.000026818208279775317 0.000020119308102876032 0.00002630739104473692 0.00002922205305717216
          0.000028806477801984313 0.000030268172780765107 0.000028806477801984313
        </DataArray>
        <DataArray type="Float64" Name="Sigma" NumberOfComponents="6" format="ascii" RangeMin="1.862738690907642e-9" RangeMax="0.0013534873120414567">
          0.00021699465668710671 1.529566486617351e-7 0 -2.0726449092618918e-7 0 0
          0.0004392521112057496 -0.0002605840498986954 0 0.00023733972089277916 0 0
          -0.000004853439893205991 -1.851405149729196e-7 0 0.00020253667411358528 0 0
          -0.000054723380886915043 -0.00005408461113055086 0 0.0001425688222618026 0 0
          0.0005820922264764146 -0.00023912896112335502 0 0.000736940750423363 0 0
          -0.00003110319612780617 4.401149307435195e-8 0 0.00015007160655977587 0 0
          -0.00003498257536895622 0.0000811686230409402 0 -0.0000016614687232792175 0 0
          -0.00009621030311091454 -0.000027163535546364126 0 0.00017196453344002738 0 0
          -0.000037322860721967074 0.00008538582284685222 0 -0.0001498212339348052 0 0
          0.00034572020044436 -0.00015568610779971803 0 0.0011853038205788854 0 0
          -0.000025091769195444597 -3.0988919899815327e-8 0 0.0001075149577174653 0 0
          -0.0000307345640931515 0.00002709521820711573 0 0.000017978821719588362 0 0
          -0.00005093405872570023 -0.000018598755388302508 0 0.000282842333737014 0 0
          -0.00003043314563679634 0.000012232944864697355 0 -0.00002288833042448146 0 0
          -0.000027910942549026545 0.00005744185801928843 0 -0.0002050861435714444 0 0
          -0.000005553027031498697 1.5362300639282767e-7 0 0.0013534759119201076 0 0
          -0.00001847737605432793 -2.656819112512249e-9 0 0.00007043819044460284 0 0
          -0.00001968067454135177 0.00002961540828919009 0 0.0000031912059445580812 0 0
          0.000021817394544130966 -2.941278864126978e-7 0 0.00029248083501146255 0 0
          -0.000016606360278127332 0.000008859798447216546 0 0.00000847908995524784 0 0
          -0.000017372996870680146 0.000021549486165639586 0 -0.00004559758888626467 0 0
          -0.000005952082434085152 1.7064809928143575e-7 0 -0.00026597011532103704 0 0
          -0.000356828627306071 0.00015527913549041444 0 0.0011786095398089481 0 0
          -0.000013446423398943963 -3.676333151696078e-9 0 0.00004457908808146602 0 0
          -0.000009714260743061667 0.000013260395789891223 0 -0.000044820499431961866 0 0
          0.0000015963144689634896 -6.276049337867634e-8 0 -0.000004706999267381367 0 0
          -0.000014405686600065714 0.000017561982900065836 0 0.0000030172044284316053 0 0
          0.0000841493390382135 0.00001891785423951393 0 0.0002898120526877337 0 0
          -0.000012537779864915039 0.00000990262977403173 0 -0.000020938131794296076 0 0
          0.00001883954120671644 -0.000057477173808358926 0 -0.00020782259531115088 0 0
          -4.2164918171389606e-7 1.8799248897425053e-8 0 -0.00006152804954294463 0 0
          -0.000006628882074696424 0.00000617401286019704 0 -0.000013027022327652721 0 0
          0.00001903787442291689 -0.000008841955959165117 0 0.000009364544226802037 0 0
          -0.0005852496446826042 0.00023737241191096393 0 0.0007304570253649357 0 0
          -0.00000951888994809619 -1.4018083927472006e-9 0 0.000025532462303585715 0 0
          -0.000010066215498043255 0.000014396126372940752 0 0.000003038376698007461 0 0
          0.00010811586692353284 0.000029033915791719013 0 0.00017891925611516297 0 0
          -0.000008591056036676069 0.000008920419315052462 0 -0.000010852042774277532 0 0
          0.000034017975008654315 -0.00008623862654624769 0 -0.00015261447978879788 0 0
          1.1397116995186562e-7 -4.821721594996636e-9 0 -0.000020507630652986686 0 0
          0.000009070355910221555 -0.000013255957558164989 0 -0.00004506280854292605 0 0
          -0.000004518556373001516 0.000005384821459563778 0 -0.000006968380746274565 0 0
          0.000031319528149619094 -0.000011988074292500362 0 -0.000022053178927729485 0 0
          -0.0004411274824732353 0.00025917401141134554 0 0.00023582504574241894 0 0
          -0.000009500194163465791 1.667217169964565e-10 0 0.00001087488858621573 0 0
          -0.000010088685471098627 0.000010552520055361066 0 -0.0000014372282342975154 0 0
          0.000006802760027954274 -0.0000061708765743475855 0 -0.000012950437392944214 0 0
          0.00005515490898742855 0.00005572088289819079 0 0.0001440709991407373 0 0
          -3.027175350960466e-8 2.807026687847602e-9 0 -0.000011564588249552886 0 0
          0.000017137257947548052 -0.00002162826677147387 0 -0.00004585954659569864 0 0
          -0.000008626456327084474 0.000006236795421184013 0 -0.00000970244298557001 0 0
          0.00003485985671072589 -0.00008165887790044454 0 -0.0000022347219729014028 0 0
          -0.000004497807392321588 0.00000377133689769262 0 -0.000009414432128928298 0 0
          0.00003076718092798566 -0.00002681723063121774 0 0.000018189327163118508 0 0
          0.000004472044631034032 -0.000005381578711108643 0 -0.0000069882618680169735 0 0
          0.000012601807953279638 -0.00000988258013862369 0 -0.000020869282911601308 0 0
          1.0002119000403174e-9 -1.4909493089810476e-9 0 -7.587623794777699e-10 0 0
          -0.00021410270336625668 1.3782485122422052e-7 0 1.4039572505527866e-7 0 0
          2.81359681243473e-10 0.000008716551670216693 0 -0.000010514924337958865 0 0
          0.000004736060145357839 -1.566679075060801e-7 0 0.00020219457598775174 0 0
          1.0780367396187582e-8 4.404847643755446e-10 0 -0.000011821257636531916 0 0
          0.000019670915555988347 -0.000029635481356721145 0 0.0000031542805939416294 0 0
          -6.792403895847279e-10 0.000005286584338699395 0 -0.000021385903852984763 0 0
          0.00003111681277058133 3.056516708230698e-8 0 0.0001501319639105887 0 0
          0.000008574100839342842 -0.000008924589338747375 0 -0.000010875674308527272 0 0
          -3.2389520369428735e-9 0.0000031854106689272836 0 -0.000028761509869059355 0 0
          0.00002508370033645035 -3.401662806824091e-8 0 0.00010743152286739364 0 0
          0.000004514500918378656 -0.000003769210559247438 0 -0.000009406779780235204 0 0
          0.000014408199606874462 -0.00001752870579591189 0 0.0000030378785087150967 0 0
          -4.847600250354644e-9 1.724843394119109e-9 0 -0.00003136959739017281 0 0
          0.00001847733636665062 1.6407469132961419e-9 0 0.00007042122355088697 0 0
          0.000008633372547781846 -0.000006233131132894223 0 -0.000009695220140654228 0 0
          0.00001006506218754 -0.000014392591247604316 0 0.000003035571692856096 0 0
          -4.175353587248749e-9 -0.0000031824491829028195 0 -0.000028765510799761646 0 0
          0.000013445898782088448 -4.23500693573584e-9 0 0.00004455887867140845 0 0
          0.000010089211000391089 -0.000010547120406147911 0 -0.000001434643610869013 0 0
          -2.3271652300143416e-9 -0.0000052845903925621996 0 -0.000021389878892731862 0 0
          0.000009519332185625014 3.866529751150111e-10 0 0.000025523711338611098 0 0
          -3.012780162209989e-10 -0.000008714054345214355 0 -0.00001051673137805563 0 0
          0.000009500541249351569 -5.181364261012795e-10 0 0.000010869825671291141 0 0
          -1.1554341865903792e-9 1.4498919477954541e-9 0 -1.8050099938905756e-10 0 0
          <InformationKey name="L2_NORM_RANGE" location="vtkDataArray" length="2">
            <Value index="0">
              1.8627386909e-09
            </Value>
            <Value index="1">
              0.001353487312
            </Value>
          </InformationKey>
        </DataArray>
      </PointData>
      <CellData>
        <DataArray type="UInt8" Name="vtkGhostType" format="ascii" RangeMin="0" RangeMax="0">
          0 0 0 0 0 0
          0 0 0 0 0 0
          0 0 0 0 0 0
          0 0 0 0 0 0
          0 0 0 0 0 0
          0 0 0 0 0 0
          0 0 0 0 0 0
          0 0 0 0 0 0
          0 0 0 0 0 0
          0 0 0 0 0 0
          0 0 0 0
        </DataArray>
        <DataArray type="Float64" Name="NN-Viscosity" format="ascii" RangeMin="6.877673866820284e-7" RangeMax="0.00008834273696344932">
          6.878527082333868e-7 0.0000015928911341626615 0.0000017435087597116193 0.0000018201654981367308 0.0000018225894599053583 0.0000017477181393175461
          0.000001593846130531233 6.877673866820284e-7 0.0000014718040769772715 0.0000030515160505429828 0.000005526744374642509 0.00000324989377784303
          0.0000032637835692807364 0.0000055462480533794785 0.0000030537788842262463 0.000001471453233332177 0.0000017270056213621188 0.0000035041297321664686
          0.000006820062904927826 0.000005874859079527088 0.000005910696682604302 0.000006896165802178658 0.000003514337686528386 0.0000017260223156280057
          0.0000023653103923723303 0.000004928643118596462 0.000009652237918409027 0.000009035027955523141 0.000009084461253976957 0.000009724402300012338
          0.000004976156319786665 0.0000023666871718953997 0.000004423896564065846 0.000015177528178678146 0.0000263733334872206 0.000027666660388117027
          0.000027576534473394933 0.000026240695158070728 0.000015452489799152036 0.000004466940332557764 0.000010726304108302416 0.000022033717930517882
          0.00002956487446681276 0.000029922708677904343 0.000030016742967002562 0.000029721145729559478 0.000022232551830018902 0.000010839847177491495
          0.00003505615534804215 0.000024505735409141614 0.000018065270299451577 0.00001111766725428753 0.00001201321200265266 0.000018964123507023727
          0.000024579808311967123 0.000034912097005811526 0.000023862377147608225 0.00006207437210608077 0.00008512111222571569 0.00007810097463618101
          0.0000818530432506784 0.00008834273696344932 0.00006259702548444364 0.000023874556924877995
        </DataArray>
      </CellData>
      <Points>
        <DataArray type="Float32" Name="Points" NumberOfComponents="3" format="ascii" RangeMin="0" RangeMax="1.4142135623730951">
          0 1 0 0.125 1 0
          0 0.875 0 0.125 0.875 0
          0.25 1 0 0 0.75 0
          0.125 0.75 0 0.25 0.875 0
          0.25 0.75 0 0.375 1 0
          0 0.625 0 0.125 0.625 0
          0.375 0.875 0 0.25 0.625 0
          0.375 0.75 0 0.5 1 0
          0 0.5 0 0.125 0.5 0
          0.5 0.875 0 0.375 0.625 0
          0.25 0.5 0 0.5 0.75 0
          0.625 1 0 0 0.375 0
          0.375 0.5 0 0.5 0.625 0
          0.125 0.375 0 0.625 0.875 0
          0.25 0.375 0 0.625 0.75 0
          0.5 0.5 0 0.375 0.375 0
          0.625 0.625 0 0.75 1 0
          0 0.25 0 0.125 0.25 0
          0.75 0.875 0 0.25 0.25 0
          0.75 0.75 0 0.5 0.375 0
          0.625 0.5 0 0.375 0.25 0
          0.75 0.625 0 0.875 1 0
          0 0.125 0 0.125 0.125 0
          0.625 0.375 0 0.875 0.875 0
          0.5 0.25 0 0.75 0.5 0
          0.25 0.125 0 0.875 0.75 0
          0.375 0.125 0 0.875 0.625 0
          0.625 0.25 0 0.75 0.375 0
          0 0 0 1 1 0
          0.125 0 0 1 0.875 0
          0.5 0.125 0 0.875 0.5 0
          0.25 0 0 1 0.75 0
          0.75 0.25 0 0.375 0 0
          1 0.625 0 0.625 0.125 0
          0.875 0.375 0 0.5 0 0
          1 0.5 0 0.75 0.125 0
          0.875 0.25 0 0.625 0 0
          1 0.375 0 0.875 0.125 0
          0.75 0 0 1 0.25 0
          0.875 0 0 1 0.125 0
          1 0 0
          <InformationKey name="L2_NORM_RANGE" location="vtkDataArray" length="2">
            <Value index="0">
              0
            </Value>
            <Value index="1">
              1.4142135624
            </Value>
          </InformationKey>
        </DataArray>
      </Points>
      <Cells>
        <DataArray type="Int64" Name="connectivity" format="ascii" RangeMin="0" RangeMax="80">
          58 45 44 56 62 50
          45 58 65 52 50 62
          69 60 52 65 73 67
          60 69 76 71 67 73
          78 75 71 76 80 79
          75 78 45 35 34 44
          50 37 35 45 52 41
          37 50 60 48 41 52
          67 54 48 60 71 64
          54 67 75 72 64 71
          79 77 72 75 35 26
          23 34 37 28 26 35
          41 31 28 37 48 39
          31 41 54 46 39 48
          64 55 46 54 72 68
          55 64 77 74 68 72
          26 17 16 23 28 20
          17 26 31 24 20 28
          39 30 24 31 46 40
          30 39 55 49 40 46
          68 61 49 55 74 70
          61 68 17 11 10 16
          20 13 11 17 24 19
          13 20 30 25 19 24
          40 32 25 30 49 42
          32 40 61 53 42 49
          70 66 53 61 11 6
          5 10 13 8 6 11
          19 14 8 13 25 21
          14 19 32 29 21 25
          42 38 29 32 53 51
          38 42 66 63 51 53
          6 3 2 5 8 7
          3 6 14 12 7 8
          21 18 12 14 29 27
          18 21 38 36 27 29
          51 47 36 38 63 59
          47 51 3 1 0 2
          7 4 1 3 12 9
          4 7 18 15 9 12
          27 22 15 18 36 33
          22 27 47 43 33 36
          59 57 43 47
        </DataArray>
        <DataArray type="Int64" Name="offsets" format="ascii" RangeMin="4" RangeMax="256">
          4 8 12 16 20 24
          28 32 36 40 44 48
          52 56 60 64 68 72
          76 80 84 88 92 96
          100 104 108 112 116 120
          124 128 132 136 140 144
          148 152 156 160 164 168
          172 176 180 184 188 192
          196 200 204 208 212 216
          220 224 228 232 236 240
          244 248 252 256
        </DataArray>
        <DataArray type="UInt8" Name="types" format="ascii" RangeMin="9" RangeMax="9">
          9 9 9 9 9 9
          9 9 9 9 9 9
          9 9 9 9 9 9
          9 9 9 9 9 9
          9 9 9 9 9 9
          9 9 9 9 9 9
          9 9 9 9 9 9
          9 9 9 9 9 9
          9 9 9 9 9 9
          9 9 9 9 9 9
          9 9 9 9
        </DataArray>
      </Cells>
    </Piece>
  </UnstructuredGrid>
</VTKFile>
