<?xml version="1.0"?>
<VTKFile type="UnstructuredGrid" version="0.1" byte_order="LittleEndian" header_type="UInt32" compressor="vtkZLibDataCompressor">
  <UnstructuredGrid>
    <Piece NumberOfPoints="81" NumberOfCells="64">
      <PointData>
        <DataArray type="Float64" Name="Velocity" NumberOfComponents="3" format="ascii" RangeMin="0" RangeMax="0.015702050297824285">
          0 0 0 0.0030054705648179286 0 0
          0 0 0 -0.0001944071463964604 0.0015827869456478169 0
          0.008832403292526159 0 0 0 0 0
          -0.00022765907593544195 0.0010567287963725782 0 -0.0011391728681063161 0.0013957096704744886 0
          -0.0004668996663554232 0.0006698775612171071 0 0.013800630144572126 0 0
          0 0 0 -0.0002248022689034301 0.0007391342442583503 0
          -0.002043606168169411 0.0009186027171549304 0 -0.0004800801323271549 0.00043971523260099 0
          -0.0006722206539187176 0.00045385041300210083 0 0.015702050297824285 0 0
          0 0 0 -0.000158490916751186 0.00048500216067733125 0
          -0.002389941480939778 3.1459067373904505e-8 0 -0.00067749277938042 0.00028386186333265254 0
          -0.00029688591184966336 0.0002678554432367353 0 -0.0007571721274039905 1.9592008890081223e-8 0
          0.013800630144572126 0 0 0 0 0
          -0.0003944713805843264 0.00017207348639212527 0 -0.0007530032949998136 3.546574168284841e-8 0
          -0.00011942502868316724 0.00031231498745867603 0 -0.00204370352877809 -0.0009185294816582662 0
          -0.00022452257942024166 0.00016985693967303198 0 -0.0006721137055205185 -0.0004537902291367803 0
          -0.00042980893161091873 2.9349489076721578e-8 0 -0.000297276164833659 0.00010786693785363933 0
          -0.000677505829647448 -0.00028378366738821215 0 0.00883240329252616 0 0
          0 0 0 -0.00008302249812521666 0.00018412551409410216 0
          -0.0011391867338737976 -0.0013957228624992683 0 -0.0001534940704498053 0.00009879193072871366 0
          -0.00046676481423261107 -0.0006697691824420318 0 -0.00032336670655681 2.5131921333849223e-8 0
          -0.00039445208487403596 -0.0001720073477062192 0 -0.0002009862544463191 0.0000625538162839205 0
          -0.0004800864507833091 -0.0004396389836561691 0 0.0030054705648179295 0 0
          0 0 0 -0.00008934880023813373 0.00008542251043136696 0
          -0.0002972766279221071 -0.00010781382406489448 0 -0.00019410042040214493 -0.0015824453938804758 0
          -0.0002177661715780055 1.6993890343251163e-8 0 -0.00029686287410903234 -0.00026778593925752797 0
          -0.00016533576966047415 0.000045762370245505844 0 -0.00022765263057296617 -0.0010565181075568792 0
          -0.000216317355214205 0.000028900361045039054 0 -0.00022477479944407215 -0.0007389953488429265 0
          -0.0002009834503491863 -0.00006251782561628412 0 -0.00022452167026932294 -0.00016980682300719163 0
          0 0 0 0 0 0
          0 0 0 0 0 0
          -0.00023426587566339178 8.741296807727783e-9 0 -0.00015848453942756766 -0.00048489553279705945 0
          0 0 0 0 0 0
          -0.00015349061406730606 -0.00009875770235477149 0 0 0 0
          0 0 0 -0.00021631678831515941 -0.000028882098381214063 0
          -0.00011942125914345232 -0.00031224055412266115 0 0 0 0
          0 0 0 -0.0001653348181960387 -0.00004574541813765728 0
          -0.0000830209975067072 -0.00018407653011292367 0 0 0 0
          0 0 0 -0.0000893478659450597 -0.00008539844968403186 0
          0 0 0 0 0 0
          0 0 0 0 0 0
          0 0 0
          <InformationKey name="L2_NORM_RANGE" location="vtkDataArray" length="2">
            <Value index="0">
              0
            </Value>
            <Value index="1">
              0.015702050298
            </Value>
          </InformationKey>
        </DataArray>
        <DataArray type="Float64" Name="Pressure" format="ascii" RangeMin="0" RangeMax="0.1855474397954007">
          0 0.0006527055472170194 0.014337879684879951 0.01796522737335485 0.012554542487564931 0.035463130270951215
          0.03866683297299662 0.03135940164561482 0.04978415415314786 0.04586658186400044 0.052513751263502696 0.05516800823807714
          0.05753859793170002 0.06341995571667258 0.06875716714203954 0.09278829261891092 0.06475451639197059 0.06677776867092325
          0.09278850981219627 0.0766213652638443 0.07270377592797617 0.0927890915662677 0.13970928450638645 0.07295543876219152
          0.0818329633862387 0.09278987572155008 0.07443719525983597 0.1280377844662863 0.07869471867637219 0.11682058823982042
          0.092790684191959 0.0851372541119519 0.10895815378619014 0.17301887495003154 0.07808094468683076 0.07919392554030862
          0.15421497031802303 0.08237165825390873 0.13579232556291687 0.09279138968837133 0.10374830202368261 0.08714573014602653
          0.12215899968061203 0.18491587441524182 0.08087126455384888 0.08177698124478007 0.10044547937547064 0.1676047747002018
          0.09279192162629468 0.11287723726458626 0.08435814239360456 0.1469082790919833 0.08822589973704838 0.13041035084029143
          0.09843809246173463 0.10688790391596434 0.08175518329393766 0.1855474397954007 0.08259459979709657 0.17123094738449335
          0.09279224913351573 0.1188029902747888 0.08498579185680798 0.15011127803126603 0.10321211446276109 0.08856661276983038
          0.13306436134611116 0.09735858816867382 0.11114531596550405 0.09279235944529377 0.12082613567223417 0.10122632049499551
          0.10638979724694947 0.0970180985232245 0.1126270262916366 0.10380745661953875 0.1005989010927547 0.1075027573981112
          0.10299007480762414 0.10471316294395741 0.10382948371150953
        </DataArray>
        <DataArray type="Float64" Name="stream" format="ascii" RangeMin="-0.0004786709191940377" RangeMax="0.0003380265535260463">
          0.00003838363977417661 0.0001408156633448018 0 -0.00007900787223897606 0.00026144316657409163 -8.124369292448176e-7
          -0.00006957460803578712 -0.0002581644220937892 -0.00017503275586117865 0.0003380265535260463 6.157013737637074e-7 -0.0000464376611769259
          -0.00040823736195855405 -0.00011852974938969036 -0.00024588690478189514 0.0003357319877353062 0.000002419475522527982 -0.000027787826725723436
          -0.0004786709191940377 -0.0001641543211015076 -0.00007257823628502924 -0.00027691009007153243 0.0002562765090646149 0.000004090008286918709
          -0.00009929354620690612 -0.00018315097871761938 -0.000014848975249773856 -0.00043687947474703394 -0.00004258061587572623 -0.00025124979772323745
          -0.00011021187266019712 -0.00005858878235887528 -0.0001665752809587187 0.00013263942305399284 0.000005395466166846912 -0.000005842516455449938
          -0.0003044546634891189 -0.00002152968168347331 -0.00018573798778098006 -0.00006455805119784983 -0.00010013193545917911 -0.000030158016446702478
          -0.00012435034144407984 0.000038768624383129827 0.000006613998773690159 0.0000026404697845252697 -0.000057895845310072794 -0.00011308434487137456
          -0.0000328505934658171 -0.00007492972475542686 -0.0000029386176090627752 -0.00007361586442843456 -0.000005751237707401398 -0.0000460075934011501
          -0.00002824272499111927 -0.000041859312944578 0.000006613998773690159 0.00001137826636205107 0.000007419384286549394 -0.000001401620695896877
          -0.0000061979295251355226 -0.000025156532027922376 0.000007407126140633126 0.0000018973918279607284 -0.00001818145891576375 0.00000758786156705977
          0.000005778941131791939 -0.0000037976107181437394 -0.000010504264556712054 0.000008015774635443117 0.000008263852566972455 8.613784624958395e-7
          -1.791535406629417e-8 0.00000886898159349842 0.000010194518219002669 0.000007642782843131005 0.000010031893096623339 0.000011432567070021252
          0.00001137826636205107 0.000012179226155217034 0.00001137826636205107
        </DataArray>
        <DataArray type="Float64" Name="Sigma" NumberOfComponents="6" format="ascii" RangeMin="1.6349687313406947e-11" RangeMax="0.0005516268473841134">
          0.00007947069543892637 2.386461894126176e-9 0 -3.372359176770292e-8 0 0
          0.00016139880725644885 -0.0000835550920330914 0 0.00009595697509214753 0 0
          -0.0000017683343189946795 -7.932586616369808e-9 0 0.0000715507603192478 0 0
          -0.000023775360409879738 -0.000016843394155174656 0 0.000051784318036851274 0 0
          0.00021407068832923277 -0.0000762869093309885 0 0.00030078964214639713 0 0
          -0.0000090126135201932 4.275931652890046e-9 0 0.00005530108852238827 0 0
          -0.000009455116448142419 0.000026086569015260495 0 -0.000003024477675623752 0 0
          -0.00004118485332232589 -0.000007463950717239932 0 0.00006562214543287824 0 0
          -0.000009574268902012584 0.000027959797964568345 0 -0.00006360602709075579 0 0
          0.00012794437867704407 -0.0000500521685682834 0 0.00048246376170402297 0 0
          -0.0000086019251054085 -7.995351974223177e-10 0 0.00004071911049077051 0 0
          -0.000009829024195456928 0.000007861344394728347 0 0.000007542993801927329 0 0
          -0.000023538390115784248 -0.000005441186732115137 0 0.0001077274611775674 0 0
          -0.000009569986100608552 0.000002966148652363702 0 -0.000004839497593138196 0 0
          -0.000007089830226098009 0.000018658643335930193 0 -0.00008790293214492631 0 0
          -0.0000011717650837162979 3.976690664407339e-8 0 0.0005516256014183149 0 0
          -0.000006471607777675427 4.215138196883726e-11 0 0.000027288481088233053 0 0
          -0.000006070674743726254 0.000009384638263734205 0 3.0520859310605826e-7 0 0
          0.000004127189415884479 -4.970927815573453e-8 0 0.00011090882760543117 0 0
          -0.000005527005230533159 0.0000024345286652694614 0 0.000009582384203695902 0 0
          -0.000004887542378609103 0.000006585581654877826 0 -0.000018733184108415096 0 0
          -0.0000011179916334480958 2.84545376554638e-8 0 -0.00011249728427669591 0 0
          -0.00013028049578098404 0.00005004351154255886 0 0.00048141525794766286 0 0
          -0.000004864878530082689 4.980296202455996e-11 0 0.000017635447798518277 0 0
          -0.0000028294023507567873 0.000004166179888874744 0 -0.000018308192903145868 0 0
          2.9929865029929815e-7 -9.200305624594987e-9 0 0.000004575084978338534 0 0
          -0.000004601443624872114 0.00000554145922666355 0 8.312071956606695e-7 0 0
          0.000029870490575415306 0.000005435753316215166 0 0.00010874253256381562 0 0
          -0.0000036692994539268575 0.0000027800406933534586 0 -0.000007902844994137803 0 0
          0.000005374643069056886 -0.000018639817465114547 0 -0.00008826759183655882 0 0
          -7.978354901925257e-8 2.7597953944571067e-9 0 -0.000025372190024928823 0 0
          -0.000002031290983361322 0.0000018376054431821268 0 -0.000004006792827506866 0 0
          0.000005986586399221695 -0.0000024405417026757363 0 0.000009687667069034874 0 0
          -0.00021478593568146105 0.00007610740957063225 0 0.0002997322632194977 0 0
          -0.0000034071431464923578 -3.0658188918502737e-11 0 0.00001041566012592012 0 0
          -0.0000031475493006716497 0.000004533683883953524 0 0.0000010327786826848654 0 0
          0.00004345895337658118 0.000007644672046271163 0 0.0000666379318061108 0 0
          -0.000002422844075291072 0.0000025605954311209484 0 -0.0000044303112105045694 0 0
          0.000008950282287409372 -0.00002802142968152954 0 -0.00006395921871395868 0 0
          2.147941165977617e-8 -4.5310494829526104e-10 0 -0.000007137947773063724 0 0
          0.000002706796851626705 -0.000004163896288593667 0 -0.000018337191259480927 0 0
          -0.0000013272609615299522 0.0000016128784196596286 0 -0.0000025547308578499064 0 0
          0.00000973778959890401 -0.000002946648853061419 0 -0.000004733411554093674 0 0
          -0.00016178615659772193 0.0000834114748781469 0 0.00009573369908181262 0 0
          -0.0000036648001300168427 1.3808154030416007e-11 0 0.0000048322704928526754 0 0
          -0.0000033922078736331 0.0000035537905781647353 0 -6.554213965014275e-7 0 0
          0.000002064301218900573 -0.0000018374849943849354 0 -0.000003998725374022894 0 0
          0.000023889396189113883 0.000016970464379484965 0 0.00005199473990721178 0 0
          -5.721121881806023e-9 5.34720122296092e-10 0 -0.000004591525049348925 0 0
          0.000004842501708344267 -0.000006590183478426458 0 -0.00001876007110043621 0 0
          -0.0000026067955260588762 0.0000018717058620557033 0 -0.000003901559565042531 0 0
          0.000009422651193055534 -0.000026128718084035896 0 -0.0000030961694340623645 0 0
          -0.0000014150155933559496 0.0000011888466936578522 0 -0.0000034075041457606763 0 0
          0.000009837220793454121 -0.000007845496193596253 0 0.000007561389934732627 0 0
          0.0000013184578489314416 -0.0000016120327075055234 0 -0.0000025571420100060925 0 0
          0.0000036814023471863085 -0.0000027779008633593863 0 -0.000007893756515395805 0 0
          5.106589676874441e-12 -8.428566609911433e-12 0 -1.9528712888432897e-11 0 0
          -0.00007887387338497631 1.9913017776663703e-8 0 7.347589269251015e-9 0 0
          5.0984473148093245e-11 0.0000033488406021822808 0 -0.000004738044553782282 0 0
          0.0000017057457359328001 -1.477216013546391e-8 0 0.00007149167064256057 0 0
          1.6642550260767973e-9 2.8012725080512647e-10 0 -0.000004470820749227453 0 0
          0.000006067968146170731 -0.000009387202568724124 0 2.9978575636481743e-7 0 0
          -1.4067754612404097e-10 0.0000018102645549979427 0 -0.000008817645101933625 0 0
          0.000009022677869948824 2.557339760175682e-9 0 0.00005530460610222446 0 0
          0.000002419578802407077 -0.0000025603363294265804 0 -0.000004432003413950517 0 0
          -5.896678033143039e-10 0.0000011398311178817666 0 -0.000011570899905497557 0 0
          0.000008597753239600478 -1.339172080819888e-9 0 0.000040706986644070955 0 0
          0.000001417573240743778 -0.000001188167439876043 0 -0.0000034068468112705163 0 0
          0.0000046020212984997606 -0.000005539265981233192 0 8.318408435931961e-7 0 0
          -8.257516899238163e-10 3.8436481744261585e-10 0 -0.000012541390435875358 0 0
          0.000006472142986391504 5.254348689828105e-10 0 0.00002728370599490236 0 0
          0.0000026077289083143766 -0.0000018708973892762589 0 -0.000003900565876041647 0 0
          0.0000031473092880475805 -0.0000045329868943104415 0 0.0000010320160521628982 0 0
          -6.789527535391368e-10 -0.0000011390749966442032 0 -0.000011571233674034368 0 0
          0.000004864483370302275 -2.0171187553125403e-10 0 0.000017631022848979966 0 0
          0.0000033922340426393743 -0.0000035527230900479073 0 -6.555495440746751e-7 0 0
          -3.208269952714173e-10 -0.0000018096515072764709 0 -0.000008817957205950637 0 0
          0.0000034071399988484894 7.145547447372785e-11 0 0.000010413047498030064 0 0
          -7.430726369778935e-11 -0.0000033479305726596456 0 -0.000004738045016331408 0 0
          0.000003664740716446488 -2.5432382692954068e-11 0 0.000004830924219064748 0 0
          1.5458016242153437e-12 1.4226871366928283e-11 0 -7.9068896345927e-12 0 0
          <InformationKey name="L2_NORM_RANGE" location="vtkDataArray" length="2">
            <Value index="0">
              1.6349687313e-11
            </Value>
            <Value index="1">
              0.00055162684738
            </Value>
          </InformationKey>
        </DataArray>
      </PointData>
      <CellData>
        <DataArray type="UInt8" Name="vtkGhostType" format="ascii" RangeMin="0" RangeMax="0">
          0 0 0 0 0 0
          0 0 0 0 0 0
          0 0 0 0 0 0
          0 0 0 0 0 0
          0 0 0 0 0 0
          0 0 0 0 0 0
          0 0 0 0 0 0
          0 0 0 0 0 0
          0 0 0 0 0 0
          0 0 0 0 0 0
          0 0 0 0
        </DataArray>
        <DataArray type="Float64" Name="NN-Viscosity" format="ascii" RangeMin="3.82777971061084e-10" RangeMax="0.000038751292460280876">
          3.82777971061084e-10 7.512319607243196e-10 8.498715956241886e-10 7.109015140696025e-10 7.11807621640466e-10 8.524755935961328e-10
          7.55280315775661e-10 3.8552426362645884e-10 2.4988847885936966e-9 3.2425029694475043e-9 3.4326316799331713e-9 3.019669370158051e-9
          3.0210581243304053e-9 3.4349760803564515e-9 3.2444314337799376e-9 2.4918679325594164e-9 5.449376551362055e-9 4.265829716517563e-9
          5.543306043824799e-9 5.264164528767852e-9 5.2658212126054375e-9 5.544057939703076e-9 4.260789668876139e-9 5.413311518436687e-9
          1.508414651208239e-8 3.113100077289138e-8 3.5028280269486355e-8 2.454824395314879e-8 2.458231332350591e-8 3.5152242804192046e-8
          3.130761133329898e-8 1.5168375823919295e-8 4.1077336114327153e-7 5.178253064710875e-7 4.799462647355439e-7 3.53714065029822e-7
          3.5324292517876675e-7 4.782316437195719e-7 5.136072085373457e-7 4.085148822818823e-7 0.000001282833466440131 0.0000024228948179671035
          0.0000026817399477515734 0.0000020936317152103917 0.0000020940908155509583 0.000002685656171313462 0.000002427690042970545 0.0000012860132813241954
          0.000006839475968719279 0.0000069143503356840005 0.000004050877242850388 0.0000015072056687415735 0.0000017050519897957017 0.000004265941670504599
          0.000006969173104235064 0.000006795837262784738 0.000008095025017447491 0.00002613808593896114 0.00003741716006148644 0.00003045651217905265
          0.00003269705243568826 0.000038751292460280876 0.000026273404692260108 0.000008090317428673586
        </DataArray>
      </CellData>
      <Points>
        <DataArray type="Float32" Name="Points" NumberOfComponents="3" format="ascii" RangeMin="0" RangeMax="1.4142135623730951">
          0 1 0 0.125 1 0
          0 0.875 0 0.125 0.875 0
          0.25 1 0 0 0.75 0
          0.125 0.75 0 0.25 0.875 0
          0.25 0.75 0 0.375 1 0
          0 0.625 0 0.125 0.625 0
          0.375 0.875 0 0.25 0.625 0
          0.375 0.75 0 0.5 1 0
          0 0.5 0 0.125 0.5 0
          0.5 0.875 0 0.375 0.625 0
          0.25 0.5 0 0.5 0.75 0
          0.625 1 0 0 0.375 0
          0.375 0.5 0 0.5 0.625 0
          0.125 0.375 0 0.625 0.875 0
          0.25 0.375 0 0.625 0.75 0
          0.5 0.5 0 0.375 0.375 0
          0.625 0.625 0 0.75 1 0
          0 0.25 0 0.125 0.25 0
          0.75 0.875 0 0.25 0.25 0
          0.75 0.75 0 0.5 0.375 0
          0.625 0.5 0 0.375 0.25 0
          0.75 0.625 0 0.875 1 0
          0 0.125 0 0.125 0.125 0
          0.625 0.375 0 0.875 0.875 0
          0.5 0.25 0 0.75 0.5 0
          0.25 0.125 0 0.875 0.75 0
          0.375 0.125 0 0.875 0.625 0
          0.625 0.25 0 0.75 0.375 0
          0 0 0 1 1 0
          0.125 0 0 1 0.875 0
          0.5 0.125 0 0.875 0.5 0
          0.25 0 0 1 0.75 0
          0.75 0.25 0 0.375 0 0
          1 0.625 0 0.625 0.125 0
          0.875 0.375 0 0.5 0 0
          1 0.5 0 0.75 0.125 0
          0.875 0.25 0 0.625 0 0
          1 0.375 0 0.875 0.125 0
          0.75 0 0 1 0.25 0
          0.875 0 0 1 0.125 0
          1 0 0
          <InformationKey name="L2_NORM_RANGE" location="vtkDataArray" length="2">
            <Value index="0">
              0
            </Value>
            <Value index="1">
              1.4142135624
            </Value>
          </InformationKey>
        </DataArray>
      </Points>
      <Cells>
        <DataArray type="Int64" Name="connectivity" format="ascii" RangeMin="0" RangeMax="80">
          58 45 44 56 62 50
          45 58 65 52 50 62
          69 60 52 65 73 67
          60 69 76 71 67 73
          78 75 71 76 80 79
          75 78 45 35 34 44
          50 37 35 45 52 41
          37 50 60 48 41 52
          67 54 48 60 71 64
          54 67 75 72 64 71
          79 77 72 75 35 26
          23 34 37 28 26 35
          41 31 28 37 48 39
          31 41 54 46 39 48
          64 55 46 54 72 68
          55 64 77 74 68 72
          26 17 16 23 28 20
          17 26 31 24 20 28
          39 30 24 31 46 40
          30 39 55 49 40 46
          68 61 49 55 74 70
          61 68 17 11 10 16
          20 13 11 17 24 19
          13 20 30 25 19 24
          40 32 25 30 49 42
          32 40 61 53 42 49
          70 66 53 61 11 6
          5 10 13 8 6 11
          19 14 8 13 25 21
          14 19 32 29 21 25
          42 38 29 32 53 51
          38 42 66 63 51 53
          6 3 2 5 8 7
          3 6 14 12 7 8
          21 18 12 14 29 27
          18 21 38 36 27 29
          51 47 36 38 63 59
          47 51 3 1 0 2
          7 4 1 3 12 9
          4 7 18 15 9 12
          27 22 15 18 36 33
          22 27 47 43 33 36
          59 57 43 47
        </DataArray>
        <DataArray type="Int64" Name="offsets" format="ascii" RangeMin="4" RangeMax="256">
          4 8 12 16 20 24
          28 32 36 40 44 48
          52 56 60 64 68 72
          76 80 84 88 92 96
          100 104 108 112 116 120
          124 128 132 136 140 144
          148 152 156 160 164 168
          172 176 180 184 188 192
          196 200 204 208 212 216
          220 224 228 232 236 240
          244 248 252 256
        </DataArray>
        <DataArray type="UInt8" Name="types" format="ascii" RangeMin="9" RangeMax="9">
          9 9 9 9 9 9
          9 9 9 9 9 9
          9 9 9 9 9 9
          9 9 9 9 9 9
          9 9 9 9 9 9
          9 9 9 9 9 9
          9 9 9 9 9 9
          9 9 9 9 9 9
          9 9 9 9 9 9
          9 9 9 9 9 9
          9 9 9 9
        </DataArray>
      </Cells>
    </Piece>
  </UnstructuredGrid>
</VTKFile>
