<?xml version="1.0"?>
<VTKFile type="UnstructuredGrid" version="0.1" byte_order="LittleEndian" header_type="UInt32" compressor="vtkZLibDataCompressor">
  <UnstructuredGrid>
    <Piece NumberOfPoints="81" NumberOfCells="64">
      <PointData>
        <DataArray type="Float64" Name="Velocity" NumberOfComponents="3" format="ascii" RangeMin="0" RangeMax="0.06276946446481742">
          0 0 0 0.012014467807718955 0 0
          0 0 0 -0.0003455663900388621 0.011322954723522663 0
          0.03530782376145979 0 0 0 0 0
          -0.002288794348375048 0.008810941079473646 0 -0.0008073916424316262 0.01056332048564914 0
          -0.00541944383354991 0.00747578041549413 0 0.055168474627280924 0 0
          0 0 0 -0.0015286068511545126 0.005766790166053648 0
          -0.0023475526828518993 0.006641873136326869 0 -0.004037765437994674 0.00494623294032042 0
          -0.00793309351864942 0.004428628375213506 0 0.06276946446481742 0 0
          0 0 0 -0.0009707476726061324 0.0035054671530125787 0
          -0.0029923031694558456 4.649255032932887e-7 0 -0.005863217200719838 0.002793715948023358 0
          -0.00261355632012116 0.003052199976692351 0 -0.008940522715162564 -3.4707438332975116e-7 0
          0.055168474627280924 0 0 0 0 0
          -0.0037870178253558364 0.0017007644503983976 0 -0.00654356398024063 3.927600930391623e-7 0
          -0.0006454073629664465 0.0020708750241354257 0 -0.002350381736749263 -0.006641369199615639 0
          -0.0017568716603415403 0.0018333214379796321 0 -0.007930492966446306 -0.004428528232070915 0
          -0.004206927188171961 1.9711045512951378e-7 0 -0.0025553268258827855 0.0010199453458984346 0
          -0.005863892797793944 -0.002793134121349953 0 0.0353078237614598 0 0
          0 0 0 -0.0004701279411766989 0.0010631697166882392 0
          -0.0008093906040462537 -0.0105641194253911 0 -0.0012640126395138459 0.0009689864027118874 0
          -0.005416378295774391 -0.007473659778669097 0 -0.0028403170899162717 2.43119047826341e-7 0
          -0.003786528788017551 -0.0017002012106892633 0 -0.0018334632170054273 0.0005371399779989935 0
          -0.004038416416952346 -0.004945840667264887 0 0.012014467807718957 0 0
          0 0 0 -0.00033434130988903033 0.00033547407102600473 0
          -0.0025554358616511476 -0.001019484585216511 0 -0.0003431568589179129 -0.011320283042570742 0
          -0.002037624936974863 1.4909024969792576e-7 0 -0.0026130589504909 -0.0030512488342159514 0
          -0.0009438023406017225 0.0003279719629034204 0 -0.002288118393338291 -0.008808063558227233 0
          -0.0013993491694356552 0.00017676496494628297 0 -0.0015286402587498659 -0.005766042870489891 0
          -0.0018334230391925878 -0.0005368191197774334 0 -0.001756994750125508 -0.0018328768857991014 0
          0 0 0 0 0 0
          0 0 0 0 0 0
          -0.0015618176897232172 8.210796491901109e-8 0 -0.0009706707511437627 -0.0035045229574400738 0
          0 0 0 0 0 0
          -0.0012639950756805983 -0.0009686089309262439 0 0 0 0
          0 0 0 -0.0013993829822201193 -0.00017660270237006574 0
          -0.00064547184861545 -0.0020704200206058385 0 0 0 0
          0 0 0 -0.0009438655357125497 -0.0003278090453077414 0
          -0.00047018038189142414 -0.0010628201670132265 0 0 0 0
          0 0 0 -0.0003344302386278201 -0.000335308034957817 0
          0 0 0 0 0 0
          0 0 0 0 0 0
          0 0 0
          <InformationKey name="L2_NORM_RANGE" location="vtkDataArray" length="2">
            <Value index="0">
              0
            </Value>
            <Value index="1">
              0.062769464465
            </Value>
          </InformationKey>
        </DataArray>
        <DataArray type="Float64" Name="Pressure" format="ascii" RangeMin="0" RangeMax="1.1210194334145587">
          0 0.025877372148012157 0.1564052079356459 0.19788482003475316 0.07735803854842632 0.3215099919313174
          0.3301502400893776 0.2670031074124699 0.37637995036505933 0.27123583558343567 0.4172723310871208 0.41489913497952835
          0.3915955676276881 0.4409524523638003 0.4576300592428419 0.5607557090292166 0.4719028156514884 0.4690911987422419
          0.5607520608483038 0.4934735350830562 0.4843671702274718 0.5607409680358407 0.850259222419277 0.5037968279969072
          0.5177347319486068 0.5607423069754834 0.5015250913028488 0.7298943315286821 0.5110963840690891 0.6638488352592118
          0.5607428344609026 0.532729098751099 0.6280084192601454 1.0441012404253933 0.5207044286480936 0.5190077993862237
          0.8544544009321676 0.5257240093265516 0.7450895125429573 0.5607444454011237 0.603750336432434 0.5409619924727392
          0.6805233816717289 1.0955198225854794 0.5266549359691483 0.5259097553841241 0.5887595434928273 0.9235225850462205
          0.5607456797307598 0.6371164338896572 0.531621397818628 0.7913080261339749 0.544265678863611 0.7065731521584656
          0.5805294477328886 0.6103918368991946 0.5263068568626252 1.1210194334145587 0.5258862294528143 0.9649930387053447
          0.5607464841012695 0.6523916515312334 0.5313418410619971 0.7999481783401585 0.5957677414257726 0.5440757766455324
          0.7042019407620529 0.5772274518223468 0.6199635494142418 0.5607468175432819 0.649581208322303 0.5898722792758448
          0.6024847944054921 0.5774180356380295 0.617693251757713 0.5955850406817818 0.5901525887176919 0.6007895096155426
          0.5956095987738756 0.5948413138949267 0.5951906909092619
        </DataArray>
        <DataArray type="Float64" Name="stream" format="ascii" RangeMin="-0.003408012186220149" RangeMax="0.00033085052820264714">
          0.000010810834192419663 0.00011101461051105804 0 -0.0006573212540402081 0.0002556705730895376 9.558366747257243e-7
          -0.0005610931390067947 -0.001949184692594167 -0.0015870817841520976 0.00033085052820264714 0.000010196582841583233 -0.00034483308886432677
          -0.002988874851127267 -0.001007443330722912 -0.0023485376522757607 0.00032010157327383437 0.000015264503614687342 -0.0002007534548557142
          -0.003408012186220149 -0.0014920028198579481 -0.0006052349254049713 -0.0026425778803765287 0.00022084518797373933 0.000018869858680024524
          -0.0008992118847197063 -0.0016722707299641894 -0.00010718021053790593 -0.0030410442069711582 -0.0003435973190002709 -0.0023697490672596575
          -0.0010067207537769636 -0.0005151675137524727 -0.0015036609432610452 0.00006519585653027546 0.000021399607326032295 -0.000042508718751384744
          -0.002044912457885446 -0.00016353014678912543 -0.0016213940103891498 -0.0005751354961680439 -0.0009025894131047038 -0.00025121075587081784
          -0.0010214409264287063 0.000010327608798738094 0.000023234140214361377 0.000005138375199888306 -0.0005111246055893186 -0.0007031465090006047
          -0.00027958967724067663 -0.0006051118354045346 -0.000030448028624107584 -0.0005580003719733147 -0.00005571415064352447 -0.00033644762396746084
          -0.00024319454986447466 -0.0003337508382290307 0.000023234140214361377 0.00004251819680023108 0.00002463442364115704 0.000023444688980148935
          -0.00006168298515562667 -0.00018679241637807657 0.000026587020652328556 0.00001751089860805926 -0.00014800007801448037 0.000029166096549266268
          0.00003322412611919421 -0.00004748980304739927 -0.00008869283710057932 0.00003254835850067034 0.000037379232631079557 -0.000015080649919349932
          -0.000021462291186027888 0.00003625999592101426 0.00004161330549375834 0.00002446045990475258 0.00004008547099184934 0.00004374108302626493
          0.00004251819680023108 0.00004396770444492361 0.00004251819680023108
        </DataArray>
        <DataArray type="Float64" Name="Sigma" NumberOfComponents="6" format="ascii" RangeMin="4.81324836144406e-9" RangeMax="0.0038964308949583624">
          0.000730100196201235 0.0000026016454210143434 0 -0.00000159461745708441 0 0
          0.0014677021060266195 -0.001081522650712082 0 0.0007169722020663454 0 0
          -0.00002770245291306123 -0.000003396087416102531 0 0.0007103488424997466 0 0
          -0.0001027188242819012 -0.00023863331016352453 0 0.0004962124469969243 0 0
          0.0019448422469285132 -0.0010099922337459385 0 0.002132099625408646 0 0
          -0.00013799870384017252 5.273256943236287e-7 0 0.000506289872622478 0 0
          -0.00017565962639027008 0.0003290802023845156 0 0.00004094250488581021 0 0
          -0.0001850029435325373 -0.00015596496134231475 0 0.0005743445746881038 0 0
          -0.00019749610767261878 0.00033126515808717233 0 -0.00036648905850516426 0 0
          0.001148831198586385 -0.0006444707276291418 0 0.0034288985566800156 0 0
          -0.00009173807504009269 -5.86131999640801e-7 0 0.00034343382587008047 0 0
          -0.00013714362005901073 0.00014190309197390177 0 0.00006271484834483772 0 0
          -0.00007666523870598648 -0.00009916030535942299 0 0.0009425056032510678 0 0
          -0.00014565282131656643 0.00008888769048124783 0 -0.00012118513970445315 0 0
          -0.0001440549125539837 0.0002270992187684554 0 -0.0005061906619297593 0 0
          -0.00001703133030300963 8.467707695509259e-7 0 0.003896393580729929 0 0
          -0.00006201228742034477 -4.536184055847382e-8 0 0.00021387623547062571 0 0
          -0.00008909573740415376 0.00012804631522074188 0 0.00002852970967452261 0 0
          0.00012489645452904577 -0.0000032663409246557032 0 0.0010038360025874703 0 0
          -0.00007389080446128922 0.000054819626031925496 0 -0.0000717790072674346 0 0
          -0.00009289190628797395 0.00010262643698722981 0 -0.00012896390962196773 0 0
          -0.000034577148075993976 0.0000017250367477920842 0 -0.0006713747058700571 0 0
          -0.0011925165887657456 0.0006362156378880608 0 0.0033771104014611456 0 0
          -0.000042773495063442754 -6.305234633865648e-8 0 0.00012977251832039293 0 0
          -0.000049565550158106426 0.00006024469359778465 0 -0.00014294148953915067 0 0
          0.000009443013481198385 -6.130969612290929e-7 0 -0.00010700753696587733 0 0
          -0.00006187863134658576 0.00007624422378650332 0 0.000019887318164004113 0 0
          0.0002650257229767872 0.00010702893745132778 0 0.001003530047424823 0 0
          -0.00006402746308287696 0.0000547295542012952 0 -0.00006470510709493844 0 0
          0.00009181070844291681 -0.0002294936716850719 0 -0.0005312078963405289 0 0
          -0.000002405688871873213 1.746252972322863e-7 0 -0.0001834332052152244 0 0
          -0.00003252201335226975 0.00003142888494066812 0 -0.000059435090804793124 0 0
          0.00008799482254458206 -0.00005382187119272032 0 -0.00006362014595201548 0 0
          -0.0019529199000429018 0.000984172432730819 0 0.002083050328504496 0 0
          -0.00003093513715675025 -1.026449337970689e-8 0 0.00006929491928677376 0 0
          -0.000044156659066344626 0.00006122538970563983 0 0.000013097536972737674 0 0
          0.0002524848776621043 0.00018561898440109763 0 0.0006346008251004127 0 0
          -0.00004528671001949619 0.00004627704629005041 0 -0.000031522975269697155 0 0
          0.0001788937800480645 -0.00034613640337969166 0 -0.0003928516803042722 0 0
          6.792151997578443e-7 -5.41151968538089e-8 0 -0.00007698637171070261 0 0
          0.00004592475292967999 -0.0000603521228660608 0 -0.0001450735386323381 0 0
          -0.000023231841752816004 0.000026602814988569402 0 -0.000029778098407675213 0 0
          0.00015075968916872698 -0.00008505915307303706 0 -0.00011415890450308712 0 0
          -0.001479088773843728 0.0010595392256736603 0 0.0007045303269313733 0 0
          -0.000025915158118074886 -1.9067360449257862e-9 0 0.000024066922303642984 0 0
          -0.00003755654730245238 0.00003910041735708513 0 -0.0000027917352661144326 0 0
          0.00003354025652989892 -0.00003134246809696847 0 -0.000058723962911923814 0 0
          0.00010344604960583733 0.0002681743173743782 0 0.00051020323812143 0 0
          -1.7159001052690063e-7 2.235246923306094e-8 0 -0.00003951250520518311 0 0
          0.00009162593477612707 -0.00010396325759900137 0 -0.0001313533145612311 0 0
          -0.00003929260008272135 0.0000296112402643261 0 -0.000029382371918926694 0 0
          0.0001752240979178346 -0.00033631432992887143 0 0.00003651200390701957 0 0
          -0.000020265701060694587 0.000016852042520653404 0 -0.0000358151920411553 0 0
          0.0001372225240392423 -0.00013697425513953558 0 0.0000645895777715661 0 0
          0.000022965455025446106 -0.00002659157771348865 0 -0.00002995523805175753 0 0
          0.00006441484212908439 -0.00005442642288564897 0 -0.00006414147844825517 0 0
          -6.916591152096063e-10 -4.335229362002973e-9 0 -5.8970625281695116e-9 0 0
          -0.0007110304226981362 0.0000022318995803968272 0 0.0000014856487521356532 0 0
          5.25273209465177e-9 0.000024355659868261235 0 -0.0000225556262149709 0 0
          0.00002887597386544054 -0.000002910250195579666 0 0.0007071096945395122 0 0
          8.691284114768051e-8 -5.434044783375884e-9 0 -0.00004125916703321919 0 0
          0.00008904294069652764 -0.00012819148404376326 0 0.000028387477211204202 0 0
          -5.571784598516748e-9 0.00001928463801768654 0 -0.0000575909702729918 0 0
          0.00013805854344811508 4.806537272782456e-7 0 0.000506465746195955 0 0
          0.00004520210020554094 -0.00004636744772373722 0 -0.000031747028260254325 0 0
          -1.9510494352275304e-8 0.000010719853740955337 0 -0.00008244041590034328 0 0
          0.00009178678891734946 -6.587501741224392e-7 0 0.0003427399857542396 0 0
          0.000020398888780725947 -0.00001684544859065059 0 -0.00003574201063059426 0 0
          0.00006187664547893906 -0.000075709420050424 0 0.000020075130504441906 0 0
          -3.0194775254572785e-8 1.3518303536554572e-8 0 -0.00009125027399593249 0 0
          0.00006202539178219495 -8.73872791531995e-9 0 0.00021373695988014714 0 0
          0.000039352158341672746 -0.00002957675430285552 0 -0.000029316455216075814 0 0
          0.000044140288185719253 -0.00006120264787861558 0 0.000013094840695604835 0 0
          -2.5483869148444893e-8 -0.000010700475068670511 0 -0.00008247919554134487 0 0
          0.000042793363613883654 -7.508778407806085e-8 0 0.00012965775481614826 0 0
          0.00003755652494589955 -0.00003905491468928947 0 -0.000002770203383665922 0 0
          -1.3331773636439082e-8 -0.00001927833298217574 0 -0.00005763018060950463 0 0
          0.00003095233295001344 -1.75055198883649e-9 0 0.00006925550930872761 0 0
          -2.4914751822356936e-9 -0.000024350815625976886 0 -0.000022570695777640742 0 0
          0.000025927229535168393 -2.8607510646180615e-9 0 0.000024046583633716622 0 0
          -3.247338220965724e-9 3.1244158625425e-9 0 -1.6912066063884382e-9 0 0
          <InformationKey name="L2_NORM_RANGE" location="vtkDataArray" length="2">
            <Value index="0">
              4.8132483614e-09
            </Value>
            <Value index="1">
              0.003896430895
            </Value>
          </InformationKey>
        </DataArray>
      </PointData>
      <CellData>
        <DataArray type="UInt8" Name="vtkGhostType" format="ascii" RangeMin="0" RangeMax="0">
          0 0 0 0 0 0
          0 0 0 0 0 0
          0 0 0 0 0 0
          0 0 0 0 0 0
          0 0 0 0 0 0
          0 0 0 0 0 0
          0 0 0 0 0 0
          0 0 0 0 0 0
          0 0 0 0 0 0
          0 0 0 0 0 0
          0 0 0 0
        </DataArray>
        <DataArray type="Float64" Name="NN-Viscosity" format="ascii" RangeMin="0.0000018607548682491984" RangeMax="0.00017938580471589115">
          0.0000018610867462328242 0.000004368809555730766 0.000005332375095199424 0.000006258226216550843 0.000006285283639403995 0.000005373723893543139
          0.000004377649248387519 0.0000018607548682491984 0.000004782464600875451 0.000011566959640620658 0.000013578813127152729 0.000008726445416222629
          0.000008790881577908998 0.00001367808863472039 0.000011575637621810714 0.000004779802990480128 0.000007106452692324911 0.000014293129298119392
          0.00001821457643671038 0.000011120055458774897 0.000011308263850078505 0.00001866852613944468 0.000014358705102769527 0.000007096135065338809
          0.000010558492896519387 0.00001850113646899794 0.00003057866360615097 0.000026326846560464773 0.000027102396660713037 0.00003175769610856665
          0.000018854188495018388 0.000010548548673762351 0.00001768962581784945 0.00004342906495170793 0.0001325062470113132 0.0001272018965984349
          0.00012694390725671598 0.00013412653201981905 0.000046739589655604306 0.000017979202778679534 0.00004667074858352662 0.00009428565364326355
          0.0001492670116073771 0.0001433143454556807 0.0001443747851091119 0.0001495415850977605 0.00009689758763128386 0.00004812089037083998
          0.00010970392684436363 0.00007935919739070107 0.00007741459040888881 0.00005386442025327956 0.00006218939012627815 0.00008485407329294678
          0.00008005804399977936 0.00010896771369329798 0.00005940883248969772 0.00012948143534408292 0.0001672028834879391 0.0001478162482300499
          0.00016285781364615542 0.00017938580471589115 0.00013209780635629436 0.00005974010127639978
        </DataArray>
      </CellData>
      <Points>
        <DataArray type="Float32" Name="Points" NumberOfComponents="3" format="ascii" RangeMin="0" RangeMax="1.4142135623730951">
          0 1 0 0.125 1 0
          0 0.875 0 0.125 0.875 0
          0.25 1 0 0 0.75 0
          0.125 0.75 0 0.25 0.875 0
          0.25 0.75 0 0.375 1 0
          0 0.625 0 0.125 0.625 0
          0.375 0.875 0 0.25 0.625 0
          0.375 0.75 0 0.5 1 0
          0 0.5 0 0.125 0.5 0
          0.5 0.875 0 0.375 0.625 0
          0.25 0.5 0 0.5 0.75 0
          0.625 1 0 0 0.375 0
          0.375 0.5 0 0.5 0.625 0
          0.125 0.375 0 0.625 0.875 0
          0.25 0.375 0 0.625 0.75 0
          0.5 0.5 0 0.375 0.375 0
          0.625 0.625 0 0.75 1 0
          0 0.25 0 0.125 0.25 0
          0.75 0.875 0 0.25 0.25 0
          0.75 0.75 0 0.5 0.375 0
          0.625 0.5 0 0.375 0.25 0
          0.75 0.625 0 0.875 1 0
          0 0.125 0 0.125 0.125 0
          0.625 0.375 0 0.875 0.875 0
          0.5 0.25 0 0.75 0.5 0
          0.25 0.125 0 0.875 0.75 0
          0.375 0.125 0 0.875 0.625 0
          0.625 0.25 0 0.75 0.375 0
          0 0 0 1 1 0
          0.125 0 0 1 0.875 0
          0.5 0.125 0 0.875 0.5 0
          0.25 0 0 1 0.75 0
          0.75 0.25 0 0.375 0 0
          1 0.625 0 0.625 0.125 0
          0.875 0.375 0 0.5 0 0
          1 0.5 0 0.75 0.125 0
          0.875 0.25 0 0.625 0 0
          1 0.375 0 0.875 0.125 0
          0.75 0 0 1 0.25 0
          0.875 0 0 1 0.125 0
          1 0 0
          <InformationKey name="L2_NORM_RANGE" location="vtkDataArray" length="2">
            <Value index="0">
              0
            </Value>
            <Value index="1">
              1.4142135624
            </Value>
          </InformationKey>
        </DataArray>
      </Points>
      <Cells>
        <DataArray type="Int64" Name="connectivity" format="ascii" RangeMin="0" RangeMax="80">
          58 45 44 56 62 50
          45 58 65 52 50 62
          69 60 52 65 73 67
          60 69 76 71 67 73
          78 75 71 76 80 79
          75 78 45 35 34 44
          50 37 35 45 52 41
          37 50 60 48 41 52
          67 54 48 60 71 64
          54 67 75 72 64 71
          79 77 72 75 35 26
          23 34 37 28 26 35
          41 31 28 37 48 39
          31 41 54 46 39 48
          64 55 46 54 72 68
          55 64 77 74 68 72
          26 17 16 23 28 20
          17 26 31 24 20 28
          39 30 24 31 46 40
          30 39 55 49 40 46
          68 61 49 55 74 70
          61 68 17 11 10 16
          20 13 11 17 24 19
          13 20 30 25 19 24
          40 32 25 30 49 42
          32 40 61 53 42 49
          70 66 53 61 11 6
          5 10 13 8 6 11
          19 14 8 13 25 21
          14 19 32 29 21 25
          42 38 29 32 53 51
          38 42 66 63 51 53
          6 3 2 5 8 7
          3 6 14 12 7 8
          21 18 12 14 29 27
          18 21 38 36 27 29
          51 47 36 38 63 59
          47 51 3 1 0 2
          7 4 1 3 12 9
          4 7 18 15 9 12
          27 22 15 18 36 33
          22 27 47 43 33 36
          59 57 43 47
        </DataArray>
        <DataArray type="Int64" Name="offsets" format="ascii" RangeMin="4" RangeMax="256">
          4 8 12 16 20 24
          28 32 36 40 44 48
          52 56 60 64 68 72
          76 80 84 88 92 96
          100 104 108 112 116 120
          124 128 132 136 140 144
          148 152 156 160 164 168
          172 176 180 184 188 192
          196 200 204 208 212 216
          220 224 228 232 236 240
          244 248 252 256
        </DataArray>
        <DataArray type="UInt8" Name="types" format="ascii" RangeMin="9" RangeMax="9">
          9 9 9 9 9 9
          9 9 9 9 9 9
          9 9 9 9 9 9
          9 9 9 9 9 9
          9 9 9 9 9 9
          9 9 9 9 9 9
          9 9 9 9 9 9
          9 9 9 9 9 9
          9 9 9 9 9 9
          9 9 9 9 9 9
          9 9 9 9
        </DataArray>
      </Cells>
    </Piece>
  </UnstructuredGrid>
</VTKFile>
