<?xml version="1.0"?>
<VTKFile type="UnstructuredGrid" version="0.1" byte_order="LittleEndian" header_type="UInt32" compressor="vtkZLibDataCompressor">
  <UnstructuredGrid>
    <Piece NumberOfPoints="81" NumberOfCells="64">
      <PointData>
        <DataArray type="Float64" Name="Velocity" NumberOfComponents="3" format="ascii" RangeMin="0" RangeMax="0.047090654864698045">
          0 0 0 0.00901344565769611 0 0
          0 0 0 -0.00037584544943208636 0.0076250243439673435 0
          0.026488493361392654 0 0 0 0 0
          -0.0015468158355132643 0.0057026843327721705 0 -0.0015770537324932314 0.006956193186437904 0
          -0.003530428382678951 0.0044612637067608 0 0.04138827087717602 0 0
          0 0 0 -0.0010441659670618038 0.0038014809400411546 0
          -0.003367700179169791 0.004423783099313423 0 -0.0025602290202673098 0.0029505764251966833 0
          -0.005159960241211481 0.002700882367285747 0 0.047090654864698045 0 0
          0 0 0 -0.0006960741753194722 0.002373229227829132 0
          -0.004073549226702344 2.5568160347382146e-7 0 -0.0036636995879015277 0.0016919144580909917 0
          -0.0016819801738001412 0.0018334690190850863 0 -0.005813677309184815 -5.844138302707345e-8 0
          0.04138827087717602 0 0 0 0 0
          -0.0023705686208720825 0.0010338056655544543 0 -0.004077127310915598 2.507665480348052e-7 0
          -0.00047450568326432854 0.001439974579270191 0 -0.003368962415783722 -0.004423396243930294 0
          -0.0011562241980508292 0.0011231059245988865 0 -0.0051587319233541915 -0.0027006747129303455 0
          -0.002616653666895875 1.6363465717122921e-7 0 -0.0016295609790494968 0.0006286767412595229 0
          -0.003663975204279207 -0.001691464323398272 0 0.026488493361392657 0 0
          0 0 0 -0.0003449721807992579 0.0007722372285849897 0
          -0.0015777655771474384 -0.006956493907667297 0 -0.0008349885329598953 0.0006124594167685669 0
          -0.0035289403206016086 -0.004460182226915297 0 -0.0017975562287641258 1.6544030590281642e-7 0
          -0.00237033659700783 -0.0010334054240503175 0 -0.0011717985481559696 0.0003406676743112284 0
          -0.0025604758240494034 -0.0029501679307700436 0 0.009013445657696111 0 0
          0 0 0 -0.0002749980428021565 0.0002702143634040238 0
          -0.0016296058194929341 -0.0006283493190260401 0 -0.00037406044804665875 -0.007623062518513647 0
          -0.001291129441657177 1.0661325759506593e-7 0 -0.0016817361126742092 -0.0018329053991371388 0
          -0.0006879014777699603 0.00022462431059645045 0 -0.0015465585330639694 -0.005701081120514819 0
          -0.000978029944408932 0.000122753711828541 0 -0.0010441056196974722 -0.0038008094645870924 0
          -0.0011717769990349468 -0.00034044381428198625 0 -0.001156273564088438 -0.0011227793331286971 0
          0 0 0 0 0 0
          0 0 0 0 0 0
          -0.0010801411624820612 5.7733907810662914e-8 0 -0.0006960391798089059 -0.0023725992103579914 0
          0 0 0 0 0 0
          -0.0008349752893247728 -0.0006122130660560494 0 0 0 0
          0 0 0 -0.0009780445318298438 -0.0001226380058554579 0
          -0.0004745313061561325 -0.0014396032282895284 0 0 0 0
          0 0 0 -0.000687929181756748 -0.00022450898273761825 0
          -0.0003449971488506132 -0.0007719774686427019 0 0 0 0
          0 0 0 -0.00027504275841484376 -0.0002700877592440789 0
          0 0 0 0 0 0
          0 0 0 0 0 0
          0 0 0
          <InformationKey name="L2_NORM_RANGE" location="vtkDataArray" length="2">
            <Value index="0">
              0
            </Value>
            <Value index="1">
              0.047090654865
            </Value>
          </InformationKey>
        </DataArray>
        <DataArray type="Float64" Name="Pressure" format="ascii" RangeMin="0" RangeMax="0.8478803690932237">
          0 0.011720375088741459 0.10085050610129002 0.1268914203599846 0.05509473757442648 0.21765558583554018
          0.2274047092050639 0.18212064663934527 0.26726027062209445 0.2048579440742825 0.2931589215162826 0.296451094248815
          0.2849002060014531 0.3214220818928027 0.3364126151825332 0.42408584088997353 0.34008452876455614 0.3417970087115821
          0.4240850147237303 0.3668327360529776 0.35758428010745097 0.42408248177978686 0.643305865171298 0.3686465344631562
          0.387028388139689 0.42408450264023356 0.36957543846157415 0.5632627194538323 0.37992663346080097 0.5117497373019156
          0.4240866743876809 0.39946759190360587 0.48133472984810044 0.7930486984614455 0.3845873084911007 0.38515718456878223
          0.6660241698334588 0.3925152406488975 0.5808943699468747 0.42408898169636505 0.4611444801052583 0.4064769518666672
          0.5267417483383935 0.8363839316432488 0.39137812701971236 0.3920408383850843 0.44871023400426996 0.7212202398005796
          0.42409076107596183 0.49058750284608377 0.39812290237525844 0.620741548506777 0.40959630974766126 0.5517099079888386
          0.44170461964502417 0.46825097596901366 0.39225450687755214 0.8478803690932237 0.39299921104793983 0.7472541401565608
          0.4240918789060094 0.506374136480776 0.3988161686721823 0.6304886202293092 0.4556665388841736 0.40998855440058596
          0.5550022237808042 0.4385875563739625 0.47860237545935 0.4240923105192927 0.5080870774277642 0.4500613214640383
          0.46302512545895635 0.43819618489394657 0.47953197813054216 0.4561440678650321 0.4493689567666056 0.4635957473649357
          0.45518669139931395 0.45680757546773637 0.4559322740473255
        </DataArray>
        <DataArray type="Float64" Name="stream" format="ascii" RangeMin="-0.002293638529710336" RangeMax="0.0003882778444820557">
          0.00003164299575927123 0.00015468691637988513 0 -0.0004344655647891446 0.00030622122579241674 2.509951173279828e-9
          -0.0003671911660375207 -0.0013015237718601454 -0.0010110756420311493 0.0003882778444820557 0.00000808632130737825 -0.00022629116091607413
          -0.0020031441930229103 -0.0006407234078086705 -0.0014756219491504107 0.0003782945889069262 0.000013764909661052782 -0.00013198410272249083
          -0.002293638529710336 -0.0009315686524650241 -0.0003881369512398615 -0.0016601537396677445 0.0002733377402105975 0.0000181175696566355
          -0.0005641248786296266 -0.0010423346684545524 -0.00006886585019200039 -0.0020544390506493323 -0.00022132368781122122 -0.0014946320178791854
          -0.0006296357888282265 -0.00032484681531982424 -0.0009421704473243813 0.00010932779920372115 0.00002124226301711053 -0.000024825906396849226
          -0.0013950593359583429 -0.0001053021433190312 -0.0010448887943416835 -0.00036086338561455754 -0.0005675198538476237 -0.00015913217964803279
          -0.0006575804188784452 0.000029684319022612885 0.00002363435483558056 0.000009923762313000188 -0.00032169548768753975 -0.00048778716521686997
          -0.00017585792742068319 -0.0003913842374767758 -0.000014759522117382297 -0.00037173335954354523 -0.000030588830643797566 -0.00022136917687030764
          -0.0001520811740424543 -0.00021459548486294237 0.00002363435483558056 0.00004100042086563175 0.000025372747411857763 0.000014827331527932357
          -0.00003367760327972367 -0.0001204728783538318 0.000026803533827548993 0.000012792315677131349 -0.00009211029008873866 0.000028670787354654837
          0.000028590917766008694 -0.000023390122757448332 -0.000052553651192321606 0.00003125100336502999 0.00003440749657958721 -0.0000011186086938599543
          -0.000005459305974263663 0.00003449433192347345 0.00003921098572070283 0.000027418577807789707 0.000038185648544705123 0.00004189485334076848
          0.00004100042086563175 0.000042649741813088195 0.00004100042086563175
        </DataArray>
        <DataArray type="Float64" Name="Sigma" NumberOfComponents="6" format="ascii" RangeMin="4.144351486974134e-9" RangeMax="0.0024687012601005984">
          0.00043123149061124 8.305341729880817e-7 0 -6.865916957857603e-7 0 0
          0.0008698766915769937 -0.0005831391357468517 0 0.0004423769197200531 0 0
          -0.000012946401467144664 -0.0000010503101960014593 0 0.0004126422213550339 0 0
          -0.00008476234472723444 -0.00012524339849440992 0 0.0002881075478495328 0 0
          0.0011524176129951592 -0.0005395077437078781 0 0.0013460715065906135 0 0
          -0.0000734757302393046 1.8171355077160574e-7 0 0.00029758285951571697 0 0
          -0.00008827772089580545 0.00017988549798154344 0 0.000010081583057034923 0 0
          -0.00015097883887623542 -0.00007252895604234342 0 0.0003386614384638919 0 0
          -0.00009732767263817924 0.00018509353728818955 0 -0.00025445077398938645 0 0
          0.0006816230793118786 -0.00034770657606514533 0 0.0021667876064452502 0 0
          -0.00005257429310537422 -1.8953314877027492e-7 0 0.0002070715130133293 0 0
          -0.00007095481540240758 0.00006857079804282913 0 0.00003482603884582006 0 0
          -0.00007284756937910181 -0.000047255219950318024 0 0.0005568574228636055 0 0
          -0.00007261936209500855 0.00003735468374115801 0 -0.00006055394482641531 0 0
          -0.00007206277153599388 0.00012573294588033397 0 -0.00034823870350680165 0 0
          -0.000012366030732422508 4.3310931550145573e-7 0 0.0024686702504227915 0 0
          -0.00003719266414359622 -1.750352942155607e-8 0 0.00013214876462264952 0 0
          -0.000046062474452418475 0.00006759480088685341 0 0.000011596165284255587 0 0
          0.00006089428535078919 -0.000001161480659455876 0 0.0005836498978703034 0 0
          -0.000037858004032126225 0.00002443633964357528 0 -0.000015218525807732543 0 0
          -0.00004452973347950594 0.000051587528484863645 0 -0.0000819811724654175 0 0
          -0.000016826069328077978 6.412431198226823e-7 0 -0.0004567931222679326 0 0
          -0.0007082601419917308 0.00034522516908885815 0 0.0021445045648385876 0 0
          -0.00002626233935848456 -2.2164630953962517e-8 0 0.00008177523470255807 0 0
          -0.00002417105973695724 0.00003088478437172041 0 -0.00008448157534315338 0 0
          0.000004544253560079968 -2.3605240415075374e-7 0 -0.000038782423864898674 0 0
          -0.000032729053975515766 0.0000402181321829258 0 0.000008682867224676881 0 0
          0.0001650254260134344 0.00004951933612875077 0 0.000581646879475857 0 0
          -0.000031264590136037975 0.000025808800071205018 0 -0.000039747128966138384 0 0
          0.000046550592733168476 -0.00012632612831051996 0 -0.0003582994325773988 0 0
          -0.000001182559638378297 6.804871970598408e-8 0 -0.00011252839714017722 0 0
          -0.000016043730095193854 0.000015288173517737905 0 -0.000030375323010819653 0 0
          0.000044713830482261686 -0.00002418241720284193 0 -0.000011898850763383154 0 0
          -0.0011589453889785696 0.0005310108759732723 0 0.0013248834719841835 0 0
          -0.000018805919781836426 -5.3492495629475965e-9 0 0.00004516682892398827 0 0
          -0.000023219370917041855 0.00003273407143164339 0 0.0000067992466395330196 0 0
          0.00018393951091550217 0.00008199346778032038 0 0.00036323081063318707 0 0
          -0.000021923296352688073 0.00002252620343176852 0 -0.000019705335738183164 0 0
          0.00008811455305647437 -0.00018975278678939338 0 -0.0002649838789841703 0 0
          3.250969410175804e-7 -2.0164916428483636e-8 0 -0.000042763572656659346 0 0
          0.00002237318794000454 -0.0000309017138943903 0 -0.00008535931468034006 0 0
          -0.000011276350947382578 0.0000131577853173648 0 -0.000015296458539914342 0 0
          0.00007510408539755072 -0.000036109525504378256 0 -0.00005759977705610713 0 0
          -0.0008751938181072011 0.0005760748361895756 0 0.0004371952339771701 0 0
          -0.00001715683937227359 -1.755931537329128e-10 0 0.000017348504089868846 0 0
          -0.000021357631386278007 0.000022293614387210816 0 -0.000002173406552966814 0 0
          0.000016534945569620902 -0.000015263916927195707 0 -0.00003008389118919183 0 0
          0.0000855062905004632 0.00013428962384967946 0 0.00029358656765423154 0 0
          -8.49050379668556e-8 9.244311774502934e-9 0 -0.000022497449028013497 0 0
          0.0000438861052100599 -0.00005202076733439831 0 -0.00008297458479624213 0 0
          -0.00002037317740668008 0.000015023276955881226 0 -0.00001794471578637642 0 0
          0.00008803341695895424 -0.0001822663077382879 0 0.00000816302122189181 0 0
          -0.000010451575220070247 0.000008725732499542977 0 -0.000019668381564795495 0 0
          0.00007101788252426574 -0.00006700549115139683 0 0.00003562593497591115 0 0
          0.000011145118459248267 -0.000013150229477498398 0 -0.00001536867464088313 0 0
          0.00003144824172113858 -0.00002571230549664532 0 -0.00003951172958209503 0 0
          1.4405668461898456e-9 -3.5529394560703726e-9 0 -2.7825892643000955e-9 0 0
          -0.0004227580321446529 7.03986139136831e-7 0 5.79825236478771e-7 0 0
          1.6628485958229396e-9 0.000015897300220142746 0 -0.000016497499569941646 0 0
          0.000013097694364832624 -8.918124225579811e-7 0 0.000411410585305295 0 0
          3.71092651015256e-8 -8.213792841792527e-10 0 -0.000023516554581664164 0 0
          0.000046038273215863753 -0.00006765115735750086 0 0.000011515195131465372 0 0
          -2.6309914557985566e-9 0.000011060333432862388 0 -0.00003756242621334264 0 0
          0.00007347463630131758 1.4649371671828308e-7 0 0.00029771547033225187 0 0
          0.000021878491797270334 -0.00002255476588914276 0 -0.000019800337064436533 0 0
          -9.746387901906442e-9 0.000006364182685815818 0 -0.000052118544199575815 0 0
          0.00005257554696379703 -2.069581917126114e-7 0 0.00020676774611877167 0 0
          0.000010508635570347382 -0.000008721524115227645 0 -0.00001963796105517229 0 0
          0.000032732109308511696 -0.00004003956710901279 0 0.000008767149880492423 0 0
          -1.4782266120509301e-8 5.559339667561239e-9 0 -0.000057270257362676416 0 0
          0.000037193226078904615 -2.9516487805021067e-9 0 0.00013208716019493064 0 0
          0.000020398792300711153 -0.00001501083511852337 0 -0.000017918164357211106 0 0
          0.000023213876147907754 -0.00003272122889076818 0 0.000006796532140337831 0 0
          -1.2568305257403681e-8 -0.000006355602618946117 0 -0.000052134641653581945 0 0
          0.000026266128344004968 -2.5081965474146516e-8 0 0.00008171616521791314 0 0
          0.000021358402789501196 -0.000022275453810929793 0 -0.0000021625108953070857 0 0
          -6.92137043782788e-9 -0.000011055970680398224 0 -0.00003757858632820374 0 0
          0.00001881046239452992 -4.535623866793575e-10 0 0.000045144985964796413 0 0
          -9.526595418666128e-10 -0.000015892898953342964 0 -0.00001650478042918101 0 0
          0.00001716044573430578 -1.469413629440748e-9 0 0.000017336354327323963 0 0
          -2.7056129981117785e-9 3.089762415121334e-9 0 -5.555859700684443e-10 0 0
          <InformationKey name="L2_NORM_RANGE" location="vtkDataArray" length="2">
            <Value index="0">
              4.144351487e-09
            </Value>
            <Value index="1">
              0.0024687012601
            </Value>
          </InformationKey>
        </DataArray>
      </PointData>
      <CellData>
        <DataArray type="UInt8" Name="vtkGhostType" format="ascii" RangeMin="0" RangeMax="0">
          0 0 0 0 0 0
          0 0 0 0 0 0
          0 0 0 0 0 0
          0 0 0 0 0 0
          0 0 0 0 0 0
          0 0 0 0 0 0
          0 0 0 0 0 0
          0 0 0 0 0 0
          0 0 0 0 0 0
          0 0 0 0 0 0
          0 0 0 0
        </DataArray>
        <DataArray type="Float64" Name="NN-Viscosity" format="ascii" RangeMin="0.000001408012395177636" RangeMax="0.0001348958460998457">
          0.00000140827034772092 0.000003286125961285491 0.0000037348718419066482 0.000004114237753986335 0.000004125228685510898 0.0000037532846442554485
          0.000003290097757075404 0.000001408012395177636 0.000003326256532724633 0.000007510172537455197 0.000010578950249272159 0.0000064221828351889635
          0.000006460338325412633 0.000010638478697719282 0.000007515030080002977 0.0000033247272396867014 0.000004360338636292467 0.000008684999461961991
          0.00001335000716007626 0.000009141395790038838 0.000009252028179102425 0.000013595165539027401 0.000008710604129140043 0.000004354605612809041
          0.000006170253460022634 0.00001148326292283217 0.000021611623068994372 0.00001918067722123416 0.000019462459243525032 0.000022024427384481993
          0.00001164999012648421 0.000006166863791171666 0.000010557718290994005 0.00003040704151460681 0.00007851604172622075 0.00007743080137325657
          0.00007681580510717234 0.00007761566361089498 0.000031799462166888234 0.000010700046196554748 0.00002673599399475497 0.000055216550693807464
          0.00008220601076369428 0.00008150538000216202 0.00008195030743041274 0.00008268586254291322 0.00005620094083691668 0.000027277805124661107
          0.00007184439668146571 0.00005182763479450134 0.00004528782704692144 0.000030382004933229255 0.00003393530231554897 0.000048589572862717493
          0.00005209402134773213 0.00007151153784630737 0.00004100475697373254 0.00009606369089674593 0.00012770098197460955 0.00011503381079258644
          0.00012367251524552766 0.0001348958460998457 0.0000973994585656244 0.00004111096692702368
        </DataArray>
      </CellData>
      <Points>
        <DataArray type="Float32" Name="Points" NumberOfComponents="3" format="ascii" RangeMin="0" RangeMax="1.4142135623730951">
          0 1 0 0.125 1 0
          0 0.875 0 0.125 0.875 0
          0.25 1 0 0 0.75 0
          0.125 0.75 0 0.25 0.875 0
          0.25 0.75 0 0.375 1 0
          0 0.625 0 0.125 0.625 0
          0.375 0.875 0 0.25 0.625 0
          0.375 0.75 0 0.5 1 0
          0 0.5 0 0.125 0.5 0
          0.5 0.875 0 0.375 0.625 0
          0.25 0.5 0 0.5 0.75 0
          0.625 1 0 0 0.375 0
          0.375 0.5 0 0.5 0.625 0
          0.125 0.375 0 0.625 0.875 0
          0.25 0.375 0 0.625 0.75 0
          0.5 0.5 0 0.375 0.375 0
          0.625 0.625 0 0.75 1 0
          0 0.25 0 0.125 0.25 0
          0.75 0.875 0 0.25 0.25 0
          0.75 0.75 0 0.5 0.375 0
          0.625 0.5 0 0.375 0.25 0
          0.75 0.625 0 0.875 1 0
          0 0.125 0 0.125 0.125 0
          0.625 0.375 0 0.875 0.875 0
          0.5 0.25 0 0.75 0.5 0
          0.25 0.125 0 0.875 0.75 0
          0.375 0.125 0 0.875 0.625 0
          0.625 0.25 0 0.75 0.375 0
          0 0 0 1 1 0
          0.125 0 0 1 0.875 0
          0.5 0.125 0 0.875 0.5 0
          0.25 0 0 1 0.75 0
          0.75 0.25 0 0.375 0 0
          1 0.625 0 0.625 0.125 0
          0.875 0.375 0 0.5 0 0
          1 0.5 0 0.75 0.125 0
          0.875 0.25 0 0.625 0 0
          1 0.375 0 0.875 0.125 0
          0.75 0 0 1 0.25 0
          0.875 0 0 1 0.125 0
          1 0 0
          <InformationKey name="L2_NORM_RANGE" location="vtkDataArray" length="2">
            <Value index="0">
              0
            </Value>
            <Value index="1">
              1.4142135624
            </Value>
          </InformationKey>
        </DataArray>
      </Points>
      <Cells>
        <DataArray type="Int64" Name="connectivity" format="ascii" RangeMin="0" RangeMax="80">
          58 45 44 56 62 50
          45 58 65 52 50 62
          69 60 52 65 73 67
          60 69 76 71 67 73
          78 75 71 76 80 79
          75 78 45 35 34 44
          50 37 35 45 52 41
          37 50 60 48 41 52
          67 54 48 60 71 64
          54 67 75 72 64 71
          79 77 72 75 35 26
          23 34 37 28 26 35
          41 31 28 37 48 39
          31 41 54 46 39 48
          64 55 46 54 72 68
          55 64 77 74 68 72
          26 17 16 23 28 20
          17 26 31 24 20 28
          39 30 24 31 46 40
          30 39 55 49 40 46
          68 61 49 55 74 70
          61 68 17 11 10 16
          20 13 11 17 24 19
          13 20 30 25 19 24
          40 32 25 30 49 42
          32 40 61 53 42 49
          70 66 53 61 11 6
          5 10 13 8 6 11
          19 14 8 13 25 21
          14 19 32 29 21 25
          42 38 29 32 53 51
          38 42 66 63 51 53
          6 3 2 5 8 7
          3 6 14 12 7 8
          21 18 12 14 29 27
          18 21 38 36 27 29
          51 47 36 38 63 59
          47 51 3 1 0 2
          7 4 1 3 12 9
          4 7 18 15 9 12
          27 22 15 18 36 33
          22 27 47 43 33 36
          59 57 43 47
        </DataArray>
        <DataArray type="Int64" Name="offsets" format="ascii" RangeMin="4" RangeMax="256">
          4 8 12 16 20 24
          28 32 36 40 44 48
          52 56 60 64 68 72
          76 80 84 88 92 96
          100 104 108 112 116 120
          124 128 132 136 140 144
          148 152 156 160 164 168
          172 176 180 184 188 192
          196 200 204 208 212 216
          220 224 228 232 236 240
          244 248 252 256
        </DataArray>
        <DataArray type="UInt8" Name="types" format="ascii" RangeMin="9" RangeMax="9">
          9 9 9 9 9 9
          9 9 9 9 9 9
          9 9 9 9 9 9
          9 9 9 9 9 9
          9 9 9 9 9 9
          9 9 9 9 9 9
          9 9 9 9 9 9
          9 9 9 9 9 9
          9 9 9 9 9 9
          9 9 9 9 9 9
          9 9 9 9
        </DataArray>
      </Cells>
    </Piece>
  </UnstructuredGrid>
</VTKFile>
