<?xml version="1.0"?>
<VTKFile type="UnstructuredGrid" version="0.1" byte_order="LittleEndian" header_type="UInt32" compressor="vtkZLibDataCompressor">
  <UnstructuredGrid>
    <Piece NumberOfPoints="44" NumberOfCells="60">
      <PointData>
        <DataArray type="Float64" Name="Density" format="ascii" RangeMin="1" RangeMax="1.7">
          1.7 1.3092327253462337 1.7 1.3130750548930734 1.0248255856584376 1.0303938799560735
          1.7 1.3102404712529052 1.0035570783916454 1.0303542054785908 1.0077982818580395 1.7
          1.3101039335197076 1.0049240496658671 1.030929639310129 1.0046044338053977 1.7 1.310059972533407
          1.0310170185546255 1.004619397787839 1.7 1.3100470387526835 1.0310231070746878 1.004623854748708
          1.7 1.3098956015647831 1.0309950554331575 1.004621395447232 1.7 1.3081476619997854
          1.0306360766302651 1.004563786530782 1.7 1.2946299277142919 1.027840097136114 1.0040654232694055
          1.7 1.2239524442863952 1.0156422478998979 1.0016791758644663 1 1
          1 1
        </DataArray>
        <DataArray type="Float64" Name="Momentum" NumberOfComponents="3" format="ascii" RangeMin="2.9" RangeMax="4.535233026008696">
          4.4528099999999995 -0.86071 0 3.7401487799168103 -0.26278665918693905 0
          4.4528099999999995 -0.86071 0 3.7433038803518874 -0.2656658386796502 0
          2.972791566335122 -0.01744844828681088 0 2.9855472380259065 -0.024043280851060687 0
          4.4528099999999995 -0.86071 0 3.7340936916433427 -0.26368993300437715 0
          2.9102265586991596 -0.0008965344681016287 0 2.985447986697418 -0.02387125778294782 0
          2.923140908454586 0 0 4.4528099999999995 -0.86071 0
          3.7336507940887333 -0.26367021601452195 0 2.914606387728315 0 0
          2.987335520541338 -0.02424329631775254 0 2.913680244343699 0 0
          4.4528099999999995 -0.86071 0 3.7335096030400616 -0.2636489619191342 0
          2.9876239536172964 -0.024302494582922225 0 2.913737688461989 0 0
          4.4528099999999995 -0.86071 0 3.7334674710702984 -0.2636400155321979 0
          2.9876450215365344 -0.024306345046758153 0 2.913755005742698 0 0
          4.4528099999999995 -0.86071 0 3.7329735167934777 -0.2635176766131706 0
          2.9875533319531193 -0.02428796183258126 0 2.913747344096927 0 0
          4.4528099999999995 -0.86071 0 3.7273706589429607 -0.26202160936795954 0
          2.986400875050204 -0.024034589461523287 0 2.913562084888887 0 0
          4.4528099999999995 -0.86071 0 3.6854560544108956 -0.249707264295226 0
          2.977729911193592 -0.021862556307714835 0 2.912012194880405 0 0
          4.4528099999999995 -0.86071 0 3.4808941722436675 -0.18376501422606356 0
          2.9420412473827837 -0.011705972704396706 0 2.904979006909279 0 0
          2.9 0 0 2.9 0 0
          2.9 0 0 2.9 0 0
          <InformationKey name="L2_NORM_RANGE" location="vtkDataArray" length="2">
            <Value index="0">
              2.9
            </Value>
            <Value index="1">
              4.535233026
            </Value>
          </InformationKey>
        </DataArray>
        <DataArray type="Float64" Name="Energy" format="ascii" RangeMin="4.923" RangeMax="7.585636452999999">
          7.585636452999999 6.5050334438358215 7.585636452999999 6.517792167278384 5.055357346875792 5.08056285721182
          7.585636452999999 6.501497158786035 4.942159461585738 5.079357796305124 4.966234653888338 7.585636452999999
          6.500934031745183 4.949396730023817 5.082835106316922 4.9473046492265835 7.585636452999999 6.500693337183971
          5.0833789802881 4.9473601249164 7.585636452999999 6.500612330301422 5.0834200287423625 4.947389494477086
          7.585636452999999 6.499609735038218 5.083234857922702 4.947373860352717 7.585636452999999 6.488215240976259
          5.080914683264637 4.947006493439227 7.585636452999999 6.403203392260829 5.063618126187628 4.943986810871756
          7.585636452999999 5.995349438613502 4.9942102649326445 4.93077465197917 4.923 4.923
          4.923 4.923
        </DataArray>
      </PointData>
      <CellData>
        <DataArray type="UInt8" Name="vtkGhostType" format="ascii" RangeMin="0" RangeMax="0">
          0 0 0 0 0 0
          0 0 0 0 0 0
          0 0 0 0 0 0
          0 0 0 0 0 0
          0 0 0 0 0 0
          0 0 0 0 0 0
          0 0 0 0 0 0
          0 0 0 0 0 0
          0 0 0 0 0 0
          0 0 0 0 0 0
        </DataArray>
        <DataArray type="Float64" Name="sgvis" format="ascii" RangeMin="0.37412637193478526" RangeMax="0.48672006266166956">
          0.486629365166797 0.4858136887131921 0.4865006032333644 0.4839558985885022 0.4864881185057983 0.4830032011656942
          0.48649322096761083 0.482854323983233 0.4864941361404851 0.4828409679368717 0.48649353229949044 0.4828401948189992
          0.4864889174083433 0.4828415129468713 0.4864617670670771 0.4828503336469018 0.4863999403702556 0.48281636770525194
          0.48672006266166956 0.4835437895703646 0.48072240130452437 0.4709613274188299 0.48002091390714596 0.4516077663135144
          0.479989695076636 0.4476884945534978 0.4800174968000529 0.4472043488232172 0.480023315542335 0.44716345947769764
          0.4800237345091556 0.447161169443875 0.4800226539981681 0.4471617388055622 0.48001272350277957 0.4471699798398642
          0.4800547119371824 0.4471947532050702 0.4809941046464882 0.4478506299697199 0.46163099801220653 0.4357051818964428
          0.45507587342706446 0.3766028424574941 0.4548173470647112 0.3743779229033084 0.454936647156685 0.37414374834624325
          0.4549620320145755 0.37412707943215995 0.4549647968532481 0.37412637193478526 0.4549662133625346 0.3741264061289307
          0.4549736245347177 0.37412703838113415 0.4550553618020706 0.3741328805719281 0.4557290925413967 0.37415458636536925
        </DataArray>
        <DataArray type="Float64" Name="sgtco" format="ascii" RangeMin="0.37412637193478526" RangeMax="0.48672006266166956">
          0.486629365166797 0.4858136887131921 0.4865006032333644 0.4839558985885022 0.4864881185057983 0.4830032011656942
          0.48649322096761083 0.482854323983233 0.4864941361404851 0.4828409679368717 0.48649353229949044 0.4828401948189992
          0.4864889174083433 0.4828415129468713 0.4864617670670771 0.4828503336469018 0.4863999403702556 0.48281636770525194
          0.48672006266166956 0.4835437895703646 0.48072240130452437 0.4709613274188299 0.48002091390714596 0.4516077663135144
          0.479989695076636 0.4476884945534978 0.4800174968000529 0.4472043488232172 0.480023315542335 0.44716345947769764
          0.4800237345091556 0.447161169443875 0.4800226539981681 0.4471617388055622 0.48001272350277957 0.4471699798398642
          0.4800547119371824 0.4471947532050702 0.4809941046464882 0.4478506299697199 0.46163099801220653 0.4357051818964428
          0.45507587342706446 0.3766028424574941 0.4548173470647112 0.3743779229033084 0.454936647156685 0.37414374834624325
          0.4549620320145755 0.37412707943215995 0.4549647968532481 0.37412637193478526 0.4549662133625346 0.3741264061289307
          0.4549736245347177 0.37412703838113415 0.4550553618020706 0.3741328805719281 0.4557290925413967 0.37415458636536925
        </DataArray>
        <DataArray type="Float64" Name="MOSGS" NumberOfComponents="3" format="ascii" RangeMin="0" RangeMax="0.5561736101677057">
          6.90520752145914e-310 6.90520752145914e-310 4.6486950054733e-310 0.003305166900738202 -0.0011223600658480225 0
          -0.011113303629337818 0.003125202562106152 0 0.0020813191350156643 -0.0006546612361991896 0
          -0.006082265856559806 0.0017235601815422594 0 0.0018172801872316684 -0.0005263632221281688 0
          -0.0022499877051715923 0.0006406312870117401 0 0.0018281833431375144 -0.0005121773111587109 0
          -0.0014787732733619833 0.00044928594632823106 0 0.0018332155805061263 -0.0005112978955984366 0
          -0.0013876844217604587 0.0004286473490688353 0 0.0018438631299907658 -0.0005117561804968634 0
          -0.0013734694876590473 0.0004260682432790309 0 0.001892958122183737 -0.0005160954955225149 0
          -0.001290006890357015 0.00041075332248340264 0 0.001890541639553898 -0.0005306030263663186 0
          -0.0005210126821676765 0.00026036332021665137 0 -0.0015298250345659181 -0.00035532898516770905 0
          -0.0010416866335549381 0.000475545408816539 0 -0.005066522803573132 0.001603438306322346 0
          -0.0024144992229489163 -0.0006597731031731328 0 0.019214185103558698 -0.004176710203244724 0
          -0.2107982534052208 0.06720544918911844 0 0.014945902065007864 -0.002934030471479652 0
          -0.07306275113600362 0.022849819998745455 0 0.014720465169365416 -0.0029354985595384997 0
          -0.04496840843168996 0.01440024967001728 0 0.014833729767671992 -0.0029537759347320882 0
          -0.04072267073341064 0.013231351803148734 0 0.014864099289454095 -0.0029580829866881174 0
          -0.04026884999001446 0.013114708789525123 0 0.014874117045270235 -0.0029597760642252864 0
          -0.040236927806438214 0.013106601508921204 0 0.014962367284435452 -0.002977554477688535 0
          -0.04028179349002326 0.013112903322734296 0 0.015864119333066702 -0.003156804787091537 0
          -0.04049850239465704 0.013132978951578377 0 0.016693512799677648 -0.003194663242121141 0
          -0.04240562570663215 0.013433227036062229 0 0.017484240489542113 -0.0038853372659912082 0
          -0.04674534708248672 0.013715075227213387 0 0.11004797748307786 -0.031947035171107925 0
          -0.46721684394344953 0.30172422074222255 0 0.1626391218895762 -0.05190753627869514 0
          0.23582781067154768 -0.09313706317045273 0 0.1757645611064983 -0.05611446446633179 0
          0.20005270123236327 -0.08048261421431512 0 0.17815813729405414 -0.05674917191526776 0
          0.19312673338751737 -0.0782222778923172 0 0.17843766472756395 -0.056813467869945934 0
          0.19227003634961484 -0.07796183383783756 0 0.17845613761331877 -0.0568175492808631 0
          0.19220216656060107 -0.07794233733319686 0 0.17839626408979037 -0.05680780192009731 0
          0.192196890263214 -0.07794104278358821 0 0.17807130305503738 -0.05677120437700847 0
          0.19217714847000708 -0.07793728679739984 0 0.17493862829458748 -0.05623231508223977 0
          0.19208709005358443 -0.07793118445454666 0 0.1678440027741679 -0.05609779652687441 0
          0.19181263524749834 -0.07790447322647599 0
          <InformationKey name="L2_NORM_RANGE" location="vtkDataArray" length="2">
            <Value index="0">
              0
            </Value>
            <Value index="1">
              0.55617361017
            </Value>
          </InformationKey>
        </DataArray>
        <DataArray type="Float64" Name="CORES" format="ascii" RangeMin="-3.7873414634146334" RangeMax="1.7900403329179326">
          0.008695099423634996 -0.11600207796580358 -0.014572998570497916 -0.11858576520769801 -0.016847123941224375 -0.08120786643795799
          -0.016648929099505105 -0.07106658232162172 -0.016552309243846812 -0.06964284947266923 -0.016467407508259514 -0.06941630879532397
          -0.016385779043192765 -0.06838287326010731 -0.020645934398305144 -0.06292182324083365 -0.05462691888155463 -0.07328240714997972
          -0.0352432451240936 -0.06943600132801266 0.15938011587640105 -1.6576098817402403 0.09279378651562908 -0.674864642895713
          0.09055415665560773 -0.3953510448141378 0.09280552349100935 -0.3431996077766813 0.0933731190174446 -0.3364108618598627
          0.09353988902531152 -0.3358395825107045 0.09471891192789683 -0.33615760318304233 0.10198243352605374 -0.33614847336555315
          0.10123678980270556 -0.353565101559697 0.1366071517958123 -0.30995400266707174 0.37322527866508404 -3.7873414634146334
          0.6554291763927679 1.7900403329179326 0.7695595818652636 1.3951554238002268 0.7978733698589079 1.309643291241331
          0.8021099191886294 1.297960937072712 0.8024680748129874 1.2969308979629501 0.8020149691253863 1.296850070276316
          0.8013772200188485 1.2966925606213895 0.7752669880566252 1.2968844284039163 0.8259561761905495 1.2919068146445027
        </DataArray>
        <DataArray type="Float64" Name="MORES" NumberOfComponents="3" format="ascii" RangeMin="0.027133880358346612" RangeMax="10.464034286801086">
          0.0252276579040663 -0.009990632611425021 0 -0.32543623534808375 0.09085199740554556 0
          -0.04635497670293395 0.004503329971496717 0 -0.35976865276936276 0.1020582940769244 0
          -0.05360620203442751 0.008927276370194262 0 -0.24276112738863181 0.06830191396168202 0
          -0.05285258890181663 0.009485944732285423 0 -0.2098960642261993 0.06014301602825351 0
          -0.05250857340002524 0.009525378576646544 0 -0.20521176409042574 0.059110126291747014 0
          -0.05218997145612253 0.009514898137885149 0 -0.2044454263656283 0.058971631620247836 0
          -0.05177527559036227 0.009436602624363077 0 -0.2009619498079423 0.058338434586560434 0
          -0.06459097049692922 0.00979279881662174 0 -0.1826785167728401 0.05495466371347327 0
          -0.16815618076563477 0.016557438415048448 0 -0.21527591826981538 0.062176755790963364 0
          -0.10112818468916895 0.03901809394829106 0 -0.22244931246328098 0.02744882015936683 0
          0.5765108318917631 -0.13162852869024022 0 -4.523106458810238 1.4856590249928994 0
          0.35751882201195495 -0.06252942765341368 0 -1.8441067665955144 0.5911046896638406 0
          0.3490887656901924 -0.06299849953407038 0 -0.981901250978134 0.31936074191262304 0
          0.35718640571061333 -0.06480375162316454 0 -0.8135834303146829 0.27273789940838944 0
          0.3592237515036021 -0.0651413888514012 0 -0.791306406223941 0.26711438200156834 0
          0.35979990830282405 -0.06523552679780559 0 -0.7894142365129988 0.26665424942531546 0
          0.3636683501823734 -0.06597162232334863 0 -0.7904159553755088 0.2667599240539857 0
          0.38731443225366236 -0.07030141069958967 0 -0.7901877429833424 0.2659846429436143 0
          0.38316945579197137 -0.06682402250880243 0 -0.8477230455761626 0.2768482578738017 0
          0.4562871278582179 -0.0985024257504113 0 -0.7618800518515432 0.24091757573535705 0
          0.9495653219568546 -0.056590397712797946 0 -8.725482841436236 5.775981539024389 0
          1.541397364932118 -0.43004850403534167 0 4.559364207901093 -1.7067508748982934 0
          1.90718665018782 -0.5698440116858625 0 3.4256877563175774 -1.3257498114615227 0
          2.0039646024211777 -0.5979652894262827 0 3.166444866900274 -1.2441750041528654 0
          2.0186486682180917 -0.601601981630697 0 3.129978323686744 -1.2334683448051706 0
          2.019908639156818 -0.6018966460660728 0 3.1267097585741013 -1.2325592379617678 0
          2.0184893659833367 -0.6017057360132972 0 3.1264524938330647 -1.232497122915165 0
          2.016645254129906 -0.6022739553377175 0 3.1259632362650707 -1.2324283438373318 0
          1.9331668706869638 -0.5861899081760902 0 3.1265704790366415 -1.2330528800405107 0
          2.035643712865424 -0.647168873066763 0 3.1112803666433853 -1.2302053591986732 0
          <InformationKey name="L2_NORM_RANGE" location="vtkDataArray" length="2">
            <Value index="0">
              0.027133880358
            </Value>
            <Value index="1">
              10.464034287
            </Value>
          </InformationKey>
        </DataArray>
        <DataArray type="Float64" Name="ENRES" format="ascii" RangeMin="-15.755660713786629" RangeMax="8.460017440242893">
          0.07991206590656191 -0.5480750268205288 -0.07650844979733601 -0.6687104956802626 -0.09404725347221826 -0.44203594600754015
          -0.09281012266775729 -0.37735381637972776 -0.09213422113310449 -0.36809490871280276 -0.09156401084944754 -0.3665859619106605
          -0.09148900348678024 -0.360033046987451 -0.12112341406500776 -0.3271963193974738 -0.3340522563165442 -0.40579219801395183
          -0.1949825352006438 -0.4012625519206233 1.1773648479264236 -8.606866035810311 0.6462687822669864 -3.5859788431179376
          0.6256834798830293 -1.8371786375387116 0.6432221789806052 -1.4925541893192806 0.6475726829068926 -1.446992524156939
          0.6487396541269703 -1.4430893539425114 0.6560613667314392 -1.444700521859711 0.6994062811941486 -1.4418400149797104
          0.6740115883660507 -1.5474584662072586 0.8043257565102726 -1.352811813869077 1.4392853771768683 -15.755660713786629
          2.5940050858079973 8.460017440242893 3.395598779987164 6.227627565355846 3.6039460203395612 5.707202651578301
          3.6351890310465538 5.633679648723403 3.637907257669075 5.627092636986785 3.6355121395703835 5.626595614275921
          3.63468081081855 5.625780021532059 3.4817847614172437 5.627768039882777 3.7195162628306124 5.598685575150789
        </DataArray>
      </CellData>
      <Points>
        <DataArray type="Float32" Name="Points" NumberOfComponents="3" format="ascii" RangeMin="0" RangeMax="4.2201894765504395">
          4.099999904632568 1 0 4.099999904632568 0.6666666865348816 0
          3.690000057220459 1 0 3.690000057220459 0.6666666865348816 0
          4.099999904632568 0.3333333134651184 0 3.690000057220459 0.3333333134651184 0
          3.2799999713897705 1 0 3.2799999713897705 0.6666666865348816 0
          4.099999904632568 0 0 3.2799999713897705 0.3333333134651184 0
          3.690000057220459 0 0 2.869999885559082 1 0
          2.869999885559082 0.6666666865348816 0 3.2799999713897705 0 0
          2.869999885559082 0.3333333134651184 0 2.869999885559082 0 0
          2.4600000381469727 1 0 2.4600000381469727 0.6666666865348816 0
          2.4600000381469727 0.3333333134651184 0 2.4600000381469727 0 0
          2.049999952316284 1 0 2.049999952316284 0.6666666865348816 0
          2.049999952316284 0.3333333134651184 0 2.049999952316284 0 0
          1.6399999856948853 1 0 1.6399999856948853 0.6666666865348816 0
          1.6399999856948853 0.3333333134651184 0 1.6399999856948853 0 0
          1.2300000190734863 1 0 1.2300000190734863 0.6666666865348816 0
          1.2300000190734863 0.3333333134651184 0 1.2300000190734863 0 0
          0.8199999928474426 1 0 0.8199999928474426 0.6666666865348816 0
          0.8199999928474426 0.3333333134651184 0 0.8199999928474426 0 0
          0.4099999964237213 1 0 0.4099999964237213 0.6666666865348816 0
          0.4099999964237213 0.3333333134651184 0 0.4099999964237213 0 0
          0 1 0 0 0.6666666865348816 0
          0 0.3333333134651184 0 0 0 0
          <InformationKey name="L2_NORM_RANGE" location="vtkDataArray" length="2">
            <Value index="0">
              0
            </Value>
            <Value index="1">
              4.2201894766
            </Value>
          </InformationKey>
        </DataArray>
      </Points>
      <Cells>
        <DataArray type="Int64" Name="connectivity" format="ascii" RangeMin="0" RangeMax="43">
          39 38 43 38 42 43
          35 34 39 34 38 39
          31 30 35 30 34 35
          27 26 31 26 30 31
          23 22 27 22 26 27
          19 18 23 18 22 23
          15 14 19 14 18 19
          13 9 15 9 14 15
          10 5 13 5 9 13
          8 4 10 4 5 10
          38 37 42 37 41 42
          34 33 38 33 37 38
          30 29 34 29 33 34
          26 25 30 25 29 30
          22 21 26 21 25 26
          18 17 22 17 21 22
          14 12 18 12 17 18
          9 7 14 7 12 14
          5 3 9 3 7 9
          4 1 5 1 3 5
          37 36 41 36 40 41
          33 32 37 32 36 37
          29 28 33 28 32 33
          25 24 29 24 28 29
          21 20 25 20 24 25
          17 16 21 16 20 21
          12 11 17 11 16 17
          7 6 12 6 11 12
          3 2 7 2 6 7
          1 0 3 0 2 3
        </DataArray>
        <DataArray type="Int64" Name="offsets" format="ascii" RangeMin="3" RangeMax="180">
          3 6 9 12 15 18
          21 24 27 30 33 36
          39 42 45 48 51 54
          57 60 63 66 69 72
          75 78 81 84 87 90
          93 96 99 102 105 108
          111 114 117 120 123 126
          129 132 135 138 141 144
          147 150 153 156 159 162
          165 168 171 174 177 180
        </DataArray>
        <DataArray type="UInt8" Name="types" format="ascii" RangeMin="5" RangeMax="5">
          5 5 5 5 5 5
          5 5 5 5 5 5
          5 5 5 5 5 5
          5 5 5 5 5 5
          5 5 5 5 5 5
          5 5 5 5 5 5
          5 5 5 5 5 5
          5 5 5 5 5 5
          5 5 5 5 5 5
          5 5 5 5 5 5
        </DataArray>
      </Cells>
    </Piece>
  </UnstructuredGrid>
</VTKFile>
