<?xml version="1.0"?>
<VTKFile type="UnstructuredGrid" version="0.1" byte_order="LittleEndian" header_type="UInt32" compressor="vtkZLibDataCompressor">
  <UnstructuredGrid>
    <Piece NumberOfPoints="64" NumberOfCells="27">
      <PointData>
        <DataArray type="Float64" Name="tem_BC" format="ascii" RangeMin="0" RangeMax="0">
          0 0 0 0 0 0
          0 0 0 0 0 0
          0 0 0 0 0 0
          0 0 0 0 0 0
          0 0 0 0 0 0
          0 0 0 0 0 0
          0 0 0 0 0 0
          0 0 0 0 0 0
          0 0 0 0 0 0
          0 0 0 0 0 0
          0 0 0 0
        </DataArray>
        <DataArray type="Float64" Name="tem_FIXNO" format="ascii" RangeMin="-1" RangeMax="1">
          1 1 1 1 1 1
          1 1 1 1 -1 -1
          1 -1 -1 1 1 1
          1 -1 -1 1 -1 -1
          1 1 1 1 -1 -1
          1 -1 -1 1 1 1
          1 1 1 -1 -1 1
          -1 -1 1 1 1 1
          1 -1 -1 1 -1 -1
          1 -1 -1 1 -1 -1
          -1 -1 1 -1
        </DataArray>
        <DataArray type="Float64" Name="Temperature" format="ascii" RangeMin="0" RangeMax="0.05483074322798895">
          0 0 0 0 0 0
          0 0 0 0 0.030108455796007152 0.03970890652140769
          0 0.02415888069861441 0.030108455796072638 0 0 0
          0 0.03970890652156672 0.05483074322770171 0 0.030108455796214045 0.03970890652173617
          0 0 0 0 0.03970890652124989 0.0548307432274853
          0 0.030108455795909757 0.03970890652145896 0 0 0
          0 0 0 0.03970890652118706 0.03010845579591171 0
          0.05483074322719376 0.03970890652146562 0 0 0 0
          0 0.03010845579607814 0.039708906521463944 0 0.039708906521712044 0.05483074322798895
          0 0.03970890652134716 0.05483074322764704 0 0.039708906521403034 0.05483074322754515
          0.05483074322746896 0.03970890652147903 0 0.054830743227196777
        </DataArray>
      </PointData>
      <CellData>
        <DataArray type="UInt8" Name="vtkGhostType" format="ascii" RangeMin="0" RangeMax="1">
          0 0 0 0 0 0
          0 0 0 0 0 0
          0 0 0 0 1 1
          1 1 1 1 1 1
          0 0 1
        </DataArray>
      </CellData>
      <Points>
        <DataArray type="Float32" Name="Points" NumberOfComponents="3" format="ascii" RangeMin="0.5656854333786078" RangeMax="1.5362291588855583">
          0.6000000238418579 1 0 0.6000000238418579 0.800000011920929 0
          0.6000000238418579 0.6000000238418579 0 0.800000011920929 1 0
          0.800000011920929 0.800000011920929 0 0.800000011920929 0.6000000238418579 0
          1 1 0 1 0.800000011920929 0
          1 0.6000000238418579 0 0.6000000238418579 1 0.20000000298023224
          0.6000000238418579 0.800000011920929 0.20000000298023224 0.6000000238418579 0.6000000238418579 0.20000000298023224
          0.800000011920929 1 0.20000000298023224 0.800000011920929 0.800000011920929 0.20000000298023224
          0.800000011920929 0.6000000238418579 0.20000000298023224 1 1 0.20000000298023224
          1 0.800000011920929 0.20000000298023224 1 0.6000000238418579 0.20000000298023224
          0.6000000238418579 1 0.4000000059604645 0.6000000238418579 0.800000011920929 0.4000000059604645
          0.6000000238418579 0.6000000238418579 0.4000000059604645 0.800000011920929 1 0.4000000059604645
          0.800000011920929 0.800000011920929 0.4000000059604645 0.800000011920929 0.6000000238418579 0.4000000059604645
          1 1 0.4000000059604645 1 0.800000011920929 0.4000000059604645
          1 0.6000000238418579 0.4000000059604645 0.6000000238418579 1 0.6000000238418579
          0.6000000238418579 0.800000011920929 0.6000000238418579 0.6000000238418579 0.6000000238418579 0.6000000238418579
          0.800000011920929 1 0.6000000238418579 0.800000011920929 0.800000011920929 0.6000000238418579
          0.800000011920929 0.6000000238418579 0.6000000238418579 1 1 0.6000000238418579
          1 0.800000011920929 0.6000000238418579 1 0.6000000238418579 0.6000000238418579
          0.6000000238418579 0.4000000059604645 0 0.800000011920929 0.4000000059604645 0
          1 0.4000000059604645 0 0.6000000238418579 0.4000000059604645 0.20000000298023224
          0.800000011920929 0.4000000059604645 0.20000000298023224 1 0.4000000059604645 0.20000000298023224
          0.6000000238418579 0.4000000059604645 0.4000000059604645 0.800000011920929 0.4000000059604645 0.4000000059604645
          1 0.4000000059604645 0.4000000059604645 0.4000000059604645 1 0
          0.4000000059604645 0.800000011920929 0 0.4000000059604645 0.6000000238418579 0
          0.4000000059604645 1 0.20000000298023224 0.4000000059604645 0.800000011920929 0.20000000298023224
          0.4000000059604645 0.6000000238418579 0.20000000298023224 0.4000000059604645 1 0.4000000059604645
          0.4000000059604645 0.800000011920929 0.4000000059604645 0.4000000059604645 0.6000000238418579 0.4000000059604645
          0.4000000059604645 0.4000000059604645 0 0.4000000059604645 0.4000000059604645 0.20000000298023224
          0.4000000059604645 0.4000000059604645 0.4000000059604645 0.4000000059604645 1 0.6000000238418579
          0.4000000059604645 0.800000011920929 0.6000000238418579 0.4000000059604645 0.6000000238418579 0.6000000238418579
          0.6000000238418579 0.4000000059604645 0.6000000238418579 0.800000011920929 0.4000000059604645 0.6000000238418579
          1 0.4000000059604645 0.6000000238418579 0.4000000059604645 0.4000000059604645 0.6000000238418579
          <InformationKey name="L2_NORM_RANGE" location="vtkDataArray" length="2">
            <Value index="0">
              0.56568543338
            </Value>
            <Value index="1">
              1.5362291589
            </Value>
          </InformationKey>
        </DataArray>
      </Points>
      <Cells>
        <DataArray type="Int64" Name="connectivity" format="ascii" RangeMin="0" RangeMax="63">
          10 13 4 1 9 12
          3 0 11 14 5 2
          10 13 4 1 13 16
          7 4 12 15 6 3
          14 17 8 5 13 16
          7 4 19 22 13 10
          18 21 12 9 20 23
          14 11 19 22 13 10
          22 25 16 13 21 24
          15 12 23 26 17 14
          22 25 16 13 28 31
          22 19 27 30 21 18
          29 32 23 20 28 31
          22 19 31 34 25 22
          30 33 24 21 32 35
          26 23 31 34 25 22
          39 40 37 36 11 14
          5 2 40 41 38 37
          14 17 8 5 42 43
          40 39 20 23 14 11
          43 44 41 40 23 26
          17 14 49 10 1 46
          48 9 0 45 50 11
          2 47 49 10 1 46
          52 19 10 49 51 18
          9 48 53 20 11 50
          52 19 10 49 55 39
          36 54 50 11 2 47
          56 42 39 55 53 20
          11 50 58 28 19 52
          57 27 18 51 59 29
          20 53 58 28 19 52
          60 61 43 42 29 32
          23 20 61 62 44 43
          32 35 26 23 63 60
          42 56 59 29 20 53
        </DataArray>
        <DataArray type="Int64" Name="offsets" format="ascii" RangeMin="8" RangeMax="216">
          8 16 24 32 40 48
          56 64 72 80 88 96
          104 112 120 128 136 144
          152 160 168 176 184 192
          200 208 216
        </DataArray>
        <DataArray type="UInt8" Name="types" format="ascii" RangeMin="12" RangeMax="12">
          12 12 12 12 12 12
          12 12 12 12 12 12
          12 12 12 12 12 12
          12 12 12 12 12 12
          12 12 12
        </DataArray>
      </Cells>
    </Piece>
  </UnstructuredGrid>
</VTKFile>
