<?xml version="1.0"?>
<VTKFile type="UnstructuredGrid" version="0.1" byte_order="LittleEndian" header_type="UInt32" compressor="vtkZLibDataCompressor">
  <UnstructuredGrid>
    <Piece NumberOfPoints="64" NumberOfCells="27">
      <PointData>
        <DataArray type="Float64" Name="tem_BC" format="ascii" RangeMin="0" RangeMax="0">
          0 0 0 0 0 0
          0 0 0 0 0 0
          0 0 0 0 0 0
          0 0 0 0 0 0
          0 0 0 0 0 0
          0 0 0 0 0 0
          0 0 0 0 0 0
          0 0 0 0 0 0
          0 0 0 0 0 0
          0 0 0 0 0 0
          0 0 0 0
        </DataArray>
        <DataArray type="Float64" Name="tem_FIXNO" format="ascii" RangeMin="-1" RangeMax="1">
          1 1 1 1 -1 -1
          1 -1 -1 1 1 1
          1 -1 -1 1 -1 -1
          1 1 1 1 1 1
          1 1 1 1 1 1
          1 -1 -1 1 -1 -1
          1 -1 -1 1 -1 -1
          1 1 1 1 -1 -1
          1 -1 -1 1 1 1
          -1 -1 1 1 -1 -1
          1 -1 -1 -1
        </DataArray>
        <DataArray type="Float64" Name="Temperature" format="ascii" RangeMin="0" RangeMax="0.05483074322798895">
          0 0 0 0 0.030108455795930616 0.039708906521381475
          0 0.039708906521403034 0.05483074322754515 0 0 0
          0 0.02415888069877216 0.03010845579619125 0 0.030108455796191227 0.039708906521702184
          0 0 0 0 0 0
          0 0 0 0 0 0
          0 0.03010845579619822 0.03970890652170261 0 0.039708906521712044 0.05483074322798895
          0 0.03970890652122619 0.054830743227196777 0 0.03010845579614313 0.03970890652144441
          0 0 0 0 0.03970890652124989 0.0548307432274853
          0 0.030108455796041277 0.03970890652157389 0 0 0
          0.05483074322746896 0.03970890652158141 0 0 0.03970890652156672 0.05483074322770171
          0 0.03970890652162445 0.05483074322764704 0.05483074322719376
        </DataArray>
      </PointData>
      <CellData>
        <DataArray type="UInt8" Name="vtkGhostType" format="ascii" RangeMin="0" RangeMax="1">
          0 0 0 0 0 0
          0 0 1 1 1 1
          0 0 0 0 0 0
          0 0 0 0 1 1
          1 1 1
        </DataArray>
      </CellData>
      <Points>
        <DataArray type="Float32" Name="Points" NumberOfComponents="3" format="ascii" RangeMin="0.5656854333786078" RangeMax="1.5362291588855583">
          0 1 0.6000000238418579 0 0.800000011920929 0.6000000238418579
          0 0.6000000238418579 0.6000000238418579 0.20000000298023224 1 0.6000000238418579
          0.20000000298023224 0.800000011920929 0.6000000238418579 0.20000000298023224 0.6000000238418579 0.6000000238418579
          0.4000000059604645 1 0.6000000238418579 0.4000000059604645 0.800000011920929 0.6000000238418579
          0.4000000059604645 0.6000000238418579 0.6000000238418579 0 1 0.800000011920929
          0 0.800000011920929 0.800000011920929 0 0.6000000238418579 0.800000011920929
          0.20000000298023224 1 0.800000011920929 0.20000000298023224 0.800000011920929 0.800000011920929
          0.20000000298023224 0.6000000238418579 0.800000011920929 0.4000000059604645 1 0.800000011920929
          0.4000000059604645 0.800000011920929 0.800000011920929 0.4000000059604645 0.6000000238418579 0.800000011920929
          0 1 1 0 0.800000011920929 1
          0 0.6000000238418579 1 0.20000000298023224 1 1
          0.20000000298023224 0.800000011920929 1 0.20000000298023224 0.6000000238418579 1
          0.4000000059604645 1 1 0.4000000059604645 0.800000011920929 1
          0.4000000059604645 0.6000000238418579 1 0 1 0.4000000059604645
          0 0.800000011920929 0.4000000059604645 0 0.6000000238418579 0.4000000059604645
          0.20000000298023224 1 0.4000000059604645 0.20000000298023224 0.800000011920929 0.4000000059604645
          0.20000000298023224 0.6000000238418579 0.4000000059604645 0.4000000059604645 1 0.4000000059604645
          0.4000000059604645 0.800000011920929 0.4000000059604645 0.4000000059604645 0.6000000238418579 0.4000000059604645
          0 0.4000000059604645 0.6000000238418579 0.20000000298023224 0.4000000059604645 0.6000000238418579
          0.4000000059604645 0.4000000059604645 0.6000000238418579 0 0.4000000059604645 0.800000011920929
          0.20000000298023224 0.4000000059604645 0.800000011920929 0.4000000059604645 0.4000000059604645 0.800000011920929
          0 0.4000000059604645 1 0.20000000298023224 0.4000000059604645 1
          0.4000000059604645 0.4000000059604645 1 0.6000000238418579 1 0.6000000238418579
          0.6000000238418579 0.800000011920929 0.6000000238418579 0.6000000238418579 0.6000000238418579 0.6000000238418579
          0.6000000238418579 1 0.800000011920929 0.6000000238418579 0.800000011920929 0.800000011920929
          0.6000000238418579 0.6000000238418579 0.800000011920929 0.6000000238418579 1 1
          0.6000000238418579 0.800000011920929 1 0.6000000238418579 0.6000000238418579 1
          0.6000000238418579 0.4000000059604645 0.6000000238418579 0.6000000238418579 0.4000000059604645 0.800000011920929
          0.6000000238418579 0.4000000059604645 1 0.6000000238418579 1 0.4000000059604645
          0.6000000238418579 0.800000011920929 0.4000000059604645 0.6000000238418579 0.6000000238418579 0.4000000059604645
          0 0.4000000059604645 0.4000000059604645 0.20000000298023224 0.4000000059604645 0.4000000059604645
          0.4000000059604645 0.4000000059604645 0.4000000059604645 0.6000000238418579 0.4000000059604645 0.4000000059604645
          <InformationKey name="L2_NORM_RANGE" location="vtkDataArray" length="2">
            <Value index="0">
              0.56568543338
            </Value>
            <Value index="1">
              1.5362291589
            </Value>
          </InformationKey>
        </DataArray>
      </Points>
      <Cells>
        <DataArray type="Int64" Name="connectivity" format="ascii" RangeMin="0" RangeMax="63">
          10 13 4 1 9 12
          3 0 11 14 5 2
          10 13 4 1 13 16
          7 4 12 15 6 3
          14 17 8 5 13 16
          7 4 19 22 13 10
          18 21 12 9 20 23
          14 11 19 22 13 10
          22 25 16 13 21 24
          15 12 23 26 17 14
          22 25 16 13 1 4
          31 28 0 3 30 27
          2 5 32 29 1 4
          31 28 4 7 34 31
          3 6 33 30 5 8
          35 32 4 7 34 31
          39 40 37 36 11 14
          5 2 40 41 38 37
          14 17 8 5 42 43
          40 39 20 23 14 11
          43 44 41 40 23 26
          17 14 16 49 46 7
          15 48 45 6 17 50
          47 8 16 49 46 7
          25 52 49 16 24 51
          48 15 26 53 50 17
          25 52 49 16 41 55
          54 38 17 50 47 8
          44 56 55 41 26 53
          50 17 7 46 58 34
          6 45 57 33 8 47
          59 35 7 46 58 34
          36 37 61 60 2 5
          32 29 37 38 62 61
          5 8 35 32 38 54
          63 62 8 47 59 35
        </DataArray>
        <DataArray type="Int64" Name="offsets" format="ascii" RangeMin="8" RangeMax="216">
          8 16 24 32 40 48
          56 64 72 80 88 96
          104 112 120 128 136 144
          152 160 168 176 184 192
          200 208 216
        </DataArray>
        <DataArray type="UInt8" Name="types" format="ascii" RangeMin="12" RangeMax="12">
          12 12 12 12 12 12
          12 12 12 12 12 12
          12 12 12 12 12 12
          12 12 12 12 12 12
          12 12 12
        </DataArray>
      </Cells>
    </Piece>
  </UnstructuredGrid>
</VTKFile>
