<?xml version="1.0"?>
<VTKFile type="UnstructuredGrid" version="0.1" byte_order="LittleEndian" header_type="UInt32" compressor="vtkZLibDataCompressor">
  <UnstructuredGrid>
    <Piece NumberOfPoints="163" NumberOfCells="2">
      <PointData>
        <DataArray type="Float64" Name="nsi_BC" NumberOfComponents="3" format="ascii" RangeMin="0" RangeMax="100">
          0 0 0 0 0 0
          0 0 0 0 0 0
          0 0 0 0 0 0
          0 0 0 0 0 0
          0 0 0 0 0 0
          0 0 0 0 0 0
          0 0 0 0 0 0
          0 0 0 0 0 0
          0 0 0 0 0 0
          0 0 0 0 0 0
          0 0 0 0 0 0
          0 0 0 0 0 0
          0 0 0 0 0 0
          0 0 0 0 0 0
          0 0 0 0 0 0
          0 0 0 0 0 0
          0 0 0 0 0 0
          0 0 0 0 0 0
          0 0 0 0 0 0
          0 0 0 0 0 0
          0 0 0 0 0 0
          0 0 0 0 0 0
          0 0 0 0 0 0
          0 0 0 0 0 0
          0 0 0 0 0 0
          0 0 0 0 0 0
          0 0 0 0 0 0
          0 0 0 0 0 0
          0 0 0 0 0 0
          0 0 0 0 0 0
          0 0 0 0 0 0
          0 0 0 0 0 0
          0 0 0 0 0 0
          0 0 0 0 0 0
          0 0 0 0 0 0
          0 0 0 0 0 0
          0 0 0 0 0 0
          0 0 0 0 0 0
          0 0 0 0 0 0
          0 0 0 0 0 0
          0 0 0 0 0 0
          0 0 0 0 0 0
          0 0 0 0 0 0
          0 0 0 0 0 0
          0 0 0 0 0 0
          0 0 0 0 0 0
          0 0 0 0 0 0
          0 0 0 0 0 0
          0 0 0 0 0 0
          0 0 0 0 0 0
          0 0 0 0 0 0
          0 0 0 0 0 0
          0 0 0 0 0 0
          0 0 0 0 0 0
          0 0 0 0 0 0
          0 0 0 0 0 0
          0 0 0 0 0 0
          0 0 0 0 0 0
          0 0 0 0 0 0
          0 0 0 0 0 0
          0 0 0 0 0 0
          0 0 0 0 0 0
          0 0 0 0 0 0
          0 0 0 0 0 0
          0 0 0 0 0 0
          0 0 0 0 0 0
          0 0 0 0 0 0
          0 0 0 0 0 0
          0 0 0 0 0 0
          0 0 0 0 0 0
          0 0 0 0 0 0
          0 0 0 0 0 0
          0 0 0 0 0 0
          0 0 0 0 0 0
          0 0 0 0 0 0
          0 0 0 100 0 0
          100 0 0 100 0 0
          0 0 0 100 0 0
          0 0 0 100 0 0
          0 0 0 100 0 0
          100 0 0 100 0 0
          100 0 0
          <InformationKey name="L2_NORM_RANGE" location="vtkDataArray" length="2">
            <Value index="0">
              0
            </Value>
            <Value index="1">
              100
            </Value>
          </InformationKey>
        </DataArray>
        <DataArray type="Float64" Name="nsi_FIXNO" NumberOfComponents="3" format="ascii" RangeMin="1" RangeMax="1.4142135623730951">
          0 1 0 1 0 0
          -1 -1 0 -1 -1 0
          1 0 0 -1 -1 0
          -1 -1 0 -1 -1 0
          -1 -1 0 1 0 0
          -1 -1 0 -1 -1 0
          -1 -1 0 -1 -1 0
          -1 -1 0 1 0 0
          -1 -1 0 -1 -1 0
          -1 -1 0 -1 -1 0
          -1 -1 0 -1 -1 0
          1 0 0 -1 -1 0
          -1 -1 0 -1 -1 0
          -1 -1 0 0 1 0
          -1 -1 0 1 0 0
          1 0 0 -1 -1 0
          -1 -1 0 -1 -1 0
          -1 -1 0 -1 -1 0
          1 0 0 -1 -1 0
          -1 -1 0 1 0 0
          -1 -1 0 1 0 0
          -1 -1 0 -1 -1 0
          1 0 0 -1 -1 0
          -1 -1 0 -1 -1 0
          1 0 0 -1 -1 0
          1 0 0 -1 -1 0
          -1 -1 0 -1 -1 0
          -1 -1 0 1 0 0
          1 0 0 -1 -1 0
          -1 -1 0 -1 -1 0
          -1 -1 0 1 0 0
          -1 -1 0 1 0 0
          -1 -1 0 1 0 0
          -1 -1 0 -1 -1 0
          -1 -1 0 -1 -1 0
          1 0 0 -1 -1 0
          1 0 0 -1 -1 0
          -1 -1 0 -1 -1 0
          -1 -1 0 -1 -1 0
          -1 -1 0 -1 -1 0
          1 0 0 1 0 0
          -1 -1 0 -1 -1 0
          -1 -1 0 -1 -1 0
          -1 -1 0 -1 -1 0
          -1 -1 0 -1 -1 0
          -1 -1 0 -1 -1 0
          -1 -1 0 -1 -1 0
          -1 -1 0 1 0 0
          1 0 0 -1 -1 0
          -1 -1 0 1 0 0
          1 0 0 -1 -1 0
          -1 -1 0 -1 -1 0
          -1 -1 0 -1 -1 0
          -1 -1 0 1 0 0
          -1 -1 0 1 0 0
          -1 -1 0 -1 -1 0
          -1 -1 0 1 0 0
          -1 -1 0 1 0 0
          1 0 0 -1 -1 0
          -1 -1 0 -1 -1 0
          -1 -1 0 -1 -1 0
          -1 -1 0 -1 -1 0
          1 0 0 -1 -1 0
          -1 -1 0 -1 -1 0
          -1 -1 0 -1 -1 0
          -1 -1 0 -1 -1 0
          1 0 0 -1 -1 0
          -1 -1 0 -1 -1 0
          -1 -1 0 -1 -1 0
          -1 -1 0 1 0 0
          -1 -1 0 -1 -1 0
          -1 -1 0 1 0 0
          -1 -1 0 -1 -1 0
          -1 -1 0 -1 -1 0
          -1 -1 0 -1 -1 0
          -1 -1 0 1 1 0
          1 1 0 1 1 0
          -1 -1 0 1 1 0
          1 0 0 1 1 0
          -1 -1 0 1 1 0
          1 1 0 1 1 0
          1 1 0
          <InformationKey name="L2_NORM_RANGE" location="vtkDataArray" length="2">
            <Value index="0">
              1
            </Value>
            <Value index="1">
              1.4142135624
            </Value>
          </InformationKey>
        </DataArray>
        <DataArray type="Float64" Name="Velocity" NumberOfComponents="3" format="ascii" RangeMin="0.23684847777401188" RangeMax="100.00000000000001">
          0.38838590413275004 0 0 0.23684847777401188 -9.860798751454768e-18 0
          0.32469336398020865 -0.000503226600614332 0 0.2713273903720488 -0.004106921403304332 0
          0.5693033515881467 2.75086953107347e-9 0 0.36442635281346025 -0.0019192295343352717 0
          0.38653585923158373 0.0015649604418033992 0 0.2593442284299477 -0.010984944819758813 0
          0.954142474269336 0.03385457040337082 0 0.9263921993979728 -7.116905301457299e-16 0
          1.0661794227784789 -0.036475765608028496 0 0.4363650538832123 -0.053422967602754244 0
          0.9291475795590529 -0.14190217603005514 0 1.1235012279003995 0.07062020427698772 0
          0.33023503035947893 0.000376366825160076 0 1.105862381332581 1.895595267501404e-15 0
          0.30110363231803766 -0.00893105453718981 0 1.0276446706744622 0.0046644734159756234 0
          1.1042835365226806 -0.01859983938665436 0 1.1567339512627592 -0.10273997679116907 0
          1.0918148273142951 -0.017951771957406198 0 0.42150681224513714 -0.023355137361166126 0
          0.901546578025772 -8.657539464429181e-16 0 0.8903268330290891 0.08920168490197819 0
          0.8958290583313155 0.03521460054209573 0 0.9318968637990681 0.10407362570402269 0
          0.8548487144065194 -0.012135721193141966 0 0.39081100944029057 0 0
          0.9372164764491332 -0.028955190466334203 0 0.2747063672802187 5.1466275106700605e-17 0
          0.9270559695699765 2.009738367170242e-15 0 0.9193324472893025 0.057798062136681906 0
          1.0048402361182014 0.057964726050683285 0 0.9145422603212168 0.0084358985621224 0
          0.9251894252055746 -0.0106867156993775 0 0.9179551391480281 -0.004311891269161618 0
          0.5306225168008827 -2.5632772115404196e-9 0 0.93426972346947 0.035936735997701655 0
          0.9609569069857868 0.023900524240934126 0 0.8362565531030283 -9.95791767559376e-16 0
          0.8842606259914749 0.030140291594139584 0 0.9067050827795896 -1.9141175343323335e-15 0
          0.9710246970514218 0.023498252259532736 0 0.7891823397345783 -0.029796540296172586 0
          0.8759440981956307 1.9920562820121212e-15 0 0.9154649057708988 0.04739669203318312 0
          0.9147053885516117 -0.00704554039605457 0 0.9159143940671558 0.019690557408375525 0
          0.8313151029774604 1.9239275929822343e-15 0 0.7935469053063605 -0.032066162522568324 0
          1.0024572327383727 -1.6929977854847423e-15 0 0.8251648750256872 0.03321482322809978 0
          0.936123242391675 0.014615426994924154 0 0.9467389217751591 0.03004086031451105 0
          0.7846954347292422 -0.017744327251903336 0 0.8380623728799329 2.352500264187442e-15 0
          0.9817537064183465 -7.542220896181564e-16 0 0.8762505036378252 -0.030081353439399255 0
          1.154897754238849 0.042179739954868324 0 0.8499912031040846 0.03178719668697347 0
          0.6651537829136703 0.012446814604470979 0 0.9758319582936944 -2.2098689007847675e-15 0
          0.6675052629835241 0.05426251077263757 0 1.302602185419115 2.0842573220010855e-15 0
          0.9399138658407786 0.2687868222914004 0 0.8303357842489781 1.9002949213152093e-15 0
          0.7886001712039516 -0.07135653437192749 0 0.9746972980156255 0.22324021798931581 0
          0.9396512850725418 -0.12304642741016675 0 1.0159237877597207 0.005276896968859936 0
          1.3520667385148462 -9.910925837269131e-17 0 1.134410633262419 0.2057544271684631 0
          0.9265935360967699 -1.6715762240871179e-15 0 1.108237042276055 -0.15987300673307628 0
          1.0807536674792602 -0.086701963116405 0 2.1582922920151395 0.39748238929682345 0
          1.0570041077001453 -0.1719903939393997 0 1.4215296410059037 0.12421918052393556 0
          3.115451925412367 0.2936220660833427 0 1.763480216729615 0.6227643707173139 0
          2.213003401989883 -3.443858313503773e-15 0 1.115959384839545 -4.181889003429277e-17 0
          2.3158895698493374 -0.31885261207395343 0 0.8402845381353471 0.06101382930967374 0
          1.1410152770142938 -0.14414468042537404 0 1.3980158559626052 -0.24312839466148503 0
          1.5233376575497324 0.49190743282815 0 1.6984611377018963 0.6455058378516474 0
          1.3976341605364297 -0.18047296593297882 0 2.5650117181018053 1.329393671118143 0
          1.7461422228822927 -0.15993893226454692 0 2.3785181999063125 -0.8355230988637753 0
          2.744798434066325 1.0499757880749925 0 2.324335520200759 -0.3537406697781462 0
          0.8021836905872841 0.49388557106878433 0 1.2369517618819217 1.584797939885945e-15 0
          4.653722770540972e-16 -0.302510158976336 0 1.6473235944507438 0.01678927142460407 0
          0.9363060152604471 -0.867953021824046 0 14.42127087296161 8.326130352684787 0
          1.58231433721689 8.110565424896537e-16 0 1.5916469977757939 -0.18915806265743673 0
          3.126474684091678 -1.0274759709169825 0 2.413110203760902 -0.7691890245841965 0
          3.3994703805105853 0.651836059103067 0 2.381922444073744 0.057678438373435115 0
          1.4655900347333313 -0.15640143653825742 0 12.97163412506982 -7.489181609865002 0
          1.9972258610801752 0.9179531897184279 0 1.3723834417898215 -0.7923464950396425 0
          2.4213897857399633 -0.005147949301666157 0 3.185011409822026 -0.4416128026428121 0
          0.34561109955905955 -0.22077957180216612 0 1.2915130912097912 0.745655944218703 0
          2.899532796178345 -0.07701432931122794 0 1.9143448780929515 -1.962794697765381e-15 0
          1.938241555750237e-15 1.3439282473162226 0 2.496234008895918 0.03520526071873952 0
          2.0781898564832364 -0.46598162867237103 0 2.182880800599972 -1.079938408381626 0
          1.2588170990344867 -0.05472877812099238 0 1.068612411769896 -0.4360832614045968 0
          2.4220366154017112 0.8902015301443937 0 3.364048029861521 1.1911828493647503 0
          -2.98199246712405 1.4729512881680847e-16 0 1.3004468504660787 0.2396558194802138 0
          -0.22626345683806026 -0.09177562696399451 0 1.0054968107724511 0.7777434937386694 0
          1.9850475598156867 -0.3739966990543928 0 0.8442147418175807 0.6570364865370529 0
          -0.4261786736317106 0.034184451831052017 0 1.9665206586056947 -0.7380578067923582 0
          1.8821248121679062 1.1260394296622819e-15 0 1.765457098741882 0.26272270853516866 0
          2.1109411313682123 0.22848296638599247 0 2.7609600100380662 0.28889309734423074 0
          2.299470314628808 0.5791446305659553 0 -4.277519626433167 -0.5342618782987424 0
          2.396500708449897 0.5769349315491205 0 11.03129625593687 -3.5052166700878674e-16 0
          -0.8492839442634328 0.23883482843867437 0 6.3691851889380295 -0.32206125684206127 0
          -4.0179576083311375 0.32792184151745735 0 2.598194739848142 -1.1143151398465644e-15 0
          -0.5343188661698992 0.3487824157457893 0 10.210242303850105 0.08441833847786812 0
          0.13920546255390814 -0.2336872050537445 0 11.674968460421475 -1.6926019005608486 0
          -5.0977334617235766 0.43427743526373935 0 12.852872327582759 0.4719726548298188 0
          12.801208548011088 0.14391927780055933 0 99.99999999999999 0 0
          100 0 0 99.99999999999999 0 0
          14.491832072588638 1.5614635774667769 0 99.99999999999999 0 0
          1.1108224426269004 1.4163021114705812e-16 0 100 0 0
          14.117247636120565 0.14112134455008302 0 100 0 0
          100.00000000000001 0 0 99.99999999999999 0 0
          100.00000000000001 0 0
          <InformationKey name="L2_NORM_RANGE" location="vtkDataArray" length="2">
            <Value index="0">
              0.23684847777
            </Value>
            <Value index="1">
              100
            </Value>
          </InformationKey>
        </DataArray>
        <DataArray type="Float64" Name="Pressure" format="ascii" RangeMin="0" RangeMax="244299.44512879133">
          0 5768.351513129395 0 5791.633099530894 11409.908522056243 0
          11527.393335548993 5955.602858703305 17714.291962189174 21778.373632161172 17277.7997706099 11502.181199713747
          24061.7668924916 28182.70590747417 0 33081.177638590416 6163.852039742104 18956.019031379587
          27586.770734740414 33511.258633492114 38344.525849068705 12642.283572671582 43834.70078135425 35499.0040573713
          42533.702458027525 27291.113177389638 48149.009113975975 0 19501.672968220184 6283.1529392950715
          53977.43135974638 44709.93827396103 37386.17644047355 51308.57547769422 57090.32275518407 29779.57725305263
          12476.33855911062 53977.33564982256 47231.64139452072 63189.45812822384 60368.29692181467 22048.911465544854
          39250.932312896584 66504.75209012203 31897.234084223765 57628.43976413494 64098.65800440967 50087.067569787156
          71925.69195992562 70764.5388813157 42355.02664789436 76233.47122505672 68211.05438034584 59887.286607096015
          74962.92129851803 52656.629477039816 82101.34256981524 80885.74591375126 86974.76046438438 70487.87297169103
          77619.85965368588 62635.84146001976 83613.65209740547 93488.29142603587 91168.4731842838 72406.99419021429
          79902.02867140775 99600.69976450689 86556.54363612116 92462.44379641603 108808.48076800222 101661.2648254848
          81796.40085715386 90365.46547067603 97463.12081956127 114154.49483409071 97039.26186086552 105831.35069393604
          118447.73325635535 115957.1750713022 130192.22818297503 92350.16713257336 137224.19540100888 108009.63363550873
          100848.74557763945 108162.20606354982 141152.02012449197 115859.10364111568 108006.70198238487 135633.40126919412
          115578.49389195837 117544.21747796965 129602.54833284284 119988.83805728867 124899.5162695594 105986.95402126039
          120127.5743916675 153990.09453923465 126278.72722336905 136361.8956246504 153936.53717719624 115290.77591469046
          146027.78644615127 132167.89738107508 151170.38437505098 123875.50081446454 157852.68278794986 135998.77414459296
          144581.6500429885 164689.89602611057 138135.67007916936 165366.395493385 169223.4130415306 160470.3143737969
          151885.99960288397 122220.65705654204 173610.59531243923 132346.66833960582 171169.15418576848 175407.28312854996
          141959.37420166057 177182.60683141724 175245.3659281784 165251.04984361367 174484.22734056553 155551.51548250913
          185168.99099763462 180544.16509107087 183030.84587786277 172021.22434028288 187412.49922207434 191272.01254767284
          148878.92771069994 157360.7424793136 194119.54441598617 170050.2626003749 189019.89523160458 199703.67913167432
          184850.9969709409 213246.9267350407 206954.22952313305 209012.4450318929 208599.75325532927 172307.29440290606
          205143.74489245104 221672.7681161554 185734.22929611977 234743.35408164153 200374.04271712693 241353.21110114126
          239135.78444008078 217157.40466783522 217861.30134723513 217481.4410046074 234250.85222578252 235150.7509673388
          208109.3516189154 244299.44512879133 221843.39826044682 240884.9702346781 238871.28739294366 225398.97080716141
          222754.95311747288
        </DataArray>
      </PointData>
      <CellData>
        <DataArray type="UInt8" Name="vtkGhostType" format="ascii" RangeMin="0" RangeMax="0">
          0 0 0 0 0 0
          0 0 0 0 0 0
          0 0 0 0 0 0
          0 0 0 0 0 0
          0 0 0 0 0 0
          0 0 0 0 0 0
          0 0 0 0 0 0
          0 0 0 0 0 0
          0 0 0 0 0 0
          0 0 0 0 0 0
          0 0 0 0 0 0
          0
        </DataArray>
      </CellData>
      <Points>
        <DataArray type="Float32" Name="Points" NumberOfComponents="3" format="ascii" RangeMin="0" RangeMax="21.540659228538015">
          20 0 0 18 0 0
          20 2 0 18 2 0
          16 0 0 20 4 0
          16 2 0 18 4 0
          15.295419692993164 1.1292860507965088 0 14.916139602661133 0 0
          15.295419692993164 3.129286050796509 0 16 4 0
          14.590840339660645 2.2585721015930176 0 14.211560249328613 1.1292860507965088 0
          20 6 0 13.832269668579102 0 0
          18 6 0 15.159649848937988 4.521406173706055 0
          14.455069541931152 3.6506919860839844 0 13.77322006225586 2.4042599201202393 0
          13.393939971923828 1.27497398853302 0 16 6 0
          12.74841022491455 0 0 13.637450218200684 3.796380043029785 0
          12.955599784851074 2.54994797706604 0 14.319310188293457 5.042811870574951 0
          12.310070037841797 1.27497398853302 0 20 8 0
          15.159649848937988 6.521406173706055 0 18 8 0
          11.66454029083252 0 0 12.629960060119629 3.9079220294952393 0
          13.311809539794922 5.154354095458984 0 11.965499877929688 2.6329140663146973 0
          11.319979667663574 1.3579399585723877 0 14.074970245361328 6.521406173706055 0
          16 8 0 11.639860153198242 3.9908881187438965 0
          12.304309844970703 5.265895843505859 0 10.580679893493652 0 0
          10.975410461425781 2.7158799171447754 0 14.91532039642334 8 0
          13.067469596862793 6.63294792175293 0 10.236109733581543 1.3579399585723877 0
          13.830639839172363 8 0 11.193989753723145 5.276315212249756 0
          10.529540061950684 4.001307010650635 0 11.982789993286133 6.63294792175293 0
          9.496814727783203 0 0 9.69417953491211 2.4835739135742188 0
          12.745949745178223 8 0 8.954882621765137 1.125633955001831 0
          10.083660125732422 5.286734104156494 0 10.872469902038574 6.643366813659668 0
          9.248306274414062 3.769001007080078 0 11.661270141601562 8 0
          8.412951469421387 0 0 8.412951469421387 2.2512669563293457 0
          7.871018886566162 1.125633955001831 0 9.787784576416016 6.643366813659668 0
          8.799636840820312 5.206761837005615 0 10.576589584350586 8 0
          7.964282035827637 3.6890289783477783 0 7.329086780548096 0 0
          7.283721923828125 2.2820630073547363 0 9.491908073425293 8 0
          8.50376033782959 6.563395023345947 0 6.741789817810059 1.1564290523529053 0
          7.515613079071045 5.126791000366211 0 6.835052967071533 3.7198240756988525 0
          6.1931471824646 0 0 6.154493808746338 2.3128581047058105 0
          8.407225608825684 8 0 7.4190778732299805 6.563395023345947 0
          6.4895339012146 4.672304153442383 0 5.605851173400879 1.1564290523529053 0
          6.619455814361572 5.481435775756836 0 5.808973789215088 3.2653369903564453 0
          5.441469192504883 1.9511979818344116 0 5.364596843719482 2.658724069595337 0
          5.057207107543945 0 0 7.322544097900391 8 0
          4.892826080322266 0.7947694063186646 0 5.4634552001953125 4.2178168296813965 0
          6.522921085357666 6.918041229248047 0 5.593377113342285 5.026949882507324 0
          4.728445053100586 1.5895390510559082 0 5.019076824188232 3.611203908920288 0
          5.723298072814941 5.8360819816589355 0 4.651572227478027 2.297065019607544 0
          4.981727123260498 4.1089091300964355 0 5.019076824188232 4.6066131591796875 0
          4.574699878692627 3.0045900344848633 0 5.148999214172363 5.415746212005615 0
          4.537350177764893 3.5022950172424316 0 6.185208797454834 8 0
          4.5 4 0 4.054769992828369 2.0480599403381348 0
          4.537350177764893 4.497704982757568 0 4.25 3.5669870376586914 0
          3.838850975036621 0 0 5.385585784912109 6.918041229248047 0
          4.162350177764893 3.2857890129089355 0 4.574699878692627 4.995409965515137 0
          3.977897882461548 2.755584955215454 0 4.978107929229736 6.251728057861328 0
          3.674468994140625 0.7947694063186646 0 4.25 4.433012962341309 0
          4.162350177764893 4.7142109870910645 0 3.75 3.5669870376586914 0
          4.403809070587158 5.83139181137085 0 3.5655479431152344 3.0367839336395264 0
          3.3810958862304688 2.5065810680389404 0 3.75 4.433012962341309 0
          3.8271689414978027 5.076944828033447 0 5.0478739738464355 8 0
          3.5 4 0 4.6403961181640625 7.333686828613281 0
          3.0007948875427246 1.253290057182312 0 3.314276933670044 3.7099781036376953 0
          4.232917785644531 6.667374134063721 0 3.129826068878174 3.179774045944214 0
          3.314276933670044 4.1429901123046875 0 3.4148190021514893 4.795746803283691 0
          2.6204938888549805 0 0 3.656277894973755 5.912927150726318 0
          2.8785550594329834 3.8529679775238037 0 2.979095935821533 4.50572395324707 0
          2.5717179775238037 2.692473888397217 0 3.079637050628662 5.158480167388916 0
          2.1914169788360596 1.439182996749878 0 2.3204469680786133 3.3656671047210693 0
          3.8300790786743164 8 0 3.4226009845733643 7.333686828613281 0
          2.2134060859680176 4.213673114776611 0 2.877134084701538 6.474040985107422 0
          2.3139469623565674 4.866429805755615 0 1.7623389959335327 2.8783669471740723 0
          2.300493001937866 5.7195940017700195 0 1.3102469444274902 0 0
          1.6552979946136475 3.7263729572296143 0 1.3102469444274902 1.0974390506744385 0
          1.5482569932937622 4.574378967285156 0 2.6122829914093018 8 0
          1.534803032875061 5.4275431632995605 0 0.8811694979667664 2.5366220474243164 0
          2.0668160915374756 7.140354156494141 0 0.8811694979667664 3.492302894592285 0
          1.5213489532470703 6.280706882476807 0 0.7741286158561707 4.340309143066406 0
          0.7741286158561707 5.2238640785217285 0 0 0 0
          0 1.0974390506744385 0 0 2.194878101348877 0
          0.7606747150421143 6.077027797698975 0 0 3.1505589485168457 0
          1.306141972541809 8 0 0 4.106238842010498 0
          0.7606747150421143 7.140354156494141 0 0 4.98979377746582 0
          0 5.873348236083984 0 0 6.936674118041992 0
          0 8 0
          <InformationKey name="L2_NORM_RANGE" location="vtkDataArray" length="2">
            <Value index="0">
              0
            </Value>
            <Value index="1">
              21.540659229
            </Value>
          </InformationKey>
        </DataArray>
      </Points>
      <Cells>
        <DataArray type="Int64" Name="connectivity" format="ascii" RangeMin="0" RangeMax="36">
          27 36 11 5 29 21
          7 14 16 5 11 4
          0 7 6 1 2 3
        </DataArray>
        <DataArray type="Int64" Name="offsets" format="ascii" RangeMin="9" RangeMax="18">
          9 18
        </DataArray>
        <DataArray type="UInt8" Name="types" format="ascii" RangeMin="28" RangeMax="28">
          28 28
        </DataArray>
      </Cells>
    </Piece>
  </UnstructuredGrid>
</VTKFile>
