<?xml version="1.0"?>
<VTKFile type="UnstructuredGrid" version="0.1" byte_order="LittleEndian" header_type="UInt32" compressor="vtkZLibDataCompressor">
  <UnstructuredGrid>
    <Piece NumberOfPoints="164" NumberOfCells="275">
      <PointData>
        <DataArray type="Float64" Name="Velocity" NumberOfComponents="3" format="ascii" RangeMin="0" RangeMax="1.506409668719348">
          1.0001444908490091 0 0 1.0000957526483687 0.000015686872300354038 0
          1.0001562431961704 0 0 1.0001139826394212 0.00004879847319626856 0
          1.0000481400603445 0.000025794997580744204 0 1.0002428034899482 0 0
          1.0001652998517363 0.000121538636131156 0 1.0000736099542302 0.00011600303826867215 0
          0.9999987626743982 0.00006368870202365393 0 0.9999961886372324 -0.00000372442504708727 0
          1.0005806656219502 0 0 1.0000950628278715 0.0002112589730599993 0
          1.0002790432572053 0.00035297789653261023 0 0.9999745346544224 0.00016827974830165718 0
          0.9999205276209714 0.00006634850658947501 0 0.9999527318850354 0.000016857069301383816 0
          1.000797869233993 0 0 1.000178744598893 0.000442737892846024 0
          0.9998729123797464 0.00033459681758443965 0 1.0004722597569378 0.0006435895267419049 0
          0.9998550706403301 0.00013252934593105566 0 0.9999292655336256 0.000016057721904088915 0
          0.9998728882768746 0.0006752744486932901 0 1.0001563969301057 0.0008251648944568056 0
          0.9998696805253399 0.000020008754744659998 0 0.9999354766308957 -0.000006372394339994472 0
          1.0019547336860009 0 0 0.99960886012471 0.0002591643358042151 0
          1.0008314535972243 0.0015775147312145285 0 0.9996667604849301 0.00001451582541992497 0
          0.9999113390600616 -0.00002271195149137977 0 0.9990704328274773 0.0013864111067942303 0
          0.9991374746195982 0.0004165602735956871 0 1.0010032575334442 0.0016827404713172912 0
          0.9998586394563092 -0.00007058659361160309 0 0.9999464756423861 -7.975028906556492e-7 0
          1.0025633983152522 0 0 0.9996116844545966 -0.00003927234967110753 0
          1.002451190062177 0.0020125697515596744 0 0.9999521964696279 -0.000020382335434623537 0
          0.9997189139326226 -0.00028055715076557105 0 0.9999390009191363 -0.00007254568633314054 0
          0.9990254458900057 0.0010252466731807276 0 0.9994627019864164 0.002554778295990764 0
          0.998132566638354 -0.00033673647028864805 0 0.9985296849497902 0.0043084629940025095 0
          0.9999587973312543 -0.0001773301240927036 0 0.9999611298327381 -0.000010361072753559551 0
          1.008756575942171 0 0 0.9994291558105204 -0.00042838117047956436 0
          1.0014972089554772 0.00761545518093994 0 0.9999806227238895 -0.000032916227002304474 0
          0.9999343534964428 -0.0004395183032197419 0 0.9926591632266338 0.0013007495917679098 0
          0.9984942450731691 -0.00012778805611183923 0 0.9973553828648242 0.0063520603612568045 0
          1.0000284373879436 -0.0001031698626916977 0 0.9994606404415111 -0.0018122488122901304 0
          1.0104056227249807 0.003457679432638762 0 1.0001544958281992 -0.00020627912209327773 0
          0.9999793010487565 0 0 1.0085638812078082 0 0
          1.0001504424700827 -0.0010668301660092217 0 0.9999828135857303 0 0
          1.012666185905929 0.005178751179539161 0 1.0000424736903641 0 0
          0.9916429125048879 -0.00324509454773656 0 1.0060373567947865 0.006479682563100107 0
          1.0003414492149134 -0.0005917243558695018 0 0.9962083922076688 -0.0029787417203855364 0
          0.9861744415404338 0.010144500014969264 0 1.00011671265632 0 0
          0.9994136402625985 -0.0021089268449943454 0 0.980225496446737 0.03072842252323883 0
          1.0005227800768262 0 0 1.032974046184435 0 0
          1.001509828696208 -0.0009609461879983585 0 1.012616896052973 0.025477711585001093 0
          1.0038003725343168 -0.011260403141307421 0 0.950226311067742 0.008401189935521775 0
          1.004280752626391 -0.003494855124418858 0 1.0391733241858876 0.015026824367243868 0
          1.000786451531147 0 0 0.9730888037298904 0.0016649474706627373 0
          1.001311063338172 -0.00363231435579215 0 1.0548642759924118 0.0012021375349670984 0
          1.0026943762374734 0 0 1.023471690217464 0 0
          0.9815968984867951 0.1124065876225386 0 0.9897405928497729 -0.021100002605693866 0
          1.0072305733336921 -0.0037870813068085906 0 0.8978473994917344 0.0913181077816649 0
          0.9756976426758703 -0.09203839287822453 0 1.006377560187747 0 0
          0.9277882927009231 0.14678907159506938 0 1.0788640065752317 -0.003145009457745134 0
          1.0384711259421562 -0.01260489816399082 0 1.0409117490438795 0 0
          1.0209225798907817 -0.0012032751871483332 0 1.0007360781391472 -0.046821059190774374 0
          1.0065725636141445 0 0 0.6908250271386027 -0.007537134512991379 0
          0.8833531867942728 -0.1594350111201881 0 1.0775997897991143 0.0916377136110415 0
          1.065711186125261 -0.006049966785183177 0 1.3755549557081224 0.2042518017355183 0
          1.0463064916568987 0.0006988990312110754 0 1.0478478608946091 0 0
          1.019211690259663 0 0 0 0 0
          1.0299306153072503 -0.02535458112878351 0 1.4854279033930706 -0.2505474682218955 0
          1.4407009526196835 -0.1579165608705132 0 1.0403605694641374 -0.010565131965397857 0
          1.0564478482218465 -0.1456829524936072 0 1.0756690340039847 -0.006458316789474521 0
          0 0 0 1.045663715768009 0 0
          0 0 0 1.0354024581674068 0 0
          0 0 0 0 0 0
          1.079670766238994 -0.00683375798373731 0 1.0586722528983574 -0.0406876911820022 0
          1.2720010425303665 -0.36401182718177527 0 0.9777135297838907 -0.07482330541465976 0
          1.3584819549886118 0.10111665204312642 0 0.7236080875716385 0.06865241039530469 0
          1.053538357632108 0.024510610592269808 0 1.329271596118616 0.4560006429855207 0
          1.0427331408559322 0 0 1.0152618947597052 0 0
          0.945514488506912 -0.0425370319547389 0 1.004215298977909 -0.0267934756874936 0
          1.0306732694943002 -0.07662214559746743 0 0.867521486622764 -0.03704903061491762 0
          0.9511159349164383 0.11683733074269809 0 1.0619212033768852 0.014877735598729553 0
          1.0602335581901146 0 0 0.9444489553028561 0.06261313117296861 0
          1.0140137946850574 0.03426130605474949 0 1.0171889687283373 -0.0129983842714256 0
          1.0057485688564771 0 0 0.9934466392321972 0.00015543245151825489 0
          0.9547593619644852 0.0036677198388903104 0 1.0264236795294617 -0.01778808010557455 0
          0.9405643803311105 0.06552748857958662 0 1.0340024402716637 0 0
          1.0495987250242738 0.017335128322080475 0 1.0517495949852038 0.037361179722944435 0
          1.0082140486047124 0.009816938693375948 0 1.0000000000103326 0 0
          1.0000000000103326 0 0 1.0126240377434286 0.027448879486904987 0
          1.0000000000103326 0 0 1.0252732983876538 0 0
          1.0000000000103326 0 0 0.9701805086099052 0.025148206376892662 0
          1.0000000000103326 0 0 1.0000000000103326 0 0
          1.0469205821278935 0 0 1.0000000000103326 0 0
          1.0000000000103326 0 0 1.0000000000103326 0 0
          <InformationKey name="L2_NORM_RANGE" location="vtkDataArray" length="2">
            <Value index="0">
              0
            </Value>
            <Value index="1">
              1.5064096687
            </Value>
          </InformationKey>
        </DataArray>
        <DataArray type="Float64" Name="Pressure" format="ascii" RangeMin="-2.4261370232496997" RangeMax="0.4170261977077642">
          0.000007749177626040153 8.894671226138432e-7 -0.00007221946724026926 0.00001726306455130568 0.000015223902396073953 -0.00018866250717510815
          -9.94362928169218e-7 0.00014387651239221397 0.00014623281270654672 -0.0000037947031990286523 -0.0006441110393963652 0.000314938130256229
          -0.00021402318885311016 0.00034881599012450424 0.00022848980222569225 0.000003875884703810229 -0.0014826034831870321 0.0005100204753257574
          0.0007778939431267995 -0.000597450791460622 0.0005646252613908001 0.00009260492132987769 0.001376178782344056 0.0011139093146491752
          0.00023611900393461535 0.0000324289331801145 -0.003965514335502919 0.0012825981470367394 -0.0015717912235570888 0.0006934122875304205
          -0.00001772141788653324 0.003244634818318366 0.0028870930024171917 0.0005966895471507686 0.00000810180921582092 0.000003589111873954222
          -0.007076556722863652 0.0011806405489368204 -0.004749158560373452 -0.00015540934403542422 0.00018478265017829606 -0.00032693843396361903
          0.004675620057189862 0.005927611949967095 0.003889091109298716 0.005547129586737843 -0.0006142770152679723 0.0000030857298640180654
          -0.019855904059904762 0.0007660811145909657 -0.006918143299053943 -0.000393749993519278 -0.0008916410436458412 0.017459892607161933
          0.0052340180546305865 0.009016374489816759 -0.0008788270182552219 0.0013425446597174662 -0.00874810879393988 -0.0016820515326298005
          -0.000006418980240115508 -0.030363178252201875 -0.0019907855582018876 -0.00032816685970963233 -0.029038692451130076 -0.0008043276496759619
          0.013964768823011961 0.01247964653242499 -0.0030179707111155293 0.006649647441413126 0.04529135378511317 -0.001537459444649531
          -0.0011838822905785831 0.028492535435497422 -0.003173674188262611 -0.0844038729130662 -0.006443276897664767 -0.04681118067841883
          0.006492883379071571 0.10911561048778678 -0.010328932754169544 -0.021286334953843487 -0.005587847293826237 0.041006254019304085
          -0.010517815619248473 -0.11050353193177749 -0.012324130664735687 -0.11503765446311727 0.04101988616482553 0.012416881544125045
          -0.02470756600288699 0.2733301057463046 0.07299883563568213 -0.025084259686159446 0.0904339813732272 -0.1963950597015662
          -0.05824839873087782 -0.24548183172863622 -0.0574285196338146 -0.032082428840171734 -0.04461717165818775 0.4170261977077642
          0.3062359788579633 -0.10403201416039123 -0.3394893739472075 -0.09770941948527744 -0.09797934652941102 -0.39319796325602835
          -0.09998227172609038 -0.16601266247753263 -0.10927845295643462 -0.23268696400645814 -0.5427843734214739 -0.48277358667399417
          -0.10248004942128085 -0.4835279828510278 -0.5249101503677704 -0.17974930049086896 -0.6683999308545377 -0.5364551419082978
          -0.8209405429827356 -0.8566471738903593 -0.3138322212112081 -0.6214454322705025 -1.2646765888435603 -0.7705474062275266
          -0.597562899815097 -1.3807852689589166 -0.4163653749405785 -1.3521083471739461 -0.29492692523427017 -0.6078544799893779
          -0.9886872794340148 -0.7038363296143172 -0.8334905880202775 -1.1397150066306245 -1.1920939549371101 -0.5433618057660329
          -0.460246968722423 -0.8989475143467828 -0.728159930947233 -1.089194920155996 -0.8839071607181598 -1.135621540405717
          -1.098262453115271 -1.268985948613337 -0.9980780443827032 -0.60745865341967 -0.7482964716714319 -0.8954009923296593
          -1.481779568131651 -1.977468294113257 -2.1272567501610906 -1.1725312744517302 -2.3284090520260503 -0.7016536340918991
          -2.4261370232496997 -0.9696073720048707 -2.3485416894353417 -2.4231992057912763 -1.0108848448694978 -2.2403759088631348
          -2.065752889632236 -2.0919183952489897
        </DataArray>
        <DataArray type="Float64" Name="Sigma" NumberOfComponents="6" format="ascii" RangeMin="9.283922711688032e-8" RangeMax="0.07785279808448226">
          5.161094135725148e-7 -3.767498522402458e-7 0 -6.109447328111323e-7 0 0
          5.600230441314681e-8 -1.8299299320764108e-8 0 -8.919318312576854e-8 0 0
          -0.0000013619956869877618 0.0000012028081681548748 0 -5.55251823086126e-7 0 0
          -0.0000010201914252069476 9.436082025729036e-7 0 -0.0000012470066111522256 0 0
          8.764218261897238e-8 7.41997184090795e-9 0 -0.0000011083102141491128 0 0
          -0.000004985820735805181 0.000005409832953945545 0 -0.0000022466433920231694 0 0
          -3.1835126270496087e-7 5.28600783836939e-7 0 -0.0000016427377687151708 0 0
          -8.874624923447423e-7 8.146683052020111e-7 0 -0.000001485633847733682 0 0
          6.894951147923295e-7 -6.967003864919763e-7 0 -0.0000017626019359891695 0 0
          -4.767611259331589e-7 4.575858516805359e-7 0 -4.950933601059614e-7 0 0
          -0.000005971962497952281 0.000005613151578127075 0 -3.201022687378942e-7 0 0
          -6.209795798664351e-7 5.206006532645085e-7 0 -0.0000027504022445786536 0 0
          -0.000002388694344258313 0.0000015916628150719534 0 -0.000004810703944467682 0 0
          6.17690783597516e-7 -6.924783727291109e-7 0 -0.0000026671928436793556 0 0
          9.580279335471464e-7 -6.432137004254508e-7 0 -6.486287973116904e-7 0 0
          1.945136072496703e-7 -3.873693146027589e-7 0 -5.388994322594295e-7 0 0
          -0.000013242442936778589 0.000015947644241120187 0 -0.0000033553536497979537 0 0
          -0.000004277301612660118 0.00000499784099124993 0 -0.000005842446310619404 0 0
          0.0000027284305491249418 -0.000002108090745266783 0 -0.000004692997861251389 0 0
          -0.000004527144287334364 0.000006082889149023218 0 -0.000010164628366800881 0 0
          0.000003110809356806979 -0.000004070367190377654 0 -0.000001602438756919345 0 0
          0.0000011118658549885693 -0.000001013383936416589 0 -4.4931092318438764e-7 0 0
          0.00000549980675515683 -0.00001017195379725776 0 -0.00000980781528727991 0 0
          0.000003638860535512483 -0.000004418125323944303 0 -0.000011707840919981127 0 0
          0.0000012757381542000508 -0.0000014725171261552029 0 1.8864323436344245e-8 0 0
          -6.318916047926707e-8 4.7329410568672144e-8 0 -4.884853104042316e-8 0 0
          -0.000028149687300325767 0.000018167673627221983 0 -0.00000227986465478229 0 0
          0.000002827271041299902 -2.8948276372123843e-7 0 -0.0000028848518080767964 0 0
          -0.000007872297932938106 0.000007556055429103618 0 -0.000014768833449388096 0 0
          0.000005769936417544499 -0.000004512296769277588 0 4.77430814775143e-7 0 0
          8.580152265650625e-7 -7.563648994847608e-7 0 5.940048558575749e-7 0 0
          -0.0000033552305883592496 0.00001848437699516182 0 -0.000017763844065965138 0 0
          0.000023348301037600905 -0.000025280835616368792 0 -0.0000060264782100635946 0 0
          -0.00002707030348719098 0.00002545286375409792 0 -0.000028330493082600973 0 0
          0.000002036175151420168 -0.0000025808926454518447 0 0.0000015822133422982322 0 0
          7.150503639573851e-8 -7.508907017498762e-9 0 3.7759823678965006e-7 0 0
          -0.00005288067355003071 0.00008643497907582209 0 -0.000014992397233103461 0 0
          0.0000071537449281259675 -0.000013371252883330871 0 0.000002009565697420356 0 0
          -0.00002144590519833453 0.000006086411956917012 0 -0.00004394938274516812 0 0
          3.019916776438842e-8 -1.5301584542747e-7 0 5.676002829650179e-7 0 0
          0.000002062525917580579 -5.496475744250378e-7 0 0.000005352630183748174 0 0
          2.2970297800529737e-7 2.7438296966283194e-8 0 0.0000014989869896066968 0 0
          0.000004424575945484348 -0.00001514562917487341 0 -0.000013415987963997328 0 0
          0.0000825147506554481 -0.00012910053508938848 0 -0.000044672901812652876 0 0
          0.000017914571324348374 0.000002580381563284176 0 0.00000820318342502648 0 0
          0.000008018526167303914 0.00002619448237975427 0 -0.000028252909826385208 0 0
          -0.0000012170489222690212 7.838428480719724e-7 0 0.0000032838928751541372 0 0
          -7.123657652129278e-8 8.96162616671591e-8 0 2.2765223869115625e-7 0 0
          -0.0001005742410395315 0.00002851570295933757 0 0.000002051083833716231 0 0
          0.000009910887610481732 -0.000011634149414008409 0 0.000007291019582486443 0 0
          -0.000034105292386569484 0.0000898975267920875 0 -0.00006961301868710702 0 0
          -4.750782622013232e-7 5.245983801294842e-7 0 5.5443169119291e-7 0 0
          0.000003672822818793349 -0.0000038230686104858565 0 0.000007954018279349843 0 0
          0.00006220091778021717 0.000021706210963156048 0 -0.00001519398029478522 0 0
          0.00007048502571549257 -0.00012307829806639653 0 0.0000012889125320116746 0 0
          -0.00013382415234656196 0.00021138050027943962 0 -0.00010343053917240178 0 0
          -0.0000012387029076443894 0.0000010985540465545337 0 0.0000017420342109444214 0 0
          0.000016297977920015023 -0.000022076170970196313 0 0.00003172575687707244 0 0
          -0.000025687048412262737 -0.00011609506345849313 0 -0.0001669311446350464 0 0
          -0.000004332737876716169 0.0000045041585146469935 0 0.0000031780368454713595 0 0
          1.6723068023331523e-7 -2.2100327164103285e-7 0 5.916118719712023e-9 0 0
          -0.00023710975574356205 0.0003701350472839242 0 -0.00008703042827693013 0 0
          -0.00001881703479251664 0.00002000825362575398 0 0.000020442561914340374 0 0
          -5.606680773767429e-7 6.134311199347634e-7 0 2.043483988821753e-7 0 0
          -0.0000933835139117824 -0.00002783687935043302 0 -0.00005393828755814924 0 0
          -0.0000017964833606280367 0.000001554617477885047 0 3.3977258813880535e-7 0 0
          0.00018557885584565302 -0.00011948495650700863 0 0.00004105158793742322 0 0
          0.00008205060883917865 -0.0003736276168125312 0 -0.00012365225189573696 0 0
          -0.000006749111442618782 0.000008694684614146113 0 0.0000073231470313506524 0 0
          -0.000049322264328569524 0.00009339098804571146 0 0.00007123258252324176 0 0
          0.0004469035719592332 -0.00048068444262437866 0 0.00002445078695523146 0 0
          -0.000002713874360614183 0.0000038929666099428046 0 5.889618784549365e-7 0 0
          0.00004886179297242161 -0.00004700921231260496 0 0.000018536878218614615 0 0
          -0.0002526863556017394 0.0006468204940693208 0 -0.00024239752701903927 0 0
          -0.000010719737769043742 0.000007082829162710188 0 0.000002987536665425941 0 0
          -0.0002110041237158092 0.00006211154200089 0 0.0000298220420600914 0 0
          -0.000025427895038075026 0.00001362542755120574 0 0.000018466564487936956 0 0
          -0.0002967600461959613 0.00031536481367111784 0 -0.0004549236301583387 0 0
          0.0001670601360129453 -0.00028463158898216787 0 0.00020544845741858795 0 0
          0.0005127366244174344 0.00009584584026336955 0 -0.0003986558404460795 0 0
          -0.0001463774494692576 0.00009251094958974391 0 0.000059051203462437674 0 0
          -0.0009632537124380178 0.000641339050164322 0 -0.000695090006274884 0 0
          -0.00001118033780642137 0.00002056778455862235 0 0.000003051120047041403 0 0
          -0.000022718460128942616 0.00012459154346869644 0 -0.00002074955677720078 0 0
          -0.000022812346189624437 0.00006308655532125708 0 0.00007125217702006887 0 0
          0.0005772113933750888 -0.0009324108384098591 0 0.0001472259186292766 0 0
          -0.00006435292300868326 0.000055139838396372714 0 -0.000007267847209265905 0 0
          -0.0008881328128478802 0.0013089710086695283 0 0.0003490125092203514 0 0
          0.0019214288632187554 -0.0028371680098677856 0 -0.0029642454828171004 0 0
          0.0002820114061467584 -0.00012106560323525478 0 0.0004736302360878757 0 0
          -0.00018583597538299082 0.00016999241008147672 0 -0.00009702990193983637 0 0
          -0.001804339541429982 0.002263174922368016 0 -0.00007925970490869723 0 0
          0.002142842888610521 -0.0026522350444162603 0 0.0029308909474348942 0 0
          -0.00005186292730440406 0.000009064287883738553 0 0.000079141253329739 0 0
          -0.004269308072953705 0.004509989066767237 0 -0.003070966879227642 0 0
          0.0008353650532265141 -0.001269987096857554 0 -0.000628286681503947 0 0
          -0.0005408223189532422 0.00015835941232383928 0 -0.00006313943087577268 0 0
          -0.0008292932120331182 0.00119643825535973 0 0.0011717184040308042 0 0
          -0.00005928335485169181 -0.00022281320542242525 0 0.00033884891539561173 0 0
          -0.0010737201439157032 0.001442790347508908 0 -0.00006253194183272946 0 0
          -0.00012013704401992967 0.0002884739154866853 0 -0.00009392963274080771 0 0
          0.007269403117495862 -0.005693896527806753 0 0.0003704465852343598 0 0
          -0.004709654096828943 0.005523812383964836 0 0.0020594151470169054 0 0
          -0.005324279100532883 0.005978765223921682 0 0.007952772354414868 0 0
          0.0007955765846885076 -0.0011977008344860327 0 -0.0014060778860454939 0 0
          0.001364559922635509 -0.0013893360398438811 0 -0.00797620379748942 0 0
          0.002185723345373762 -0.002712208717596519 0 0.0013999173238662954 0 0
          -0.00011417069488778235 0.0002995985701720101 0 0.0006384034102240505 0 0
          -0.0002955825321810257 0.00034839988711887635 0 -0.00010522265678018309 0 0
          0.01155069136911375 -0.015096578034520787 0 0.0015633413984848818 0 0
          -0.0008850068162639843 0.0011368635937218494 0 -0.00018505063643394065 0 0
          0.004608087365988762 -0.004381659023328079 0 0.008982271279189945 0 0
          0.005466069503258094 -0.005390310986039132 0 0.0022143724415477906 0 0
          0.0005034867871016758 -0.0005654618366218828 0 -0.0001394032095637736 0 0
          -0.00827089374536605 0.0085057458283678 0 -0.003667557190245731 0 0
          0.0000061176228230781566 0.00009525677427099412 0 0.0010339788188205002 0 0
          -0.0070841857091693905 0.0060181515163521 0 -0.004609544988721612 0 0
          0.0000914187315106424 -0.0003869260381646731 0 0.00031747646266633864 0 0
          -0.008289922240553922 0.007114178283818472 0 0.005827658393886734 0 0
          0.00034809314335871775 -0.0005421974923202085 0 -0.00005879818149611373 0 0
          -0.04244283554113805 0.0489899252500298 0 -0.037752351721963937 0 0
          -0.044327544508011386 0.04851891364622245 0 0.04173777648682118 0 0
          -0.000013467670502406328 -0.00016441583086606275 0 -0.0002459807820078766 0 0
          0.0013508057698024126 -0.0011167488285078304 0 0.00034315176149508333 0 0
          0.008656767199939427 -0.008299800640361111 0 -0.00618417024132519 0 0
          0.0009292172910977311 -0.0015513240723555373 0 0.0006835899449119825 0 0
          0.002819723657089899 -0.0028545005570483617 0 -0.005039020078958512 0 0
          -0.013693660744763244 0.012111096911367919 0 0.0034548552704225504 0 0
          0.0015089232852903863 -0.0012739664577194833 0 -0.0010747489303002703 0 0
          0.013957332885760829 -0.012188309446963492 0 0.00724154918776523 0 0
          -0.0004698395672730914 0.0005334782038612292 0 0.00005197048460732376 0 0
          0.001008135681751703 -0.0008858014929635432 0 0.00022043695431705291 0 0
          -0.0027076406641773246 0.002394242193461305 0 -0.0016584509402666453 0 0
          0.00033126386978500253 -0.00040130648051389374 0 -0.00022097219334496355 0 0
          0.001130475881912123 -0.0008294021285151032 0 -0.0006500490012420607 0 0
          -0.003478226660129237 0.00278632595784782 0 -0.0012214675561608179 0 0
          -0.002532721134921982 0.001265496873631455 0 0.0025677962204444667 0 0
          0.0005160416570264777 -0.0005030018772807977 0 0.0002605091023856265 0 0
          0.00016846424922190503 -0.00008819384809663177 0 -0.0007140300107803354 0 0
          -0.000014247847691560917 -0.0008153018763782545 0 0.0005999345202982272 0 0
          0.00021781020759766953 -0.0002878601852747221 0 0.0007125455104785105 0 0
          0.00031846807613037303 -0.0002929873502032195 0 -0.00028629905106490963 0 0
          -0.00008169459165957182 0.000055996336697343194 0 -0.0004426096059260063 0 0
          0.00010223968494144777 -0.0001741428601081854 0 -0.00044467472335577945 0 0
          0.00024736225415715555 0.00006104134229270236 0 0.0004113750446744222 0 0
          -0.0000668909379360182 0.0006269149871509083 0 -0.00020403318907471455 0 0
          0.0007885465693966494 -0.0001234224646025656 0 0.0016628687084738957 0 0
          0.00008758644234099367 -0.00007844864813116932 0 -0.000048736626690836793 0 0
          0.0006535088936011887 -0.0006978696007131451 0 -0.000336101864574538 0 0
          0.0013582654272496326 -0.0010505565842903002 0 0.00014054413641311994 0 0
          -0.001598838777234496 0.0015902102694316772 0 -0.0005347889723140243 0 0
          0.0016566310286744107 -0.0017190117661428346 0 -0.00024730437816176986 0 0
          -0.0007523594013834139 0.0007527035265676188 0 0.0006099038698972667 0 0
          -0.0002517096668012339 0.00013862708618981752 0 0.0005327739365047324 0 0
          0.000015465650868062393 0.00004252932887109986 0 0.0006597186758446107 0 0
          0.0002103794665154984 -0.00016297160045837544 0 -0.00019484941759857486 0 0
          0.00028006762315746037 -0.0006229468552031819 0 -0.0004471461424221837 0 0
          0.0006441848916882836 -0.0007720709594484225 0 0.0002984191305398537 0 0
          -0.00021672336668933554 -0.00012242595246395773 0 -0.0004683922651834326 0 0
          0.0013337097587758887 -0.001341177040192751 0 0.0007721862022112475 0 0
          -0.00014975857391316344 0.00030831848693461863 0 0.0011547718696577084 0 0
          0.0006853914569413153 -0.0008289649284683858 0 0.00093184979950189 0 0
          -0.0006958563467089616 0.0007905676224385224 0 -0.0006942609511375221 0 0
          0.002043222448650521 -0.002631339753645263 0 0.0009313291744610057 0 0
          <InformationKey name="L2_NORM_RANGE" location="vtkDataArray" length="2">
            <Value index="0">
              9.2839227117e-08
            </Value>
            <Value index="1">
              0.077852798084
            </Value>
          </InformationKey>
        </DataArray>
      </PointData>
      <CellData>
        <DataArray type="UInt8" Name="vtkGhostType" format="ascii" RangeMin="0" RangeMax="0">
          0 0 0 0 0 0
          0 0 0 0 0 0
          0 0 0 0 0 0
          0 0 0 0 0 0
          0 0 0 0 0 0
          0 0 0 0 0 0
          0 0 0 0 0 0
          0 0 0 0 0 0
          0 0 0 0 0 0
          0 0 0 0 0 0
          0 0 0 0 0 0
          0 0 0 0 0 0
          0 0 0 0 0 0
          0 0 0 0 0 0
          0 0 0 0 0 0
          0 0 0 0 0 0
          0 0 0 0 0 0
          0 0 0 0 0 0
          0 0 0 0 0 0
          0 0 0 0 0 0
          0 0 0 0 0 0
          0 0 0 0 0 0
          0 0 0 0 0 0
          0 0 0 0 0 0
          0 0 0 0 0 0
          0 0 0 0 0 0
          0 0 0 0 0 0
          0 0 0 0 0 0
          0 0 0 0 0 0
          0 0 0 0 0 0
          0 0 0 0 0 0
          0 0 0 0 0 0
          0 0 0 0 0 0
          0 0 0 0 0 0
          0 0 0 0 0 0
          0 0 0 0 0 0
          0 0 0 0 0 0
          0 0 0 0 0 0
          0 0 0 0 0 0
          0 0 0 0 0 0
          0 0 0 0 0 0
          0 0 0 0 0 0
          0 0 0 0 0 0
          0 0 0 0 0 0
          0 0 0 0 0 0
          0 0 0 0 0
        </DataArray>
        <DataArray type="Float64" Name="Velocity_SGS" NumberOfComponents="3" format="ascii" RangeMin="0" RangeMax="0.43442727327865943">
          6.9262742585228e-310 6.9262742585228e-310 4.67856010738847e-310 0.3194664774510002 -0.2943946765031267 0
          -0.040630311499420965 0.10916172683112951 0 0.29421289243078075 0.29995702641565913 0
          0.00483706783971375 0.07747236478134 0 -0.014302330948005412 -0.030234197727504537 0
          0.23440116332755956 -0.11852165962080458 0 0.25711679900700884 0.02054859260038075 0
          0.2607704350319827 0.1282155056183994 0 0.15307980241593414 -0.015868340514567047 0
          -0.0696447663316947 -0.006835744387302379 0 -0.09367796802608197 -0.09830456641846282 0
          -0.04248821546990669 0.02431691860416113 0 -0.049805237085342666 -0.0341409324827033 0
          -0.09068057194623333 0.030376248641247702 0 -0.06238799800275699 0.057021432240568506 0
          0.02161179508125014 -0.08234383018503667 0 -0.0625657058226312 -0.0010808025877301862 0
          -0.04341182274952497 -0.08120546370870407 0 -0.1875523137761913 -0.022002209545486207 0
          -0.07074341334410712 -0.011345925116840622 0 0.02531210697495009 0.0246475984674873 0
          0.024321505581524006 -0.0003231741408169153 0 -0.05367752831912955 -0.05635932084890951 0
          0.019422438369100837 0.02303734368721916 0 0.03510089858749599 -0.03005545152974708 0
          -0.053951861177709504 0.03797263298058672 0 -0.053393300964968485 0.0358566556895527 0
          0.02591793560843895 0.007412792549103382 0 0.011203884196016825 -0.008364676537933206 0
          -0.004203655113389744 0.00944374363289852 0 0.0011051575100292995 -0.018430939231174094 0
          0.0029561742356889117 -0.022054411498837224 0 0.019148788491443636 0.003528091564461903 0
          -0.0008369389765733267 0.06802362533503449 0 0.012542419230660486 0.032708228665729026 0
          -0.059697529549788006 -0.003922981557802919 0 -0.1076778948844792 0.08788463094319668 0
          0.02230765413373926 -0.023624598420708492 0 -0.002852030286249351 0.009358559148034616 0
          -0.0024231478174689533 -0.009224159021363091 0 -0.006720921635505151 -0.000038805438761908145 0
          -0.0036334772077258187 0.005718680281749095 0 -0.023860587183068476 0.0063712491442780034 0
          0.015934461127631635 0.0007895188524656102 0 0.013514165350385719 0.0005955185046685291 0
          0.0016529987126988864 -0.004172814131600744 0 0.0004922151107683899 -0.0034056666803556662 0
          0.032659505825504094 -0.015202630750512348 0 0.034945700768466786 0.012404160429093277 0
          -0.019599121207801683 -0.026143748068445737 0 -0.012645987981492225 0.015163651692089827 0
          0.03539981596513156 -0.01992503501466672 0 -0.017469875844996027 0.001981989363626313 0
          0.018575093352437677 0.027037842229886314 0 -0.010133449206347764 -0.011886375270523294 0
          0.00449830078768752 0.007991838825543655 0 -0.034301369543094304 -0.005863574311059492 0