<?xml version="1.0"?>
<VTKFile type="UnstructuredGrid" version="0.1" byte_order="LittleEndian" header_type="UInt32" compressor="vtkZLibDataCompressor">
  <UnstructuredGrid>
    <Piece NumberOfPoints="33" NumberOfCells="46">
      <PointData>
        <DataArray type="Float64" Name="proc" format="ascii" RangeMin="0" RangeMax="1">
          1 1 1 1 1 1
          1 1 1 1 1 1
          1 1 1 1 1 1
          1 1 1 1 1 1
          1 1 1 1 0 0
          0 0 0
        </DataArray>
        <DataArray type="Float64" Name="Displacement" NumberOfComponents="3" format="ascii" RangeMin="0" RangeMax="6.699581162503725e-11">
          2.7107226810045956e-11 -6.126693259798634e-11 0 2.706318500910787e-11 -5.878653080522712e-11 0
          2.6266678342841088e-11 -5.91438309736472e-11 0 1.9765790140459084e-11 -5.5102769067923346e-11 0
          2.8816147765543665e-11 -5.732250189228868e-11 0 2.8016217898686565e-11 -5.672413881337421e-11 0
          2.4795184788950554e-11 -5.4694290648193244e-11 0 1.9124485789872074e-11 -5.128946740225181e-11 0
          3.359879398778594e-11 -5.429673170769473e-11 0 3.224999150003031e-11 -5.2986706749098505e-11 0
          2.919206544534643e-11 -5.031462799776157e-11 0 1.2153228823485644e-11 -4.979591441565367e-11 0
          2.4631731368099328e-11 -4.6358994707873267e-11 0 1.7804444502965125e-11 -4.29143877734279e-11 0
          3.9429052738176995e-11 -4.80897215962551e-11 0 3.527127039448482e-11 -4.471339004892493e-11 0
          3.091897578994421e-11 -3.93522818819284e-11 0 5.9916167281953846e-12 -2.9503163221468e-11 0
          2.442315266713846e-11 -3.056115551339258e-11 0 4.371154786367784e-11 -3.8772842150788284e-11 0
          3.7444447174748874e-11 -3.393054117344527e-11 0 3.239266628239211e-11 -2.6447776485529175e-11 0
          4.59508240142011e-11 -2.8165537562392706e-11 0 0 0 0
          1.8728706028003404e-11 -8.869983807667586e-12 0 2.909675746808304e-11 -1.43563021461179e-11 0
          3.7289914530013816e-11 -1.7069064160505042e-11 0 4.637704769979865e-11 -1.7495287846102622e-11 0
          2.5294726170132394e-11 -5.7313477632141064e-11 0 2.7050784671505454e-11 -5.6441722112510606e-11 0
          2.6112615223921373e-11 -5.6697196352018606e-11 0 2.792921303434425e-11 -5.91228071083189e-11 0
          3.4461739017465756e-11 -5.504367623683839e-11 0
          <InformationKey name="L2_NORM_RANGE" location="vtkDataArray" length="2">
            <Value index="0">
              0
            </Value>
            <Value index="1">
              6.6995811625e-11
            </Value>
          </InformationKey>
        </DataArray>
        <DataArray type="Float64" Name="TopologicalDerivative1" format="ascii" RangeMin="-0.066620893134996" RangeMax="0.5057958565670165">
          0.055122921578820275 -0.06007846800647101 -0.021999868957013655 0.06122998503236095 0.00018682195660572887 -0.054517176652080904
          -0.036788195328613715 0.056021539239763815 0.07776590860051617 -0.000029489381564995476 -0.03875963228255996 0.17395357854546978
          -0.01996547062851231 0.04670622171515061 0.04486595561624465 -0.009759593886456877 -0.01383729103820456 0.14676674726363226
          0.019949819847927264 -0.00984723221373314 -0.03499797002638902 -0.009813831686012409 -0.057013738975895026 0.5057958565670165
          0.1939232426516851 0.08253437596376985 -0.03914679451722501 -0.066620893134996 -0.005128109317244875 0.07828781331444189
          -0.05377200098490313 -0.02264972524075594 0.03185835702416849
        </DataArray>
      </PointData>
      <CellData>
        <DataArray type="UInt8" Name="vtkGhostType" format="ascii" RangeMin="0" RangeMax="1">
          1 1 1 0 0 1
          1 1 1 0 0 0
          1 0 0 0 0 0
          0 0 0 0 0 0
          0 0 0 0 0 0
          0 0 0 0 0 0
          0 0 0 0 0 0
          0 0 0 0
        </DataArray>
        <DataArray type="Float64" Name="Stress" NumberOfComponents="6" format="ascii" RangeMin="0.00001127372124887622" RangeMax="0.1044102044605136">
          -0.03991905204841622 -0.000553278376213209 0 0.000015857689568834085 0 0
          -0.000010578099434951197 0.0000027624599576226375 0 0.000002751257553225415 0 0
          -0.00004405263327882218 0.000009348010473770535 0 3.971042209960171e-10 0 0
          -0.00001070227211496395 0.0000028502588178367572 0 -0.0000027447816746861185 0 0
          -0.00000719136430521756 0.000014150101232422457 0 -0.000003908111708249925 0 0
          -0.000007198987166262728 0.000014026167519917528 0 0.000003761914019474465 0 0
          0.0000217498188232983 0.000010389335790670285 0 -4.760178802952383e-8 0 0
          0.01397719435287333 0.015093642446639313 0 0.00004538714383878967 0 0
          0.06667370824358973 0.01535295194163138 0 0.012243124454362144 0 0
          0.07003954849677363 0.016235177370838644 0 -0.012821506036571825 0 0
          -0.0017512180850595134 -0.0663611854869216 0 -0.025821503295257797 0 0
          0.0037360065453434935 -0.010897127996186303 0 -0.017727447523988443 0 0
          -0.07742472547477378 0.0038379544019736256 0 -0.001859820835251112 0 0
          -0.04136051884833855 -0.0005217377271392286 0 -0.0036727407753482646 0 0
          -0.06868981616017891 0.004244238140304314 0 -0.005923594067758344 0 0
          -0.00015041229255127866 0.000040707657290989244 0 -0.00002604008214074136 0 0
          -0.000013072390421758545 0.0000034592671271995694 0 -0.000010152212595065518 0 0
          -0.00003315077327227127 0.000010348578203942794 0 -0.000013836884598001906 0 0
          -0.02985712400263705 -0.0003078271033849257 0 -0.0065475515534884855 0 0
          -0.00001730441375812774 0.000001886978381877827 0 -0.000018558207205128653 0 0
          0.000028406520298833272 0.00001190950960906746 0 -0.000009342135073682331 0 0
          -0.0341068820775604 0.0017389721263623994 0 -0.006354989562692596 0 0
          -0.000024702799267632596 0.0000045844069851202015 0 -0.000019188351799752364 0 0
          -0.00001013865147955739 0.00001323839693453675 0 -0.000009282951843938543 0 0
          -0.000026148854952843782 -2.3577863225042352e-7 0 -0.000010576339147997468 0 0
          0.000006867238539311353 0.000008339415490569705 0 -0.000011842536709065987 0 0
          -0.000027421442196413066 -0.0000018337613004464782 0 -0.000009590000180722424 0 0
          -0.000011306812950881554 0.00002159306146218943 0 -0.000016681370460594915 0 0
          0.006588083946330513 0.014033147709703018 0 -0.0009301240871217465 0 0
          -0.00000908173339660842 -8.203073214852971e-7 0 -0.000008575130196053423 0 0
          -0.0007337483413796207 0.0008102503026442452 0 -0.007921821249027121 0 0
          0.025648820808593403 0.01583012225281949 0 -0.010952870712346584 0 0
          0.0022408411687365563 0.020908917241721243 0 -0.015528449138139378 0 0
          0.03850761551898056 0.05139226236118609 0 -0.0054217093288250915 0 0
          0.06409298188052936 0.01647168588580971 0 -0.022667250172234737 0 0
          0.08026312736191182 0.02394179572988934 0 0.013847016287309975 0 0
          0.03693980663779439 -0.0006653896780281516 0 -0.009705603191475369 0 0
          0.041869773867199055 0.007095020735130691 0 -0.0013866952432398075 0 0
          0.0009603372826240747 -0.008178375422366296 0 -0.02467784182692128 0 0
          -0.004299763955539945 -0.0026969954902998456 0 -0.008559605710077372 0 0
          -0.004866862424128281 -0.021206683234589307 0 -0.012521119268684034 0 0
          -0.000009539600640688853 -0.000010378537695380162 0 -0.000018627757833799467 0 0
          -0.000008974366916570075 4.498468859677699e-7 0 -0.000022698214922035286 0 0
          -0.000007306691753100969 -0.000007306691753101248 0 -0.000007306691753101143 0 0
          0.028118218552826785 -0.09800434012616299 0 -0.022494574842327662 0 0
          0.013502451527910807 0.0010036300892544547 0 -0.0015180596869642275 0 0
          <InformationKey name="L2_NORM_RANGE" location="vtkDataArray" length="2">
            <Value index="0">
              1.1273721249e-05
            </Value>
            <Value index="1">
              0.10441020446
            </Value>
          </InformationKey>
        </DataArray>
        <DataArray type="Float64" Name="Strain" NumberOfComponents="6" format="ascii" RangeMin="6.13109099172834e-14" RangeMax="5.599250841310046e-13">
          -1.7607107977056349e-13 5.059133627288144e-14 0 1.8261255376148794e-16 0 0
          -4.752848925932495e-14 2.4732874117116643e-14 0 2.9805290159941994e-14 0 0
          -1.7607107977056349e-13 8.478625653090652e-14 0 3.879636725093297e-18 0 0
          -4.765164447893458e-14 2.4989620080024084e-14 0 -2.942393753256715e-14 0 0
          -4.765164447893458e-14 6.794796051661553e-14 0 -4.233787683937421e-14 0 0
          -4.752848925932495e-14 6.744109862415145e-14 0 4.0754068544306707e-14 0 0
          7.763757535873837e-14 1.610162559866998e-14 0 -5.156860369865082e-16 0 0
          7.764288143776768e-14 8.95688322438445e-14 0 9.696551907288161e-16 0 0
          2.9418048829679197e-13 -2.2035448589499105e-14 0 1.5087350026460363e-13 0 0
          2.9365746678347496e-13 -2.1524190302762243e-14 0 -1.5021469201783847e-13 0 0
          7.56547398375707e-14 -2.7431591692251564e-13 0 -2.797329523652928e-13 0 0
          2.918810393416409e-14 -5.007470816578897e-14 0 -1.9204734817654146e-13 0 0
          -3.2740046581402447e-13 1.1277238351835733e-13 0 -2.0148059048553717e-14 0 0
          -1.7169218672433226e-13 4.952929833501032e-14 0 -3.979007924596374e-14 0 0
          -2.9151293751955256e-13 1.0354662154071507e-13 0 -6.417228502941248e-14 0 0
          -1.7169218672433226e-13 9.061711605796454e-14 0 -7.147925474414252e-14 0 0
          -5.87923773329934e-14 3.0754101057196387e-14 0 -1.0998230311320977e-13 0 0
          -1.5106394472272544e-13 8.455754244010072e-14 0 -1.4989958314502066e-13 0 0
          -1.5106394472272544e-13 4.3897488362746964e-14 0 -8.639935078126575e-14 0 0
          -7.44604469695462e-14 2.9492927122150623e-14 0 -2.0104724472222708e-13 0 0
          1.0347361423380432e-13 1.4114806330906152e-14 0 -1.0120646329822523e-13 0 0
          -2.1412475627504243e-13 7.402254991602923e-14 0 -1.0216931157198387e-13 0 0
          -1.086588390132027e-13 4.998019485587491e-14 0 -2.0787381116398394e-13 0 0
          -5.87923773329934e-14 6.78333015766832e-14 0 -1.0056531164266755e-13 0 0
          -1.086588390132027e-13 3.170365772334463e-14 0 -1.1457700743663925e-13 0 0
          1.8189224550585163e-14 2.616351636990125e-14 0 -1.2829414768154817e-13 0 0
          -1.1196380752616302e-13 2.663613066032267e-14 0 -1.0389166862449294e-13 0 0
          -7.410304745640992e-14 1.0410460561439123e-13 0 -1.807148466564449e-13 0 0
          2.2238610486516527e-14 1.1274558996765723e-13 0 -2.261437224545922e-14 0 0
          -3.681517166734513e-14 7.934219572905122e-15 0 -9.289724379057874e-14 0 0
          -1.3758818126951304e-14 1.451310347239756e-14 0 -2.9011049995855933e-13 0 0
          9.451139214506096e-14 3.6789622256714945e-14 0 -1.2877859102886818e-13 0 0
          -1.9755494065512588e-14 9.91571857341107e-14 0 -1.9782750969399465e-13 0 0
          9.62080700442697e-14 1.659999071062164e-13 0 -5.873518439560513e-14 0 0
          2.464644838116103e-13 -1.1484202826454614e-14 0 -2.455618768658763e-13 0 0
          3.0450245267893757e-13 -5.714269945175236e-16 0 1.5000934311252477e-13 0 0
          1.5474759808834516e-13 -4.8947215289026947e-14 0 -1.051440345743165e-13 0 0
          1.9449476160022498e-13 -2.6750307740329887e-14 0 -1.7644955469828275e-14 0 0
          1.474035841472015e-14 -3.6556645140745144e-14 0 -2.7704106274082175e-13 0 0
          -3.669388825455567e-14 -1.479108684165561e-14 0 -2.3394438823384897e-13 0 0
          1.0270023375506972e-14 -1.3563810071935716e-13 0 -2.2361726548336581e-13 0 0
          -2.677516388364501e-14 -3.131940626322295e-14 0 -2.0180070986616087e-13 0 0
          -3.795550409316836e-14 1.3092320670578302e-14 0 -2.458973283220489e-13 0 0
          -2.1311184279877475e-14 -2.131118427987899e-14 0 -7.915582732526241e-14 0 0
          2.396646691278154e-13 -4.4349919038337927e-13 0 -2.4369122745854965e-13 0 0
          1.1955136797150981e-13 -2.75945467901649e-14 0 -3.5743575087858255e-14 0 0
          <InformationKey name="L2_NORM_RANGE" location="vtkDataArray" length="2">
            <Value index="0">
              6.1310909917e-14
            </Value>
            <Value index="1">
              5.5992508413e-13
            </Value>
          </InformationKey>
        </DataArray>
      </CellData>
      <Points>
        <DataArray type="Float32" Name="Points" NumberOfComponents="3" format="ascii" RangeMin="0" RangeMax="128.28654354956544">
          100 0 0 100 45.35898208618164 0
          89.30555725097656 23.870376586914062 0 75 0 0
          90 62.67949295043945 0 80 45.35898208618164 0
          70 28.038475036621094 0 57 13.358983993530273 0
          80 80 0 70 62.67949295043945 0
          60 45.35898208618164 0 50 0 0
          48.827545166015625 28.876956939697266 0 41.327545166015625 13.757295608520508 0
          60 80 0 50 62.67949295043945 0
          38.48822784423828 45.76527404785156 0 25 0 0
          24.63772964477539 27.38901710510254 0 40 80 0
          30 62.67949295043945 0 17.464101791381836 47.607696533203125 0
          20 80 0 0 0 0
          0 20 0 0 40 0
          0 60 0 0 80 0
          110 62.67949295043945 0 100 80 0
          120 45.35898208618164 0 110.71759033203125 23.771137237548828 0
          125 0 0
          <InformationKey name="L2_NORM_RANGE" location="vtkDataArray" length="2">
            <Value index="0">
              0
            </Value>
            <Value index="1">
              128.28654355
            </Value>
          </InformationKey>
        </DataArray>
      </Points>
      <Cells>
        <DataArray type="Int64" Name="connectivity" format="ascii" RangeMin="0" RangeMax="32">
          28 29 4 30 28 1
          1 28 4 4 5 1
          1 5 2 31 30 1
          31 1 2 31 2 0
          0 32 31 3 0 2
          25 24 18 18 24 17
          4 29 8 4 8 9
          9 8 14 4 9 5
          5 9 10 10 9 15
          15 9 14 10 15 16
          2 5 6 15 14 19
          16 15 20 6 5 10
          15 19 20 6 10 12
          20 19 22 12 10 16
          6 12 7 20 22 26
          12 16 18 7 12 13
          13 12 18 7 13 11
          11 13 17 7 11 3
          17 13 18 7 3 6
          25 18 21 21 18 16
          25 21 26 26 21 20
          20 21 16 27 26 22
          24 23 17 2 6 3
        </DataArray>
        <DataArray type="Int64" Name="offsets" format="ascii" RangeMin="3" RangeMax="138">
          3 6 9 12 15 18
          21 24 27 30 33 36
          39 42 45 48 51 54
          57 60 63 66 69 72
          75 78 81 84 87 90
          93 96 99 102 105 108
          111 114 117 120 123 126
          129 132 135 138
        </DataArray>
        <DataArray type="UInt8" Name="types" format="ascii" RangeMin="5" RangeMax="5">
          5 5 5 5 5 5
          5 5 5 5 5 5
          5 5 5 5 5 5
          5 5 5 5 5 5
          5 5 5 5 5 5
          5 5 5 5 5 5
          5 5 5 5 5 5
          5 5 5 5
        </DataArray>
      </Cells>
    </Piece>
  </UnstructuredGrid>
</VTKFile>
