<?xml version="1.0"?>
<VTKFile type="UnstructuredGrid" version="0.1" byte_order="LittleEndian" header_type="UInt32" compressor="vtkZLibDataCompressor">
  <UnstructuredGrid>
    <Piece NumberOfPoints="88" NumberOfCells="239">
      <PointData>
        <DataArray type="Float64" Name="nsi_BC" NumberOfComponents="3" format="ascii" RangeMin="0" RangeMax="1">
          1 0 0 1 0 0
          1 0 0 1 0 0
          1 0 0 0 0 0
          1 0 0 0 0 0
          1 0 0 0 0 0
          1 0 0 0 0 0
          0 0 0 0 0 0
          1 0 0 0 0 0
          0 0 0 1 0 0
          1 0 0 1 0 0
          0 0 0 1 0 0
          1 0 0 0 0 0
          0 0 0 0 0 0
          1 0 0 1 0 0
          0 0 0 0 0 0
          0 0 0 0 0 0
          1 0 0 0 0 0
          0 0 0 0 0 0
          1 0 0 1 0 0
          0 0 0 1 0 0
          1 0 0 0 0 0
          0 0 0 0 0 0
          0 0 0 1 0 0
          0 0 0 0 0 0
          1 0 0 0 0 0
          0 0 0 0 0 0
          1 0 0 1 0 0
          0 0 0 0 0 0
          1 0 0 0 0 0
          0 0 0 1 0 0
          0 0 0 0 0 0
          1 0 0 0 0 0
          0 0 0 1 0 0
          0 0 0 0 0 0
          0 0 0 1 0 0
          1 0 0 0 0 0
          0 0 0 1 0 0
          0 0 0 1 0 0
          0 0 0 0 0 0
          1 0 0 1 0 0
          1 0 0 1 0 0
          0 0 0 0 0 0
          1 0 0 0 0 0
          1 0 0 0 0 0
          <InformationKey name="L2_NORM_RANGE" location="vtkDataArray" length="2">
            <Value index="0">
              0
            </Value>
            <Value index="1">
              1
            </Value>
          </InformationKey>
        </DataArray>
        <DataArray type="Float64" Name="nsi_FIXNO" NumberOfComponents="3" format="ascii" RangeMin="1.7320508075688772" RangeMax="1.7320508075688772">
          1 1 1 1 1 1
          1 1 1 1 1 1
          1 1 1 1 1 1
          1 1 1 1 1 1
          1 1 1 -1 -1 -1
          1 1 1 1 1 1
          1 1 1 1 1 1
          1 1 1 -1 -1 -1
          -1 -1 -1 1 1 1
          1 1 1 1 1 1
          1 1 1 1 1 1
          1 1 1 1 1 1
          1 1 1 -1 -1 -1
          1 1 1 1 1 1
          1 1 1 -1 -1 -1
          1 1 1 1 1 1
          1 1 1 1 1 1
          -1 -1 -1 1 1 1
          1 1 1 1 1 1
          1 1 1 1 1 1
          1 1 1 1 1 1
          1 1 1 1 1 1
          1 1 1 1 1 1
          1 1 1 1 1 1
          1 1 1 1 1 1
          1 1 1 1 1 1
          1 1 1 1 1 1
          1 1 1 1 1 1
          1 1 1 1 1 1
          1 1 1 1 1 1
          1 1 1 1 1 1
          1 1 1 1 1 1
          1 1 1 1 1 1
          1 1 1 1 1 1
          1 1 1 1 1 1
          1 1 1 -1 -1 -1
          1 1 1 1 1 1
          1 1 1 1 1 1
          1 1 1 1 1 1
          1 1 1 1 1 1
          1 1 1 1 1 1
          1 1 1 1 1 1
          1 1 1 1 1 1
          1 1 1 1 1 1
          <InformationKey name="L2_NORM_RANGE" location="vtkDataArray" length="2">
            <Value index="0">
              1.7320508076
            </Value>
            <Value index="1">
              1.7320508076
            </Value>
          </InformationKey>
        </DataArray>
        <DataArray type="Float64" Name="tem_BC" format="ascii" RangeMin="0" RangeMax="12">
          0 0 0 0 0 12
          0 12 0 0 0 12
          12 12 0 0 0 0
          0 0 12 0 0 12
          12 0 0 0 12 0
          12 12 0 12 0 12
          0 0 12 0 0 12
          12 12 12 0 12 12
          0 12 12 12 0 0
          12 12 0 12 12 0
          12 12 0 12 12 0
          12 12 12 0 0 0
          12 0 12 7.64356 12 12
          0 7.64356 8.129456 8.136573 12 12
          7.64356 12 8.129456 12
        </DataArray>
        <DataArray type="Float64" Name="tem_FIXNO" format="ascii" RangeMin="-1" RangeMax="1">
          -1 -1 -1 -1 -1 1
          -1 1 -1 -1 -1 1
          1 1 -1 -1 -1 -1
          -1 -1 1 -1 -1 1
          1 -1 -1 -1 1 -1
          1 1 -1 1 -1 1
          -1 -1 1 -1 -1 1
          1 1 1 -1 1 1
          -1 1 1 1 -1 -1
          1 1 -1 1 1 -1
          1 1 -1 1 1 -1
          1 1 1 -1 -1 -1
          1 -1 1 1 1 1
          -1 1 1 1 1 1
          1 1 1 1
        </DataArray>
        <DataArray type="Float64" Name="Velocity" NumberOfComponents="3" format="ascii" RangeMin="0" RangeMax="1.0000000000000002">
          1 0 0 1 0 0
          1 0 0 1 0 0
          1 0 0 0 0 0
          1 0 0 0 0 0
          1 0 0 0.7581971273167014 0.10906281064051446 0.07081948174770188
          1 0 0 0 0 0
          0 0 0 0 0 0
          1 0 0 0.7491276000196548 0.0366268369731109 -0.0032282988686012787
          0.7210248213633654 0.10426400935101507 -0.012729136788202422 1 0 0
          1 0 0 1 0 0
          0 0 0 1 0 0
          1 0 0 0 0 0
          0 0 0 0.5730364127148049 0.06043279911416616 -0.07480203733444607
          1 0 0 1.0000000000000002 0 0
          0 0 0 0.5353565739403683 0.10960665992372064 -0.036634912110262645
          0 0 0 0 0 0
          1 0 0 0 0 0
          0.6971557763378375 -0.06822546170418789 0.06333614182150925 0 0 0
          1 0 0 1 0 0
          0 0 0 1 0 0
          1 0 0 0 0 0
          0 0 0 0 0 0
          0 0 0 1 0 0
          0 0 0 0 0 0
          1 0 0 0 0 0
          0 0 0 0 0 0
          1.0000000000000002 0 0 1 0 0
          0 0 0 0 0 0
          1 0 0 0 0 0
          0 0 0 1 0 0
          0 0 0 0 0 0
          1 0 0 0 0 0
          0 0 0 1 0 0
          0 0 0 0 0 0
          0 0 0 1 0 0
          1 0 0 0.7739095216130152 0.015342949216944367 -0.12764537164306444
          0 0 0 1 0 0
          0 0 0 1 0 0
          0 0 0 0 0 0
          1 0 0 1 0 0
          1 0 0 1 0 0
          0 0 0 0 0 0
          1 0 0 0 0 0
          1 0 0 0 0 0
          <InformationKey name="L2_NORM_RANGE" location="vtkDataArray" length="2">
            <Value index="0">
              0
            </Value>
            <Value index="1">
              1
            </Value>
          </InformationKey>
        </DataArray>
        <DataArray type="Float64" Name="Pressure" format="ascii" RangeMin="0" RangeMax="10.01336986738762">
          0 7.816747913717802 7.537709431672892 8.19781182588134 8.359376290779945 8.273154190107224
          8.695135545492331 8.608226148297058 8.934804569094384 8.893214326245879 9.10314956736863 8.741802929724006
          8.860262154440075 8.987071699485647 8.695682048658679 9.249762621111763 8.980948853042666 9.152772966217558
          9.419757307262246 8.785977163245198 8.949273069704487 8.896382515041541 9.518518635463158 9.306151483374126
          9.490122701576244 9.554476679740144 8.966605935435723 9.583930764561902 8.90700069883271 9.528526786516313
          9.345879622957446 8.980595692174758 9.277367559963901 9.79999098703946 9.624627031174102 9.80004473596009
          9.73492330610971 9.249593632472111 9.233580953636839 9.786316299859752 9.796232098743104 9.79995973930033
          9.800034972760162 9.816733745849257 9.800101921361888 9.638157114407166 9.800027044996616 9.518125838351384
          9.8237912179063 9.800102464341988 9.80009746461343 9.800125257362197 9.769240115195009 9.78996698353421
          9.929314883495946 9.800201164917981 9.86724469131733 9.800122208814981 9.80006997557914 9.77017509475354
          9.800194650637824 9.800245810882839 9.927034060605617 9.800300100785696 9.800269144811413 9.792507715944655
          9.800213895682704 9.800122918689981 9.800273510808374 9.814105979060926 9.95250969404347 9.902232915728131
          9.800258242357565 10.01336986738762 9.802554731851028 9.848151377809984 9.822906072771945 9.80027427347489
          9.800933181198797 9.798002067921276 9.84627818282485 9.796550033681227 9.818108369359898 9.785410265710015
          9.905377624817634 9.80023047936618 9.86059590911567 9.830068782962691
        </DataArray>
        <DataArray type="Float64" Name="Temperature" format="ascii" RangeMin="-1.9809700804222337" RangeMax="12.000000000000004">
          0.7137353244629517 -1.4152171912735256 0.056501343811244324 -0.7962465323693296 -0.1339929981909743 12
          -0.40193574330994486 12 -0.4513172279190601 0.6005401415728998 0.004938672146780013 12
          12.000000000000002 11.999999999999998 0.527828118421644 0.4569531899518349 0.48217741267760056 -0.30009375605143473
          0.19446561232290188 -1.0367147267120436 12 -0.11932349678284246 -0.6897653957694163 12
          12.000000000000002 3.2427042984901084 -0.36086077114179665 0.38510207240495375 12 2.281288289406329
          11.999999999999998 11.999999999999998 -0.5187420584974295 12 2.0292471670159693 12
          1.658571400643014 -0.027345812984171002 12 0.14255573636675975 -1.9809700804222337 12
          12.000000000000002 12.000000000000002 12.000000000000004 -0.46076093641930854 12.000000000000002 11.999999999999998
          0.6554792184820143 11.999999999999998 12.000000000000002 12 1.6341113885398078 -0.4194616986518343
          12.000000000000002 12.000000000000002 3.871638396428135 12.000000000000002 12 0.24772808417769923
          12 12 3.328998540553405 12.000000000000004 12 4.256096576482369
          11.999999999999998 12 12.000000000000002 0.8993531642284635 3.151552628339139 5.1461631602750835
          12.000000000000004 1.2239300647366342 12 7.643560000000001 12.000000000000002 12
          4.651024011608551 7.643560000000002 8.129456000000001 8.136573000000002 12.000000000000002 12
          7.64356 11.999999999999998 8.129455999999998 12
        </DataArray>
        <DataArray type="Float64" Name="CN2" format="ascii" RangeMin="0" RangeMax="4.1958927444741486e-11">
          0 2.4465692244443153e-11 2.708212448817939e-13 1.0875983993737667e-11 1.9244315009383862e-11 3.552048710014555e-11
          2.902288534206712e-13 3.6373904854143907e-11 2.750129562203842e-12 1.7974025603836193e-11 2.3762198912139667e-11 2.8705823769441286e-11
          3.778904143899485e-11 3.955115708253098e-11 0 1.2938044690013875e-11 1.6286713601848728e-11 2.4227855885416812e-12
          1.3754462403117775e-11 2.146582717082342e-11 3.71372784447211e-11 2.6635131367698483e-13 1.1192842906634692e-11 3.311734690254342e-11
          3.1961495210839345e-11 2.6014462928312922e-11 2.8753687309980593e-11 0 2.9884358436407036e-11 2.5209694363900427e-11
          3.8026186627214125e-11 3.457357680230817e-11 1.5925863898344466e-12 1.9900032126083386e-11 1.707148693335318e-11 2.727762319020198e-11
          3.466574214864225e-11 1.6015051274517e-11 4.110179987122721e-11 1.7963057080926662e-11 1.4228708757835934e-11 2.5535588635270926e-11
          2.228853878360955e-11 2.6085173814086026e-11 2.3156979621977057e-11 1.7126443855167647e-11 0 3.4949147307439897e-11
          1.570517203247021e-11 0 2.6753765726076446e-11 2.5144155849712703e-11 4.0550061706120224e-11 4.362553959660133e-12
          2.0744156266158877e-11 2.0672026548708797e-11 0 0 2.78015595454066e-11 2.52596289365401e-11
          2.7081831427290694e-11 2.2183178620500296e-11 1.142366827596295e-11 6.8433806660205795e-12 2.7674155501542292e-11 1.2797046846758394e-11
          2.8490909684413392e-11 2.950493734273697e-11 0 4.1958927444741486e-11 1.0995387918823885e-11 1.6283411130644818e-11
          9.028705885793686e-12 1.6712173249375597e-11 1.682846828674096e-11 0 3.2199228331642075e-11 1.0211315776386417e-11
          2.397546432075811e-11 5.7492258850140466e-12 4.266474471263243e-12 8.515329756677277e-12 1.108865829334304e-11 1.1324811545253343e-11
          1.0073247474865167e-11 6.7045909574155425e-12 8.074108493368609e-12 1.90453568454901e-12
        </DataArray>
        <DataArray type="Float64" Name="CT2" format="ascii" RangeMin="0" RangeMax="43.53313584005083">
          0 21.37058208584394 0.24172812565956306 9.586865214482073 17.12884575365217 37.62238868062042
          0.2573105404059141 38.52604871271111 2.4364276323468785 16.170887569917078 21.19286122382426 30.404187151886156
          40.02471329892889 41.890972835014495 0 11.615626332470706 14.627493890650888 2.151178880058032
          12.30123600522581 18.854547100102753 39.334320743690775 0.23712053094379365 9.881344597338467 35.07631961571892
          33.85197190264555 24.321143194085707 25.507610239435447 0 31.652344568700364 23.24254708153431
          40.27549731338112 36.618927511588666 1.4095186146888747 21.0769599318555 15.681813085441432 28.890876494847042
          31.672537023413494 14.276596910734293 43.53313584005083 16.052854299686594 12.32498953986081 27.045814570963895
          23.60672764205117 27.627894052007292 24.526529779451085 15.17054866082508 0 37.01631861471696
          14.14072632806464 0 28.336037020510716 26.631231577112246 37.03556230606149 3.8666660431840287
          21.97095044446337 21.89461156070084 0 0 29.445799481296937 22.60827971395861
          28.68350512868276 23.495136168649765 10.693349424798512 7.2481118769384105 29.310860390261393 12.140442543317066
          30.17591908188564 31.249918421434774 0 37.9140403743065 10.266046339798832 15.647107392027543
          9.56268160617152 15.172709379875393 17.82373673378021 0 34.10353963659427 10.81523340703778
          22.87510389913031 5.725568960008388 4.2784010422437415 8.540006408039053 11.744459525904967 11.99458710730722
          10.03177651679658 7.1011138774448845 8.09667666710683 2.0171725308041144
        </DataArray>
        <DataArray type="Float64" Name="CN2_MEAN" format="ascii" RangeMin="0" RangeMax="4.576425043179703e-11">
          0 2.402464035299069e-11 1.5744641248026762e-13 1.074215897516745e-11 1.953377093303665e-11 3.389969493975324e-11
          1.7104692557749438e-13 3.5834389352279124e-11 1.847687428033067e-12 1.8704112353769017e-11 2.397544372111039e-11 2.929355485163953e-11
          3.9525317203592177e-11 4.0662843793126974e-11 0 1.5512930208197255e-11 1.7191344253127912e-11 1.5885935313264338e-12
          1.4234448486728898e-11 2.1546142175243872e-11 3.995932663638205e-11 1.6105093300267226e-13 9.716430042589663e-12 3.841662448460624e-11
          3.464769189310282e-11 2.980381829660255e-11 2.8756035686961975e-11 0 2.8859058002792106e-11 3.0446622924918274e-11
          4.3565222042560917e-11 3.375549610885906e-11 1.0413096335710463e-12 2.659715227768556e-11 1.8537917240449773e-11 3.081539556256503e-11
          3.7649475026159995e-11 1.5868227046387636e-11 4.191692224531892e-11 1.902327314594189e-11 1.5266443362815082e-11 3.449708258300083e-11
          3.0410770662651823e-11 3.0084682218187785e-11 2.651490155959648e-11 1.6692955683388384e-11 0 3.9622428822578393e-11
          1.669547275558143e-11 0 2.9240968291731716e-11 2.776053402449506e-11 4.552472181305095e-11 2.8537205041971015e-12
          2.51557118941621e-11 2.3018876922125107e-11 0 0 3.096973122883554e-11 2.6079445623591678e-11
          3.03357071460503e-11 2.5069640183208262e-11 1.4179307839278213e-11 9.05704297582816e-12 3.2193680879414864e-11 1.618325514100916e-11
          3.131656058521e-11 3.154636065510071e-11 0 4.576425043179703e-11 1.0227775954450531e-11 2.0225679790732816e-11
          1.135702351720362e-11 1.6919436518189895e-11 2.1182686533707792e-11 0 3.5989528873487394e-11 1.2903664182057384e-11
          2.8313128098894883e-11 6.788398150984958e-12 5.625628338389041e-12 1.2356059541796948e-11 1.463116672029741e-11 1.4683416850652566e-11
          1.1115216450342457e-11 8.393614429734605e-12 1.0523463016472357e-11 1.9045601675463743e-12
        </DataArray>
        <DataArray type="Float64" Name="CN2_FROM_MEAN" format="ascii" RangeMin="0" RangeMax="4.747224736361629e-11">
          0 2.6974308261396328e-11 2.7440650284822704e-13 1.4209755905289797e-11 2.3938575704552352e-11 3.357932830282154e-11
          1.2545796517002637e-13 3.541484485036879e-11 1.9813315441990863e-12 2.1477972925357447e-11 2.852774887145577e-11 2.8363057462334832e-11
          3.7734289577245815e-11 3.928007252880302e-11 0 1.6997643258711295e-11 1.985195133031299e-11 1.4311445749554269e-12
          1.7036759311146252e-11 2.4373006138032765e-11 3.727142784479503e-11 1.8480421908142144e-13 1.270469970722998e-11 3.4221129279368237e-11
          3.274028890076223e-11 2.9485880456083744e-11 3.272181981296898e-11 0 2.88590568641269e-11 2.5436174661902022e-11
          3.811325615484654e-11 3.376453079074253e-11 9.96976851937479e-13 2.703520774169725e-11 1.936540326197224e-11 3.1039508569793895e-11
          3.929197017798014e-11 2.0501974732371445e-11 4.019308704745666e-11 2.1178958608523794e-11 1.712569921179724e-11 3.2154168060255043e-11
          2.8390409893051194e-11 2.841002225168529e-11 2.6997933794226838e-11 1.93010394499634e-11 0 3.433439382385355e-11
          1.7922508283065695e-11 0 3.3103636108746404e-11 2.6880316477430626e-11 4.747224736361629e-11 2.582448490894895e-12
          2.4056095100877325e-11 2.5863083638542065e-11 0 0 2.8750970751565627e-11 2.7273875616140557e-11
          4.0224052357372195e-11 2.6313526008915948e-11 1.7395348653700064e-11 8.806942640595941e-12 3.531079734149292e-11 1.7363150635782158e-11
          3.4894330595266654e-11 3.5527834815752475e-11 0 4.5650967195771596e-11 1.1627800050453012e-11 2.0086430976523002e-11
          1.2695100298490202e-11 1.7944372648281908e-11 2.10475208918375e-11 0 3.6113930547952496e-11 1.3774327652668066e-11
          2.7001721787044674e-11 9.670182221218555e-12 9.540415912995114e-12 1.2853507006251257e-11 1.6707572108634887e-11 1.461614007128439e-11
          1.0645826476037427e-11 8.946386519140937e-12 1.001382658302768e-11 1.8815612502098557e-12
        </DataArray>
      </PointData>
      <CellData>
        <DataArray type="UInt8" Name="vtkGhostType" format="ascii" RangeMin="0" RangeMax="0">
          0 0 0 0 0 0
          0 0 0 0 0 0
          0 0 0 0 0 0
          0 0 0 0 0 0
          0 0 0 0 0 0
          0 0 0 0 0 0
          0 0 0 0 0 0
          0 0 0 0 0 0
          0 0 0 0 0 0
          0 0 0 0 0 0
          0 0 0 0 0 0
          0 0 0 0 0 0
          0 0 0 0 0 0
          0 0 0 0 0 0
          0 0 0 0 0 0
          0 0 0 0 0 0
          0 0 0 0 0 0
          0 0 0 0 0 0
          0 0 0 0 0 0
          0 0 0 0 0 0
          0 0 0 0 0 0
          0 0 0 0 0 0
          0 0 0 0 0 0
          0 0 0 0 0 0
          0 0 0 0 0 0
          0 0 0 0 0 0
          0 0 0 0 0 0
          0 0 0 0 0 0
          0 0 0 0 0 0
          0 0 0 0 0 0
          0 0 0 0 0 0
          0 0 0 0 0 0
          0 0 0 0 0 0
          0 0 0 0 0 0
          0 0 0 0 0 0
          0 0 0 0 0 0
          0 0 0 0 0 0
          0 0 0 0 0 0
          0 0 0 0 0 0
          0 0 0 0 0
        </DataArray>
      </CellData>
      <Points>
        <DataArray type="Float32" Name="Points" NumberOfComponents="3" format="ascii" RangeMin="0" RangeMax="24.49489742783178">
          20 10 10 20 6.5 10
          16 10 10 20 10 5
          16.37211036682129 5.206768989562988 10 20 3 10
          14.333330154418945 10 5.767949104309082 17.5 2.625 10
          12 10 10 14.425399780273438 5.033590793609619 7.012404918670654
          13.360549926757812 4.658843994140625 10 20 3 5
          16.25 2.4375 7.37460994720459 15 2.25 10
          20 10 0 12.214110374450684 6.010365009307861 4.925261974334717
          14.570380210876465 5.105739116668701 2.9404709339141846 12 10 3.0717968940734863
          10 10 6.535898208618164 20 6.5 0
          16.344310760498047 2.451646089553833 3.285098075866699 16 10 0
          10.119270324707031 5.519060134887695 10 13.631239891052246 2.0446860790252686 6.215021133422852
          12.5 1.875 10 10.550640106201172 4.647356033325195 7.100153923034668
          16.37211036682129 5.206768989562988 0 8 10 10
          20 3 0 11.739009857177734 4.367464065551758 2.512845993041992
          13.663330078125 2.049499034881592 2.55780291557312 17.5 2.625 0
          12 10 0 10.661359786987305 1.5992039442062378 6.873061180114746
          9.59029769897461 6.954894065856934 2.912667989730835 10 1.5 10
          8.36054801940918 3.908843994140625 10 13.360549926757812 4.658843994140625 0
          15 2.25 0 6.61377477645874 6.690732002258301 10
          8 10 3.0717968940734863 10.999679565429688 1.6499520540237427 3.4145760536193848
          9 3 5 8 4.732050895690918 5
          8 3 6.732050895690918 10.596699714660645 5.428274154663086 0
          9 1.350000023841858 5 12.5 1.875 0
          5.6666669845581055 10 5.767949104309082 7.9958391189575195 1.1993759870529175 6.734446048736572
          7.5 1.125 10 8 3 3.267949104309082
          5.86054801940918 3.533843994140625 10 8 10 0
          6 4.732050895690918 5 6 3 6.732050895690918
          4 10 10 7.995840072631836 1.1993759870529175 3.2655539512634277
          10 1.5 0 7.719629764556885 4.535800933837891 0
          6.004158973693848 0.9006239175796509 6.734445095062256 6 3 3.267949104309082
          3.305811882019043 6.3972368240356445 10 5 3 5
          5 0.75 10 3.3605480194091797 3.158843994140625 10
          6.004159927368164 0.9006239771842957 3.2655539512634277 7.5 1.125 0
          5 0.75 5 5.535371780395508 3.26835298538208 0
          4 10 0 3.0012240409851074 5.308693885803223 3.156306028366089
          3.720721960067749 0.5581083297729492 6.921747207641602 4.087935924530029 6.566143035888672 0
          2.5 0.375 10 0 10 10
          5 0.75 0 3.3971519470214844 0.5095726847648621 3.1724090576171875
          3.3605480194091797 3.158843994140625 0 0 10 5
          0 5 10 0 4.949490070343018 5.050509929656982
          2.5 0.375 0 0 0 10
          0 10 0 0 0 5
          0 5 0 0 0 0
          <InformationKey name="L2_NORM_RANGE" location="vtkDataArray" length="2">
            <Value index="0">
              0
            </Value>
            <Value index="1">
              24.494897428
            </Value>
          </InformationKey>
        </DataArray>
      </Points>
      <Cells>
        <DataArray type="Int64" Name="connectivity" format="ascii" RangeMin="0" RangeMax="87">
          16 20 19 11 53 40
          70 73 81 63 77 71
          69 59 61 51 62 55
          52 65 66 77 69 76
          55 68 72 63 79 62
          75 80 52 55 64 65
          10 8 2 9 32 37
          21 16 47 41 30 29
          15 9 23 16 54 48
          34 40 44 42 43 25
          43 39 44 25 41 15
          23 29 62 54 81 71
          77 69 78 61 32 17
          53 34 39 54 62 48
          59 73 54 34 19 3
          21 16 11 1 4 12
          79 56 75 62 45 17
          32 34 54 59 61 73
          23 33 24 25 18 22
          39 25 23 10 24 13
          24 10 23 25 39 48
          56 27 46 42 44 33
          4 11 12 9 64 60
          52 50 40 73 54 71
          23 15 41 25 44 35
          36 50 39 18 43 48
          10 9 23 25 43 54
          39 48 23 16 30 29
          85 81 65 72 60 50
          49 55 21 17 32 16
          49 35 44 50 81 62
          79 80 39 22 36 25
          26 38 20 16 81 85
          65 80 81 63 65 72
          8 9 22 25 20 38
          30 16 46 44 49 33
          20 16 19 26 70 40
          48 73 7 4 12 13
          61 59 69 73 45 51
          58 29 52 39 36 55
          69 73 78 71 36 35
          44 25 42 15 41 29
          19 21 3 14 77 63
          61 71 78 82 77 86
          40 73 53 34 18 48
          39 27 68 61 77 63
          17 40 53 34 23 13
          12 9 49 50 44 55
          17 37 32 16 48 54
          34 43 81 77 63 85
          18 8 22 25 44 35
          49 33 36 39 44 55
          61 54 43 59 86 73
          84 71 59 45 53 34
          11 9 3 16 10 13
          23 9 52 50 60 55
          11 1 3 9 77 72
          63 85 86 81 77 71
          6 17 21 16 4 1
          11 9 54 73 61 71
          39 62 56 48 43 15
          42 29 70 48 79 71
          67 59 69 51 4 2
          3 9 37 16 17 29
          43 34 18 25 43 18
          39 25 52 62 39 55
          86 84 79 71 15 34
          17 29 12 13 4 9
          32 17 45 37 3 1
          4 9 45 34 51 29
          79 62 81 71 69 78
          61 71 45 37 17 29
          48 73 40 71 57 58
          67 51 10 2 4 9
          6 8 18 15 31 26
          20 19 67 61 57 51
          54 73 40 34 62 48
          54 71 18 27 39 22
          11 20 12 9 41 58
          57 51 56 62 79 48
          46 41 57 51 41 42
          46 33 47 37 30 38
          46 42 41 51 3 2
          4 1 43 51 59 34
          23 20 30 16 77 86
          85 81 8 15 6 9
          0 2 3 1 24 22
          10 25 41 33 23 25
          87 85 77 86 69 61
          67 51 52 60 64 55
          59 51 45 34 41 51
          42 29 39 55 62 54
          12 20 23 9 15 34
          43 25 15 16 23 29
          22 9 10 25 44 39
          43 54 44 55 39 54
          23 9 15 25 84 70
          79 71 35 33 44 25
          44 33 42 25 61 73
          69 71 84 73 70 71
          17 15 18 34 36 22
          35 25 36 50 55 44
          79 81 86 71 2 8
          6 9 18 17 6 15
          27 22 18 8 4 13
          10 9 42 51 43 29
          22 8 10 9 31 11
          28 19 15 9 8 25
          43 59 54 34 78 73
          86 71 86 77 78 71
          41 15 42 25 18 40
          17 34 54 63 81 71
          70 73 48 71 3 2
          6 9 17 34 45 29
          74 65 64 72 64 55
          60 72 64 65 55 72
          57 61 67 66 69 76
          67 66 67 61 69 66
          21 26 19 16 77 86
          82 87 24 33 35 25
          20 26 31 38 35 22
          24 25 55 68 60 72
          17 16 15 29 76 82
          77 78 77 66 69 61
          77 72 68 63 61 78
          77 71 48 40 54 71
          30 16 37 29 58 51
          41 29 61 63 54 71
          67 58 59 51 59 58
          45 51 37 26 21 16
          23 9 20 16 50 36
          55 52 43 48 18 34
          85 65 80 83 42 15
          43 25 61 59 43 51
          30 38 37 16 45 58
          47 29 43 34 15 29
          62 54 55 63 81 54
          62 63 55 72 65 63
          31 11 19 20 42 33
          41 25 3 9 6 16
          55 65 62 63 62 65
          81 63 48 40 18 34
          74 85 65 72 79 48
          62 71 11 5 1 12
          53 73 59 34 44 39
          36 25 62 80 81 65
          30 41 23 29 53 45
          32 34 3 6 21 16
          12 7 1 4 85 74
          65 83 18 15 8 25
          18 34 15 25 68 61
          66 77 6 15 17 16
          63 72 81 85 47 58
          41 29 47 37 45 29
          20 9 11 16 5 7
          1 12 69 77 78 76
          30 37 47 29 37 38
          26 16 11 3 19 16
          51 34 43 29 6 9
          15 16
        </DataArray>
        <DataArray type="Int64" Name="offsets" format="ascii" RangeMin="4" RangeMax="956">
          4 8 12 16 20 24
          28 32 36 40 44 48
          52 56 60 64 68 72
          76 80 84 88 92 96
          100 104 108 112 116 120
          124 128 132 136 140 144
          148 152 156 160 164 168
          172 176 180 184 188 192
          196 200 204 208 212 216
          220 224 228 232 236 240
          244 248 252 256 260 264
          268 272 276 280 284 288
          292 296 300 304 308 312
          316 320 324 328 332 336
          340 344 348 352 356 360
          364 368 372 376 380 384
          388 392 396 400 404 408
          412 416 420 424 428 432
          436 440 444 448 452 456
          460 464 468 472 476 480
          484 488 492 496 500 504
          508 512 516 520 524 528
          532 536 540 544 548 552
          556 560 564 568 572 576
          580 584 588 592 596 600
          604 608 612 616 620 624
          628 632 636 640 644 648
          652 656 660 664 668 672
          676 680 684 688 692 696
          700 704 708 712 716 720
          724 728 732 736 740 744
          748 752 756 760 764 768
          772 776 780 784 788 792
          796 800 804 808 812 816
          820 824 828 832 836 840
          844 848 852 856 860 864
          868 872 876 880 884 888
          892 896 900 904 908 912
          916 920 924 928 932 936
          940 944 948 952 956
        </DataArray>
        <DataArray type="UInt8" Name="types" format="ascii" RangeMin="10" RangeMax="10">
          10 10 10 10 10 10
          10 10 10 10 10 10
          10 10 10 10 10 10
          10 10 10 10 10 10
          10 10 10 10 10 10
          10 10 10 10 10 10
          10 10 10 10 10 10
          10 10 10 10 10 10
          10 10 10 10 10 10
          10 10 10 10 10 10
          10 10 10 10 10 10
          10 10 10 10 10 10
          10 10 10 10 10 10
          10 10 10 10 10 10
          10 10 10 10 10 10
          10 10 10 10 10 10
          10 10 10 10 10 10
          10 10 10 10 10 10
          10 10 10 10 10 10
          10 10 10 10 10 10
          10 10 10 10 10 10
          10 10 10 10 10 10
          10 10 10 10 10 10
          10 10 10 10 10 10
          10 10 10 10 10 10
          10 10 10 10 10 10
          10 10 10 10 10 10
          10 10 10 10 10 10
          10 10 10 10 10 10
          10 10 10 10 10 10
          10 10 10 10 10 10
          10 10 10 10 10 10
          10 10 10 10 10 10
          10 10 10 10 10 10
          10 10 10 10 10 10
          10 10 10 10 10 10
          10 10 10 10 10 10
          10 10 10 10 10 10
          10 10 10 10 10 10
          10 10 10 10 10
        </DataArray>
      </Cells>
    </Piece>
  </UnstructuredGrid>
</VTKFile>
