<?xml version="1.0"?>
<VTKFile type="UnstructuredGrid" version="0.1" byte_order="LittleEndian" header_type="UInt32" compressor="vtkZLibDataCompressor">
  <UnstructuredGrid>
    <Piece NumberOfPoints="35" NumberOfCells="51">
      <PointData>
        <DataArray type="Float64" Name="nsi_SBC" NumberOfComponents="3" format="ascii" RangeMin="0" RangeMax="0">
          0 0 0 0 0 0
          0 0 0 0 0 0
          0 0 0 0 0 0
          0 0 0 0 0 0
          0 0 0 0 0 0
          0 0 0 0 0 0
          0 0 0 0 0 0
          0 0 0 0 0 0
          0 0 0 0 0 0
          0 0 0 0 0 0
          0 0 0 0 0 0
          0 0 0 0 0 0
          0 0 0 0 0 0
          0 0 0 0 0 0
          0 0 0 0 0 0
          0 0 0 0 0 0
          0 0 0 0 0 0
          0 0 0
          <InformationKey name="L2_NORM_RANGE" location="vtkDataArray" length="2">
            <Value index="0">
              0
            </Value>
            <Value index="1">
              0
            </Value>
          </InformationKey>
        </DataArray>
        <DataArray type="Float64" Name="nsi_SFIXNO" NumberOfComponents="3" format="ascii" RangeMin="0" RangeMax="1.7320508075688772">
          0 0 0 0 0 0
          0 0 0 -1 -1 -1
          -1 -1 -1 0 0 0
          0 0 0 -1 -1 -1
          -1 -1 -1 -1 -1 -1
          -1 -1 -1 -1 -1 -1
          0 0 0 0 0 0
          -1 -1 -1 -1 -1 -1
          -1 -1 -1 -1 -1 -1
          -1 -1 -1 -1 -1 -1
          0 0 0 0 0 0
          -1 -1 -1 0 0 0
          0 0 0 0 0 0
          -1 -1 -1 -1 -1 -1
          0 0 0 -1 -1 -1
          0 0 0 -1 -1 -1
          0 0 0 0 0 0
          0 0 0
          <InformationKey name="L2_NORM_RANGE" location="vtkDataArray" length="2">
            <Value index="0">
              0
            </Value>
            <Value index="1">
              1.7320508076
            </Value>
          </InformationKey>
        </DataArray>
        <DataArray type="Float64" Name="nsi_UBC" NumberOfComponents="3" format="ascii" RangeMin="0" RangeMax="0">
          0 0 0 0 0 0
          0 0 0 0 0 0
          0 0 0 0 0 0
          0 0 0 0 0 0
          0 0 0 0 0 0
          0 0 0 0 0 0
          0 0 0 0 0 0
          0 0 0 0 0 0
          0 0 0 0 0 0
          0 0 0 0 0 0
          0 0 0 0 0 0
          0 0 0 0 0 0
          0 0 0 0 0 0
          0 0 0 0 0 0
          0 0 0 0 0 0
          0 0 0 0 0 0
          0 0 0 0 0 0
          0 0 0
          <InformationKey name="L2_NORM_RANGE" location="vtkDataArray" length="2">
            <Value index="0">
              0
            </Value>
            <Value index="1">
              0
            </Value>
          </InformationKey>
        </DataArray>
        <DataArray type="Float64" Name="nsi_UFIXNO" NumberOfComponents="3" format="ascii" RangeMin="1" RangeMax="1.4142135623730951">
          1 1 0 1 0 0
          0 1 0 -1 -1 0
          -1 -1 0 1 0 0
          0 1 0 -1 -1 0
          -1 -1 0 -1 -1 0
          -1 -1 0 -1 -1 0
          1 0 0 0 1 0
          -1 -1 0 -1 -1 0
          -1 -1 0 -1 -1 0
          -1 -1 0 -1 -1 0
          1 1 0 1 1 0
          -1 -1 0 0 1 0
          1 0 0 0 1 0
          -1 -1 0 -1 -1 0
          1 0 0 -1 -1 0
          0 1 0 -1 -1 0
          1 0 0 0 1 0
          1 1 0
          <InformationKey name="L2_NORM_RANGE" location="vtkDataArray" length="2">
            <Value index="0">
              1
            </Value>
            <Value index="1">
              1.4142135624
            </Value>
          </InformationKey>
        </DataArray>
        <DataArray type="Float64" Name="lev_BC" format="ascii" RangeMin="-1" RangeMax="1">
          -1 0 -1 -1 0 1
          -1 -1 -1 0 -1 -1
          1 -1 -1 -1 1 -1
          0 -1 1 -1 -1 1
          -1 1 -1 0 -1 -1
          1 -1 -1 0 -1
        </DataArray>
        <DataArray type="Float64" Name="lev_FIXNO" format="ascii" RangeMin="0" RangeMax="0">
          0 0 0 0 0 0
          0 0 0 0 0 0
          0 0 0 0 0 0
          0 0 0 0 0 0
          0 0 0 0 0 0
          0 0 0 0 0
        </DataArray>
        <DataArray type="Float64" Name="Velocity" NumberOfComponents="3" format="ascii" RangeMin="0" RangeMax="2.308668242717154">
          0 0 0 0 -2.308668242717154 0
          -1.905568154862006 0 0 -1.3921488502585588 0.06145807826150611 0
          0.3684317799411708 -1.3638326806250674 0 0 -1.6592422218986869 0
          -1.6573538532706589 0 0 -0.3229934059091815 0.2889521769228357 0
          -1.195720638153448 0.29097514515304446 0 0.7118825199600158 -0.7178163746463868 0
          -0.3483739443664442 0.2888034949284351 0 0.7364562364351812 -0.21273574125675354 0
          0 -0.7818566873416652 0 -1.061158850917892 0 0
          -0.8173590230502429 0.6235743339423321 0 0.8474187704660927 0.08705971032246514 0
          0.6031374661908473 -0.38421087033034723 0 -0.4134918472625704 0.9474152628444055 0
          1.0075580200397942 -0.2652047986998003 0 0.214651574020368 1.2495932705966837 0
          0 0 0 0 0 0
          1.0917802644187156 0.09785488784075061 0 0.4585988701634671 0 0
          0 1.236864583845115 0 0.8868820621411899 0 0
          1.178301265682657 1.2897870718732625 0 1.307324497152261 0.03602600997740449 0
          0 2.1532139075463483 0 1.3155462030606762 0.31911363431869155 0
          1.0265772653705654 0 0 1.7366105553993063 0.2404342235997997 0
          0 2.2321737549787786 0 0.8890522495026025 0 0
          0 0 0
          <InformationKey name="L2_NORM_RANGE" location="vtkDataArray" length="2">
            <Value index="0">
              0
            </Value>
            <Value index="1">
              2.3086682427
            </Value>
          </InformationKey>
        </DataArray>
        <DataArray type="Float64" Name="Pressure" format="ascii" RangeMin="-302.64635992694366" RangeMax="450.2757263521664">
          -274.4751596067276 -302.64635992694366 -217.0091973524694 -188.69816068124805 -147.30151238564173 -40.34060005414928
          -167.65301828484127 -145.97503405752207 -155.65735931737134 -18.655374065425868 -144.90207219180294 -125.7832290773627
          201.8395232527872 -138.00696364623744 -127.80512482714963 -158.65888149219947 222.323031695903 -111.90075782127997
          74.23412497373965 -77.59097240237114 450.2757263521664 -125.0003692998632 -11.766947786449501 433.4826665943136
          -108.87284039268619 368.2144871193929 -23.89247367166965 180.04533607233614 -50.881934474283895 92.6149129586576
          327.3932913780626 240.51969679229236 175.15951818653028 353.64276226603886 428.4275713654356
        </DataArray>
        <DataArray type="Float64" Name="Sigma" NumberOfComponents="6" format="ascii" RangeMin="3.1950536961186446" RangeMax="223.79077633227257">
          -128.16541713233997 183.40520647502473 0 -4.297401604236378 0 0
          3.211634971377127 -1.3343066064231275 0 0.8192943863758779 0 0
          -51.771705484618096 54.28175596858347 0 7.775508822096878 0 0
          -26.24873550786399 13.959224724131934 0 -0.844319376938744 0 0
          3.2119893958414543 -1.3434448293505916 0 0.8305526545812727 0 0
          3.214045995725641 -1.3462576872471352 0 0.8317299094903712 0 0
          37.74911031135652 -24.976869385445426 0 -15.293649968263853 0 0
          -5.057800761504804 43.18340553328208 0 -22.819845800560543 0 0
          13.638518537537568 -19.924081551193545 0 -14.496076916047528 0 0
          3.2082188139596717 -1.3422764085007872 0 0.8282435779000048 0 0
          -11.493950586146799 27.251632067828943 0 -33.366561178086414 0 0
          2.9916574670620304 -0.30880204978060255 0 1.0784224658753683 0 0
          3.2123260134865403 -1.3542035271493909 0 0.8297800062877373 0 0
          27.35006555686418 -24.161651022211174 0 -2.0052363099994563 0 0
          24.294882998535346 -26.486923037791836 0 3.9703834069403388 0 0
          1.3532021141058945 4.019501269290812 0 1.206496547978999 0 0
          3.2103840512979467 -1.338217290743216 0 0.821069194338092 0 0
          1.6797683995956385 -8.791118442091939 0 4.594518755386902 0 0
          2.3945516948161805 2.3852268794237013 0 1.301504960017764 0 0
          -42.90163329957016 41.25043757295852 0 8.4712058962889 0 0
          3.304190234792606 -1.8233908777737147 0 0.24546591001638973 0 0
          47.697574947366846 -47.43318431458166 0 0.4149060325446464 0 0
          1.3394329982479185 4.171767510248346 0 0.9201206645471263 0 0
          3.248048575858398 -1.5094292291452698 0 0.5929057244333829 0 0
          49.12038633213449 -44.53073046547091 0 8.417969544123478 0 0
          3.074113742624525 1.2632980997926968 0 1.0131971812917793 0 0
          -3.0910284445523297 11.75954780537722 0 1.7920506197449404 0 0
          1.5399489033880314 5.607413498710876 0 1.6835490468637357 0 0
          -45.39152846316027 -22.74365741874884 0 25.050944509565866 0 0
          -0.309287088606952 8.800446753249517 0 0.9314063718934251 0 0
          1.6773433055688798 5.385473193881404 0 1.8396036328127958 0 0
          0.8359427674323395 9.563316727139824 0 2.4653695447363244 0 0
          -13.651686142839988 18.494297723643985 0 3.329036398100289 0 0
          1.1159498396097658 9.491995449226819 0 3.053914826966932 0 0
          2.6420737667822713 12.0771730277447 0 4.887902407678244 0 0
          <InformationKey name="L2_NORM_RANGE" location="vtkDataArray" length="2">
            <Value index="0">
              3.1950536961
            </Value>
            <Value index="1">
              223.79077633
            </Value>
          </InformationKey>
        </DataArray>
        <DataArray type="Float64" Name="LEVEL" format="ascii" RangeMin="-0.9141288119941422" RangeMax="0.6566399537720786">
          -0.3391744853182955 -0.32555942393059345 -0.6225061429184968 -0.4985749400293228 -0.30736629281767003 -0.15211991876467018
          -0.784225132965882 -0.33075418084246044 -0.5693677873526728 -0.1292915502621173 -0.3587876405148801 -0.183895191936636
          0.21083477970518377 -0.8686355958228249 -0.4813756680798468 -0.1917620606960665 0.2221023957126195 -0.2240237036893331
          0.04779452113385604 -0.09736705802940665 0.6566399537720786 -0.9141288119941422 -0.018628455807931113 0.49847307385022793
          -0.3092642661174846 0.3623161517481314 -0.0029206697289059086 0.15837647461968446 -0.04664174408703112 0.06178798554535046
          0.2651862749144013 0.13315891540033825 0.043643145260696195 0.16089350781750328 0.06420311287708416
        </DataArray>
      </PointData>
      <CellData>
        <DataArray type="UInt8" Name="vtkGhostType" format="ascii" RangeMin="0" RangeMax="0">
          0 0 0 0 0 0
          0 0 0 0 0 0
          0 0 0 0 0 0
          0 0 0 0 0 0
          0 0 0 0 0 0
          0 0 0 0 0 0
          0 0 0 0 0 0
          0 0 0 0 0 0
          0 0 0
        </DataArray>
      </CellData>
      <Points>
        <DataArray type="Float32" Name="Points" NumberOfComponents="3" format="ascii" RangeMin="0" RangeMax="1.4142135623730951">
          0 1 0 0 0.7799999713897705 0
          0.25 1 0 0.3173084855079651 0.8117569088935852 0
          0.1888372004032135 0.6106976866722107 0 0 0.5199999809265137 0
          0.5 1 0 0.43114039301872253 0.6648067235946655 0
          0.5338732004165649 0.815037190914154 0 0.37767431139945984 0.4413954019546509 0
          0.6174687743186951 0.6476302742958069 0 0.5365368127822876 0.5048667788505554 0
          0 0.25999999046325684 0 0.75 1 0
          0.782043993473053 0.8033316731452942 0 0.6966695785522461 0.4923292100429535 0
          0.32800689339637756 0.19591359794139862 0 0.7909218072891235 0.6301581263542175 0
          0.5597307085990906 0.27817249298095703 0 0.8505734801292419 0.47420310974121094 0
          0 0 0 1 1 0
          0.7649514079093933 0.327553391456604 0 0.23776529729366302 0 0
          1 0.7271645069122314 0 0.4648641049861908 0 0
          0.9007874131202698 0.35183119773864746 0 0.7203437089920044 0.13417460024356842 0
          1 0.4593985974788666 0 0.855294406414032 0.23049800097942352 0
          0.6747748255729675 0 0 0.8903893828392029 0.11795260012149811 0
          1 0.22097820043563843 0 0.8700000047683716 0 0
          1 0 0
          <InformationKey name="L2_NORM_RANGE" location="vtkDataArray" length="2">
            <Value index="0">
              0
            </Value>
            <Value index="1">
              1.4142135624
            </Value>
          </InformationKey>
        </DataArray>
      </Points>
      <Cells>
        <DataArray type="Int64" Name="connectivity" format="ascii" RangeMin="0" RangeMax="34">
          30 33 27 30 27 25
          23 25 16 27 18 25
          20 23 12 18 9 16
          18 16 25 23 16 12
          16 9 12 9 4 12
          4 1 5 4 5 12
          33 34 31 31 34 32
          33 31 27 31 32 29
          29 32 26 31 29 27
          26 32 28 29 26 22
          26 28 19 22 26 19
          29 22 27 22 19 15
          15 19 17 22 15 18
          28 24 17 28 17 19
          15 17 10 10 17 14
          15 10 11 14 17 24
          10 14 8 11 10 7
          15 11 18 8 14 13
          10 8 7 7 8 3
          11 7 9 11 9 18
          18 27 22 3 8 6
          6 8 13 7 3 4
          14 24 21 14 21 13
          0 1 2 9 7 4
          3 6 2 3 2 1
          1 4 3
        </DataArray>
        <DataArray type="Int64" Name="offsets" format="ascii" RangeMin="3" RangeMax="153">
          3 6 9 12 15 18
          21 24 27 30 33 36
          39 42 45 48 51 54
          57 60 63 66 69 72
          75 78 81 84 87 90
          93 96 99 102 105 108
          111 114 117 120 123 126
          129 132 135 138 141 144
          147 150 153
        </DataArray>
        <DataArray type="UInt8" Name="types" format="ascii" RangeMin="5" RangeMax="5">
          5 5 5 5 5 5
          5 5 5 5 5 5
          5 5 5 5 5 5
          5 5 5 5 5 5
          5 5 5 5 5 5
          5 5 5 5 5 5
          5 5 5 5 5 5
          5 5 5 5 5 5
          5 5 5
        </DataArray>
      </Cells>
    </Piece>
  </UnstructuredGrid>
</VTKFile>
