<?xml version="1.0"?>
<VTKFile type="UnstructuredGrid" version="0.1" byte_order="LittleEndian" header_type="UInt32" compressor="vtkZLibDataCompressor">
  <UnstructuredGrid>
    <Piece NumberOfPoints="35" NumberOfCells="51">
      <PointData>
        <DataArray type="Float64" Name="nsi_SBC" NumberOfComponents="3" format="ascii" RangeMin="0" RangeMax="0">
          0 0 0 0 0 0
          0 0 0 0 0 0
          0 0 0 0 0 0
          0 0 0 0 0 0
          0 0 0 0 0 0
          0 0 0 0 0 0
          0 0 0 0 0 0
          0 0 0 0 0 0
          0 0 0 0 0 0
          0 0 0 0 0 0
          0 0 0 0 0 0
          0 0 0 0 0 0
          0 0 0 0 0 0
          0 0 0 0 0 0
          0 0 0 0 0 0
          0 0 0 0 0 0
          0 0 0 0 0 0
          0 0 0
          <InformationKey name="L2_NORM_RANGE" location="vtkDataArray" length="2">
            <Value index="0">
              0
            </Value>
            <Value index="1">
              0
            </Value>
          </InformationKey>
        </DataArray>
        <DataArray type="Float64" Name="nsi_SFIXNO" NumberOfComponents="3" format="ascii" RangeMin="0" RangeMax="1.7320508075688772">
          0 0 0 0 0 0
          0 0 0 -1 -1 -1
          -1 -1 -1 0 0 0
          0 0 0 -1 -1 -1
          -1 -1 -1 -1 -1 -1
          -1 -1 -1 -1 -1 -1
          0 0 0 0 0 0
          -1 -1 -1 -1 -1 -1
          -1 -1 -1 -1 -1 -1
          -1 -1 -1 -1 -1 -1
          0 0 0 0 0 0
          -1 -1 -1 0 0 0
          0 0 0 0 0 0
          -1 -1 -1 -1 -1 -1
          0 0 0 -1 -1 -1
          0 0 0 -1 -1 -1
          0 0 0 0 0 0
          0 0 0
          <InformationKey name="L2_NORM_RANGE" location="vtkDataArray" length="2">
            <Value index="0">
              0
            </Value>
            <Value index="1">
              1.7320508076
            </Value>
          </InformationKey>
        </DataArray>
        <DataArray type="Float64" Name="nsi_UBC" NumberOfComponents="3" format="ascii" RangeMin="0" RangeMax="0">
          0 0 0 0 0 0
          0 0 0 0 0 0
          0 0 0 0 0 0
          0 0 0 0 0 0
          0 0 0 0 0 0
          0 0 0 0 0 0
          0 0 0 0 0 0
          0 0 0 0 0 0
          0 0 0 0 0 0
          0 0 0 0 0 0
          0 0 0 0 0 0
          0 0 0 0 0 0
          0 0 0 0 0 0
          0 0 0 0 0 0
          0 0 0 0 0 0
          0 0 0 0 0 0
          0 0 0 0 0 0
          0 0 0
          <InformationKey name="L2_NORM_RANGE" location="vtkDataArray" length="2">
            <Value index="0">
              0
            </Value>
            <Value index="1">
              0
            </Value>
          </InformationKey>
        </DataArray>
        <DataArray type="Float64" Name="nsi_UFIXNO" NumberOfComponents="3" format="ascii" RangeMin="1" RangeMax="1.4142135623730951">
          1 1 0 1 0 0
          0 1 0 -1 -1 0
          -1 -1 0 1 0 0
          0 1 0 -1 -1 0
          -1 -1 0 -1 -1 0
          -1 -1 0 -1 -1 0
          1 0 0 0 1 0
          -1 -1 0 -1 -1 0
          -1 -1 0 -1 -1 0
          -1 -1 0 -1 -1 0
          1 1 0 1 1 0
          -1 -1 0 0 1 0
          1 0 0 0 1 0
          -1 -1 0 -1 -1 0
          1 0 0 -1 -1 0
          0 1 0 -1 -1 0
          1 0 0 0 1 0
          1 1 0
          <InformationKey name="L2_NORM_RANGE" location="vtkDataArray" length="2">
            <Value index="0">
              1
            </Value>
            <Value index="1">
              1.4142135624
            </Value>
          </InformationKey>
        </DataArray>
        <DataArray type="Float64" Name="lev_BC" format="ascii" RangeMin="-1" RangeMax="1">
          -1 0 -1 -1 0 1
          -1 -1 -1 0 -1 -1
          1 -1 -1 -1 1 -1
          0 -1 1 -1 -1 1
          -1 1 -1 0 -1 -1
          1 -1 -1 0 -1
        </DataArray>
        <DataArray type="Float64" Name="lev_FIXNO" format="ascii" RangeMin="0" RangeMax="0">
          0 0 0 0 0 0
          0 0 0 0 0 0
          0 0 0 0 0 0
          0 0 0 0 0 0
          0 0 0 0 0 0
          0 0 0 0 0
        </DataArray>
        <DataArray type="Float64" Name="Velocity" NumberOfComponents="3" format="ascii" RangeMin="0" RangeMax="1.729482090621569">
          0 0 0 0 -1.303252304535833 0
          -1.729482090621569 0 0 -1.593931608977269 -0.023618022504510613 0
          -0.1359890286913832 -0.7127532712560012 0 0 -0.38521780849359805 0
          -1.688871517670035 0 0 -1.1219657062794637 0.3675939207566025 0
          -1.433978740676409 0.4114225171018023 0 0.1520695255338363 -0.2484097330365578 0
          -0.8908776507812719 0.8859227754327343 0 -0.3735910335387721 0.6805655985219885 0
          0 -0.06879363670152121 0 -0.9835309403305756 0 0
          -0.7557974678478612 0.6983889399548227 0 -0.3461248664217196 1.247182124505688 0
          0.15453892829507893 -0.11674844499109334 0 -0.4898773129785271 1.1962168388290206 0
          0.4719379282987243 0.07191860560565419 0 -0.1758245280856499 1.5001841162383396 0
          0 0 0 0 0 0
          0.18546708956687574 1.3127300056464841 0 0.1023688425094699 0 0
          0 1.0139333247064084 0 0.1634323473482368 0 0
          0.06602328905550076 1.5887954257769386 0 0.735728909678325 0.2991689400789746 0
          0 1.665614969535612 0 0.3233329170900457 1.2828806434799682 0
          0.2949341093115678 0 0 0.5374686525577919 0.8972293582617743 0
          0 1.448658559889308 0 1.0120267502735798 0 0
          0 0 0
          <InformationKey name="L2_NORM_RANGE" location="vtkDataArray" length="2">
            <Value index="0">
              0
            </Value>
            <Value index="1">
              1.7294820906
            </Value>
          </InformationKey>
        </DataArray>
        <DataArray type="Float64" Name="Pressure" format="ascii" RangeMin="-165.52733276239832" RangeMax="400.91206320315496">
          -121.9965620827181 -165.52733276239832 -73.44979023849348 -62.41796217733612 -100.48098179511672 -2.1485314395744166
          -39.00342941153296 -35.822166654500016 -30.75281931360408 -2.6021079924326376 -16.56606522602408 -4.342981088884139
          176.6601803123744 -21.08291157319624 -14.463466287059527 2.778575589943343 196.65107056973503 -5.119113474422087
          56.6933181274469 9.581107349425878 400.91206320315496 -14.678576665351098 31.477061179369834 382.913983350314
          -7.919397040346576 313.2565792094315 26.577394936325035 112.59697331764406 8.832561324221505 49.440472550186605
          230.84086003924352 76.56416137822191 48.07156276031692 141.09212945314374 90.10879404726546
        </DataArray>
        <DataArray type="Float64" Name="Sigma" NumberOfComponents="6" format="ascii" RangeMin="0.23023647917048626" RangeMax="149.7307323836677">
          -111.13121482122958 100.32243816899825 0 -2.133942908037573 0 0
          0.24187147413410715 -0.7130116744825106 0 0.0506733015160197 0 0
          -54.69657633112594 37.02309979754659 0 4.217212514559126 0 0
          -39.840430001691644 3.2787262993201574 0 0.6832267183506938 0 0
          0.2815196599214017 -0.5806654431612537 0 0.0375851128180217 0 0
          0.22612306449265657 -0.597537334550817 0 0.00949541656157707 0 0
          34.278357416218796 -19.46895037189596 0 -3.654771133803128 0 0
          -19.375889624043815 9.586057343201531 0 -7.22629118116228 0 0
          25.27741053373488 -25.640217963627308 0 0.7421933893773685 0 0
          0.41598291170704504 -0.4793782706387168 0 0.08443314926825013 0 0
          20.75110114803462 -23.341453744606532 0 -4.065888669124276 0 0
          -11.565615143743816 33.63589024779443 0 0.5687021299516837 0 0
          0.31698281744298606 -0.48377714882422196 0 0.01569207924700939 0 0
          31.487825740694163 -31.75525098723721 0 -2.7170033936964852 0 0
          31.557698667317307 -33.08855070726351 0 -1.5115106138755674 0 0
          3.8609274840308707 8.076906725778315 0 1.0504154175374887 0 0
          0.5691823765247259 -0.2204998217536565 0 0.17634869489725533 0 0
          21.291957530581165 -24.509390847180033 0 -1.681855999585058 0 0
          1.005787444066394 0.09118585818530915 0 0.44333742220805306 0 0
          8.499920378140846 -15.423233030952904 0 -7.732714952332485 0 0
          0.24874815914106305 -0.09844780145366738 0 -0.02633930514359072 0 0
          42.0508188685802 -40.080037769276096 0 -0.15332510957646406 0 0
          -9.501465901132072 41.72775251949895 0 11.472124635261281 0 0
          0.15492723951929416 -0.1613503353804287 0 -0.054520235402795075 0 0
          31.4952428825702 -32.955378311328786 0 0.0003809830232275324 0 0
          0.9780039805901188 0.14703885344818246 0 0.4735559637584748 0 0
          -6.807640386596892 3.4284375671331553 0 -2.8723337850442894 0 0
          1.108039718866306 0.22926338666952228 0 0.5025380469770495 0 0
          14.021398255673464 -10.844578905417995 0 1.5428166136715467 0 0
          -15.190664283529596 36.98098205548733 0 4.117061573402845 0 0
          1.1119540735159168 0.27823993810748343 0 0.5312823032272367 0 0
          -43.84676154627752 88.75877781403366 0 -2.2352749635018148 0 0
          -25.37732012531334 26.516500111025664 0 -3.90953798714211 0 0
          1.258555039979996 0.2865490461372736 0 0.5071866590048775 0 0
          -90.95910883328361 86.70844796468285 0 -15.089286390994094 0 0
          <InformationKey name="L2_NORM_RANGE" location="vtkDataArray" length="2">
            <Value index="0">
              0.23023647917
            </Value>
            <Value index="1">
              149.73073238
            </Value>
          </InformationKey>
        </DataArray>
        <DataArray type="Float64" Name="LEVEL" format="ascii" RangeMin="-0.9335398134133164" RangeMax="0.6483531042837172">
          -0.2212356261912211 -0.1050290343939442 -0.44813501717059995 -0.3495688598721146 -0.061570553226618495 0.15063419107974604
          -0.5950341424498351 -0.3510984015143427 -0.5656272531122817 -0.0055146303613704765 -0.4403343185833649 -0.1916890954355887
          0.3788607570324058 -0.784448057764946 -0.6445828376906034 -0.22822986266135653 0.21646520454248228 -0.3954333694019393
          0.03296962348587076 -0.2400747210313452 0.6483531042837172 -0.9335398134133164 -0.0798747329212042 0.4407748212831673
          -0.6017443996162875 0.2810938757692171 -0.1711496812497455 0.06276470756548917 -0.2972373594701521 -0.059375734427541904
          0.15146809731400607 -0.016780949447803326 -0.19187943540183255 0.0573997375365721 -0.09555578854066518
        </DataArray>
      </PointData>
      <CellData>
        <DataArray type="UInt8" Name="vtkGhostType" format="ascii" RangeMin="0" RangeMax="0">
          0 0 0 0 0 0
          0 0 0 0 0 0
          0 0 0 0 0 0
          0 0 0 0 0 0
          0 0 0 0 0 0
          0 0 0 0 0 0
          0 0 0 0 0 0
          0 0 0 0 0 0
          0 0 0
        </DataArray>
      </CellData>
      <Points>
        <DataArray type="Float32" Name="Points" NumberOfComponents="3" format="ascii" RangeMin="0" RangeMax="1.4142135623730951">
          0 1 0 0 0.7799999713897705 0
          0.25 1 0 0.3173084855079651 0.8117569088935852 0
          0.1888372004032135 0.6106976866722107 0 0 0.5199999809265137 0
          0.5 1 0 0.43114039301872253 0.6648067235946655 0
          0.5338732004165649 0.815037190914154 0 0.37767431139945984 0.4413954019546509 0
          0.6174687743186951 0.6476302742958069 0 0.5365368127822876 0.5048667788505554 0
          0 0.25999999046325684 0 0.75 1 0
          0.782043993473053 0.8033316731452942 0 0.6966695785522461 0.4923292100429535 0
          0.32800689339637756 0.19591359794139862 0 0.7909218072891235 0.6301581263542175 0
          0.5597307085990906 0.27817249298095703 0 0.8505734801292419 0.47420310974121094 0
          0 0 0 1 1 0
          0.7649514079093933 0.327553391456604 0 0.23776529729366302 0 0
          1 0.7271645069122314 0 0.4648641049861908 0 0
          0.9007874131202698 0.35183119773864746 0 0.7203437089920044 0.13417460024356842 0
          1 0.4593985974788666 0 0.855294406414032 0.23049800097942352 0
          0.6747748255729675 0 0 0.8903893828392029 0.11795260012149811 0
          1 0.22097820043563843 0 0.8700000047683716 0 0
          1 0 0
          <InformationKey name="L2_NORM_RANGE" location="vtkDataArray" length="2">
            <Value index="0">
              0
            </Value>
            <Value index="1">
              1.4142135624
            </Value>
          </InformationKey>
        </DataArray>
      </Points>
      <Cells>
        <DataArray type="Int64" Name="connectivity" format="ascii" RangeMin="0" RangeMax="34">
          30 33 27 30 27 25
          23 25 16 27 18 25
          20 23 12 18 9 16
          18 16 25 23 16 12
          16 9 12 9 4 12
          4 1 5 4 5 12
          33 34 31 31 34 32
          33 31 27 31 32 29
          29 32 26 31 29 27
          26 32 28 29 26 22
          26 28 19 22 26 19
          29 22 27 22 19 15
          15 19 17 22 15 18
          28 24 17 28 17 19
          15 17 10 10 17 14
          15 10 11 14 17 24
          10 14 8 11 10 7
          15 11 18 8 14 13
          10 8 7 7 8 3
          11 7 9 11 9 18
          18 27 22 3 8 6
          6 8 13 7 3 4
          14 24 21 14 21 13
          0 1 2 9 7 4
          3 6 2 3 2 1
          1 4 3
        </DataArray>
        <DataArray type="Int64" Name="offsets" format="ascii" RangeMin="3" RangeMax="153">
          3 6 9 12 15 18
          21 24 27 30 33 36
          39 42 45 48 51 54
          57 60 63 66 69 72
          75 78 81 84 87 90
          93 96 99 102 105 108
          111 114 117 120 123 126
          129 132 135 138 141 144
          147 150 153
        </DataArray>
        <DataArray type="UInt8" Name="types" format="ascii" RangeMin="5" RangeMax="5">
          5 5 5 5 5 5
          5 5 5 5 5 5
          5 5 5 5 5 5
          5 5 5 5 5 5
          5 5 5 5 5 5
          5 5 5 5 5 5
          5 5 5 5 5 5
          5 5 5 5 5 5
          5 5 5
        </DataArray>
      </Cells>
    </Piece>
  </UnstructuredGrid>
</VTKFile>
