<?xml version="1.0"?>
<VTKFile type="UnstructuredGrid" version="0.1" byte_order="LittleEndian" header_type="UInt32" compressor="vtkZLibDataCompressor">
  <UnstructuredGrid>
    <Piece NumberOfPoints="126" NumberOfCells="100">
      <PointData>
        <DataArray type="Float64" Name="nsi_BC" NumberOfComponents="3" format="ascii" RangeMin="0" RangeMax="0">
          0 0 0 0 0 0
          0 0 0 0 0 0
          0 0 0 0 0 0
          0 0 0 0 0 0
          0 0 0 0 0 0
          0 0 0 0 0 0
          0 0 0 0 0 0
          0 0 0 0 0 0
          0 0 0 0 0 0
          0 0 0 0 0 0
          0 0 0 0 0 0
          0 0 0 0 0 0
          0 0 0 0 0 0
          0 0 0 0 0 0
          0 0 0 0 0 0
          0 0 0 0 0 0
          0 0 0 0 0 0
          0 0 0 0 0 0
          0 0 0 0 0 0
          0 0 0 0 0 0
          0 0 0 0 0 0
          0 0 0 0 0 0
          0 0 0 0 0 0
          0 0 0 0 0 0
          0 0 0 0 0 0
          0 0 0 0 0 0
          0 0 0 0 0 0
          0 0 0 0 0 0
          0 0 0 0 0 0
          0 0 0 0 0 0
          0 0 0 0 0 0
          0 0 0 0 0 0
          0 0 0 0 0 0
          0 0 0 0 0 0
          0 0 0 0 0 0
          0 0 0 0 0 0
          0 0 0 0 0 0
          0 0 0 0 0 0
          0 0 0 0 0 0
          0 0 0 0 0 0
          0 0 0 0 0 0
          0 0 0 0 0 0
          0 0 0 0 0 0
          0 0 0 0 0 0
          0 0 0 0 0 0
          0 0 0 0 0 0
          0 0 0 0 0 0
          0 0 0 0 0 0
          0 0 0 0 0 0
          0 0 0 0 0 0
          0 0 0 0 0 0
          0 0 0 0 0 0
          0 0 0 0 0 0
          0 0 0 0 0 0
          0 0 0 0 0 0
          0 0 0 0 0 0
          0 0 0 0 0 0
          0 0 0 0 0 0
          0 0 0 0 0 0
          0 0 0 0 0 0
          0 0 0 0 0 0
          0 0 0 0 0 0
          0 0 0 0 0 0
          <InformationKey name="L2_NORM_RANGE" location="vtkDataArray" length="2">
            <Value index="0">
              0
            </Value>
            <Value index="1">
              0
            </Value>
          </InformationKey>
        </DataArray>
        <DataArray type="Float64" Name="nsi_FIXNO" NumberOfComponents="3" format="ascii" RangeMin="1.4142135623730951" RangeMax="1.4142135623730951">
          1 1 0 1 1 0
          1 1 0 1 1 0
          -1 -1 0 -1 -1 0
          1 1 0 -1 -1 0
          1 1 0 1 1 0
          -1 -1 0 -1 -1 0
          -1 -1 0 -1 -1 0
          1 1 0 1 1 0
          -1 -1 0 1 1 0
          -1 -1 0 -1 -1 0
          1 1 0 -1 -1 0
          -1 -1 0 1 1 0
          1 1 0 -1 -1 0
          -1 -1 0 -1 -1 0
          -1 -1 0 1 1 0
          1 1 0 -1 -1 0
          -1 -1 0 -1 -1 0
          -1 -1 0 1 1 0
          1 1 0 -1 -1 0
          -1 -1 0 -1 -1 0
          -1 -1 0 1 1 0
          1 1 0 -1 -1 0
          -1 -1 0 -1 -1 0
          -1 -1 0 1 1 0
          1 1 0 -1 -1 0
          -1 -1 0 -1 -1 0
          -1 -1 0 1 1 0
          1 1 0 -1 -1 0
          -1 -1 0 -1 -1 0
          -1 -1 0 1 1 0
          1 1 0 -1 -1 0
          -1 -1 0 -1 -1 0
          -1 -1 0 1 1 0
          1 1 0 -1 -1 0
          -1 -1 0 -1 -1 0
          -1 -1 0 1 1 0
          1 1 0 -1 -1 0
          -1 -1 0 -1 -1 0
          -1 -1 0 1 1 0
          1 1 0 -1 -1 0
          -1 -1 0 -1 -1 0
          -1 -1 0 1 1 0
          1 1 0 -1 -1 0
          -1 -1 0 -1 -1 0
          -1 -1 0 1 1 0
          1 1 0 -1 -1 0
          -1 -1 0 -1 -1 0
          -1 -1 0 1 1 0
          1 1 0 -1 -1 0
          -1 -1 0 -1 -1 0
          -1 -1 0 1 1 0
          1 1 0 -1 -1 0
          -1 -1 0 -1 -1 0
          -1 -1 0 1 1 0
          1 1 0 -1 -1 0
          -1 -1 0 -1 -1 0
          -1 -1 0 1 1 0
          1 1 0 -1 -1 0
          -1 -1 0 -1 -1 0
          -1 -1 0 1 1 0
          1 1 0 1 1 0
          1 1 0 1 1 0
          1 1 0 1 1 0
          <InformationKey name="L2_NORM_RANGE" location="vtkDataArray" length="2">
            <Value index="0">
              1.4142135624
            </Value>
            <Value index="1">
              1.4142135624
            </Value>
          </InformationKey>
        </DataArray>
        <DataArray type="Float64" Name="Velocity" NumberOfComponents="3" format="ascii" RangeMin="0" RangeMax="0.3785180484950322">
          0 0 0 0 7.595308642326565e-24 0
          0 1.741189644207058e-23 0 3.373479430856145e-26 0 0
          -0.057408768805236855 0.07855005421985485 0 -0.11290992262511582 0.015118379712233513 0
          0 1.815150413214499e-24 0 -0.141755170049202 0.0846319209949018 0
          -1.711515324673868e-23 0 0 0 6.857764263494737e-24 0
          -0.01794856261438406 0.3108307352675517 0 -0.04541583520887718 0.06544662472918789 0
          -0.06196535325181976 -0.23532893406702368 0 -0.02146184473975094 0.030189581253307507 0
          -1.1889653506152967e-23 -1.0052799784557428e-23 0 -8.061338609895272e-24 0 0
          -0.006316669504385929 -0.36483634812332694 0 -5.7445318498303426e-24 0 0
          -0.00464358499037684 0.3687385955725696 0 -0.008699339027967767 0.07260200205642418 0
          6.73500896176007e-24 0 0 -0.006367049266723987 -0.03244776414143434 0
          0.0002085389745140095 -0.37851798627048516 0 1.7860759167999575e-23 0 0
          -5.370668087506485e-24 0 0 -0.000123908997524471 0.3761266240871445 0
          -0.0007937995668064108 0.06195705260134231 0 0.0011998577453687371 -0.04766320690296106 0
          0.00030869044927540266 -0.37723228440029466 0 -2.1177929053889537e-24 0 0
          7.828523457434242e-26 0 0 -0.00014923709543752405 0.3757891734555502 0
          -0.00006951923334398748 0.05607359060444719 0 0.00024609348297869986 -0.05169224916770426 0
          0.0001992682148573506 -0.376093986847964 0 -5.621370452288241e-24 0 0
          -2.4585295111729334e-23 0 0 -0.000024436598051224873 0.3758709974650983 0
          -0.00009257263524945801 0.054231143845565155 0 0.00007611590798344768 -0.05305724741215715 0
          0.00001711184623140666 -0.3758235577404536 0 -3.6546626540719005e-24 0 0
          -1.2593309031415816e-21 0 0 -0.000007725374344419476 0.37586735232805574 0
          -0.000006881838662767921 0.05375400024120519 0 0.000002762626794101097 -0.05344901982343975 0
          0.000003898719722757312 -0.37582857855571905 0 4.157101932073565e-22 0 0
          -2.6835530466832805e-27 0 0 -3.61007538374754e-7 0.37585592042822036 0
          -0.000006034646531085049 0.05363498857846005 0 0.000003009250159528359 -0.053554472601725744 0
          -6.7854196250697e-7 -0.3758439121440717 0 -3.0900867944219005e-22 0 0
          2.0113632762423116e-25 0 0 -8.463584211422345e-7 0.3758547242345425 0
          -0.0000010440068904643683 0.05360267104880594 0 -3.1593447065739573e-7 -0.05358408640439696 0
          -6.621827308162169e-8 -0.3758509797839733 0 4.006334363721913e-22 0 0
          -2.3838222930889404e-27 0 0 1.9344859129029217e-7 0.3758535421364916 0
          -4.1576577553528543e-7 0.05359291380381346 0 4.161441238551688e-7 -0.05359291101581193 0
          -1.9349689092514161e-7 -0.37585353700355945 0 3.231932465230406e-23 0 0
          3.8455202281635967e-22 0 0 6.651875162445626e-8 0.37585098460263516 0
          3.1631052217011205e-7 0.05358408750098831 0 0.0000010441248478014593 -0.05360266648513941 0
          8.463621390736882e-7 -0.3758547192825725 0 2.8556360197824464e-22 0 0
          0 0 0 6.789945350412724e-7 0.3758439145905865 0
          -0.0000030087431774023838 0.05355447800101726 0 0.000006035877732272351 -0.05363498652678575 0
          3.6255102231782924e-7 -0.3758559113584648 0 -3.592999396504441e-22 0 0
          2.9213604992386865e-25 0 0 -0.000003900601417334027 0.37582858437034006 0
          -0.0000027646136462452977 0.05344903432222711 0 0.000006881317230593429 -0.05375399654800746 0
          0.000007725334484246524 -0.37586733498122643 0 -1.6486194639422035e-22 0 0
          -2.4151489972568434e-27 0 0 -0.000017113296993212338 0.37582357539636346 0
          -0.00007611807372033866 0.053057251051149695 0 0.00009257022656653863 -0.05423113015705215 0
          0.00002443443426053526 -0.37587098997332946 0 5.080978638781277e-24 0 0
          -1.8667489161627464e-29 0 0 -0.00019926614785147867 0.3760940020100752 0
          -0.0002460911964620659 0.05169224554437236 0 0.00006952031769410117 -0.05607358606134771 0
          0.00014923752907656197 -0.37578917083513064 0 2.8140516173177187e-24 0 0
          1.7349394786803264e-27 0 0 -0.00030868969386451127 0.37723228851075 0
          -0.001199856793331773 0.04766320820194844 0 0.0007938000259351597 -0.06195705090023225 0
          0.00012390936238571243 -0.3761266188979991 0 -1.1741133817501688e-23 0 0
          5.4189363555666916e-24 0 0 -0.00020853922850055278 0.3785179910491412 0
          0.006367048845902067 0.03244776443941071 0 0.008699338843663465 -0.07260200062718214 0
          0.004643584725167309 -0.36873859082440485 0 2.8440278093295504e-24 0 0
          4.324471168308681e-24 0 0 0.006316669652520119 0.36483635171029427 0
          0.021461844553753984 -0.03018958289990934 0 0.04541583461767879 -0.06544662511937777 0
          0.017948562272025965 -0.31083073309107906 0 2.6994111669867997e-24 0 0
          2.5936373429873595e-23 0 0 0.06196535357259221 0.23532893613058262 0
          0.14175517047892272 -0.08463192230048441 0 0.1129099225544791 -0.01511837988523156 0
          0.0574087686392602 -0.07855005458799101 0 1.0576291057118604e-23 0 0
          -3.3626809325017547e-23 -5.457368502068317e-23 0 0 -1.9843721271138e-24 0
          0 -2.017567565266621e-24 0 0 -1.7846789853779872e-23 0
          0 1.215572247384754e-23 0 3.543393619081881e-24 -8.179362157386803e-24 0
          <InformationKey name="L2_NORM_RANGE" location="vtkDataArray" length="2">
            <Value index="0">
              0
            </Value>
            <Value index="1">
              0.3785180485
            </Value>
          </InformationKey>
        </DataArray>
        <DataArray type="Float64" Name="Pressure" format="ascii" RangeMin="-0.00045532519908343607" RangeMax="0.5214049008460139">
          0 0.10079499086977975 0.19122796427723587 0.1826169117877222 0.17976718303413866 0.20225139999093633
          0.2749327023948873 0.22675115114934996 0.18706706976887713 0.4090173251866939 0.19038053954359643 0.19761561381611079
          0.24747217711015668 0.20212367301347597 0.5214049008460139 0.24069523309125668 0.20463363631433235 0.19281694227441704
          0.19210149135624932 0.19397860770884104 0.21071847438869967 0.1958738141177035 0.19711217387395727 0.19683832614798644
          0.1932168288366053 0.19331846445889492 0.19371565722732378 0.1941613162888623 0.1943999271745843 0.19467383646664715
          0.1937533274894987 0.1937161425473139 0.19374467760098246 0.1938344808394046 0.19390302272281512 0.1939097719204414
          0.1937186189750721 0.19371245183619706 0.19373831447740752 0.19375670507062154 0.19376772206631074 0.19377567857620276
          0.19372590535663 0.19372425311199318 0.19372275530470243 0.193726205058177 0.1937287278200572 0.19372970545970952
          0.19370174530409318 0.1937012874428489 0.19370304317987086 0.19370346528902654 0.19370380610169996 0.19370397867404837
          0.1936814276672301 0.19368136138943662 0.19368105142011421 0.19368106442322391 0.1936810955589693 0.19368111027582258
          0.19365853673119354 0.19365851147611468 0.19365862541118206 0.1936586248715299 0.19365850878340315 0.19365853283400872
          0.19363556890963107 0.19363555411899747 0.19363552156285857 0.19363550979219224 0.1936358258128886 0.1936358950263543
          0.1936128991525024 0.19361272789112954 0.19361239017709284 0.193611957157481 0.193610179151955 0.19361062656182418
          0.19359305406457328 0.19359208796480618 0.19358959491733266 0.193586160175216 0.19358764656657657 0.19358929422547286
          0.1935935361687517 0.1935855807722291 0.1935745651396277 0.19355618759227552 0.19353035620903042 0.19353653636730814
          0.19368219339647544 0.19367542754340497 0.19360684578546133 0.19351702452941155 0.1934884908248793 0.19352567670261794
          0.19440063750023379 0.19412673272489545 0.1938881330000261 0.19344247517095683 0.1930452793056365 0.19294364286132715
          0.19651960813417058 0.19679345394153575 0.19555508932016333 0.19365988187470487 0.19178276587177243 0.19249821675501821
          0.2103542064023095 0.20426936833789852 0.2017594050624789 0.19725134584306964 0.19001627263718388 0.1867028033615234
          0.24028543140658987 0.24706237299040115 0.22634134364969338 0.20184159243045047 0.1793573778067045 0.18220710802964257
          0.5209495716487207 0.4085619921100153 0.2744773691907811 0.19077263146947568 0.10033965999598052 -0.00045532519908343607
        </DataArray>
        <DataArray type="Float64" Name="stream" format="ascii" RangeMin="-0.0764893623815634" RangeMax="0.015902458413035454">
          -0.0018133741695309435 0 0.00021667342134586848 0.00563513596911861 -0.007007837827815116 -0.02115131089119382
          -0.0005313216720073347 -0.02929026499594583 0.015902458413035454 -0.0008553645135979246 -0.017223376490612015 -0.053833235814284404
          -0.016450433157782513 -0.06208564063214027 -0.0008553645135979246 0.003113547867660965 -0.02915323430968936 0.014378789026238604
          -0.022253080414624125 -0.06568387277333322 0.00522197418515215 -0.06945440692197996 -0.029618428534070207 0.006727672139065229
          0.010006876161767472 -0.026483890917823376 -0.06987515042870127 -0.07152679491836689 -0.02974627290525169 0.007348765210963722
          0.007955545668877843 -0.028845520707176088 -0.07180983139076584 -0.07239234786877094 -0.02992147460526631 0.007502753286315606
          0.007684437807966241 -0.029645361088330303 -0.07254236897260075 -0.07272987257943167 -0.029964992246409076 0.007553104259985906
          0.007605352537880389 -0.029898295275306228 -0.07281631491337451 -0.07286699723228904 -0.029988255940882252 0.007570345125577846
          0.0075851347341013495 -0.029975230846321293 -0.07290725520824873 -0.07292108447729219 -0.02999844680272159 0.007576953671452627
          0.007580380942065805 -0.029997624492976868 -0.07293742597122789 -0.07294025230642079 -0.030002538137231 0.007579340809496626
          0.007577538086505582 -0.03000524992411413 -0.07294756686428489 -0.0729473180156914 -0.03000419070658384 0.007580196512145507
          0.007568866526694175 -0.03001333395820151 -0.07295450669525891 -0.07295145729580405 -0.030005035435214045 0.007580500332789893
          0.007536915663567904 -0.03003835872465383 -0.07297251729200029 -0.07295967080996399 -0.030006734226857144 0.007580574620408597
          0.0074242042469498636 -0.030127565484800743 -0.07303387796874167 -0.07299035794874666 -0.030012271665669332 0.007580835177398153
          0.0070511078884100235 -0.030427320997641016 -0.07325555569351556 -0.07308334481134517 -0.030025618210196555 0.0075809412044017584
          0.005855359469343159 -0.03143623914083184 -0.07400745563059245 -0.07344541344200191 -0.030075636679638904 0.007582714219797303
          0.0032275308610225303 -0.033762512187174645 -0.07601096042098823 -0.07425383370180229 -0.030157304204267196 0.007584949311961343
          0.00039504482361596774 -0.03652242074161534 -0.0764893623815634 -0.07247675055556922 -0.028730632766353778 0.007606225407891982
          0.009054104970359958 -0.02957376208646778 -0.06444071668625564 -0.054832296796978465 -0.02007659291872263 0.007422386541467183
          0.01255368099976306 -0.009428793095697784 -0.02440631718622217 -0.015960540672547624 -0.004424126807861925 0.006279259586683808
          0.006279259586683808 0.004621768602752239 0.005111988248123103 0.0064503517125160115 0.0066684432533369664 0.006279259586683808
        </DataArray>
      </PointData>
      <CellData>
        <DataArray type="UInt8" Name="vtkGhostType" format="ascii" RangeMin="0" RangeMax="0">
          0 0 0 0 0 0
          0 0 0 0 0 0
          0 0 0 0 0 0
          0 0 0 0 0 0
          0 0 0 0 0 0
          0 0 0 0 0 0
          0 0 0 0 0 0
          0 0 0 0 0 0
          0 0 0 0 0 0
          0 0 0 0 0 0
          0 0 0 0 0 0
          0 0 0 0 0 0
          0 0 0 0 0 0
          0 0 0 0 0 0
          0 0 0 0 0 0
          0 0 0 0 0 0
          0 0 0 0
        </DataArray>
      </CellData>
      <Points>
        <DataArray type="Float32" Name="Points" NumberOfComponents="3" format="ascii" RangeMin="0.10000000149011612" RangeMax="8.0156097709407">
          -0.5 0 0 -0.30000001192092896 0 0
          -0.10000000149011612 0 0 -0.5 0.4000000059604645 0
          -0.30000001192092896 0.4000000059604645 0 -0.10000000149011612 0.4000000059604645 0
          0.10000000149011612 0 0 0.10000000149011612 0.4000000059604645 0
          -0.5 0.800000011920929 0 0.30000001192092896 0 0
          -0.30000001192092896 0.800000011920929 0 -0.10000000149011612 0.800000011920929 0
          0.30000001192092896 0.4000000059604645 0 0.10000000149011612 0.800000011920929 0
          0.5 0 0 0.5 0.4000000059604645 0
          0.30000001192092896 0.800000011920929 0 -0.5 1.2000000476837158 0
          -0.30000001192092896 1.2000000476837158 0 -0.10000000149011612 1.2000000476837158 0
          0.5 0.800000011920929 0 0.10000000149011612 1.2000000476837158 0
          0.30000001192092896 1.2000000476837158 0 0.5 1.2000000476837158 0
          -0.5 1.600000023841858 0 -0.30000001192092896 1.600000023841858 0
          -0.10000000149011612 1.600000023841858 0 0.10000000149011612 1.600000023841858 0
          0.30000001192092896 1.600000023841858 0 0.5 1.600000023841858 0
          -0.5 2 0 -0.30000001192092896 2 0
          -0.10000000149011612 2 0 0.10000000149011612 2 0
          0.30000001192092896 2 0 0.5 2 0
          -0.5 2.4000000953674316 0 -0.30000001192092896 2.4000000953674316 0
          -0.10000000149011612 2.4000000953674316 0 0.10000000149011612 2.4000000953674316 0
          0.30000001192092896 2.4000000953674316 0 0.5 2.4000000953674316 0
          -0.5 2.799999952316284 0 -0.30000001192092896 2.799999952316284 0
          -0.10000000149011612 2.799999952316284 0 0.10000000149011612 2.799999952316284 0
          0.30000001192092896 2.799999952316284 0 0.5 2.799999952316284 0
          -0.5 3.200000047683716 0 -0.30000001192092896 3.200000047683716 0
          -0.10000000149011612 3.200000047683716 0 0.10000000149011612 3.200000047683716 0
          0.30000001192092896 3.200000047683716 0 0.5 3.200000047683716 0
          -0.5 3.5999999046325684 0 -0.30000001192092896 3.5999999046325684 0
          -0.10000000149011612 3.5999999046325684 0 0.10000000149011612 3.5999999046325684 0
          0.30000001192092896 3.5999999046325684 0 0.5 3.5999999046325684 0
          -0.5 4 0 -0.30000001192092896 4 0
          -0.10000000149011612 4 0 0.10000000149011612 4 0
          0.30000001192092896 4 0 0.5 4 0
          -0.5 4.400000095367432 0 -0.30000001192092896 4.400000095367432 0
          -0.10000000149011612 4.400000095367432 0 0.10000000149011612 4.400000095367432 0
          0.30000001192092896 4.400000095367432 0 0.5 4.400000095367432 0
          -0.5 4.800000190734863 0 -0.30000001192092896 4.800000190734863 0
          -0.10000000149011612 4.800000190734863 0 0.10000000149011612 4.800000190734863 0
          0.30000001192092896 4.800000190734863 0 0.5 4.800000190734863 0
          -0.5 5.199999809265137 0 -0.30000001192092896 5.199999809265137 0
          -0.10000000149011612 5.199999809265137 0 0.10000000149011612 5.199999809265137 0
          0.30000001192092896 5.199999809265137 0 0.5 5.199999809265137 0
          -0.5 5.599999904632568 0 -0.30000001192092896 5.599999904632568 0
          -0.10000000149011612 5.599999904632568 0 0.10000000149011612 5.599999904632568 0
          0.30000001192092896 5.599999904632568 0 0.5 5.599999904632568 0
          -0.5 6 0 -0.30000001192092896 6 0
          -0.10000000149011612 6 0 0.10000000149011612 6 0
          0.30000001192092896 6 0 0.5 6 0
          -0.5 6.400000095367432 0 -0.30000001192092896 6.400000095367432 0
          -0.10000000149011612 6.400000095367432 0 0.10000000149011612 6.400000095367432 0
          0.30000001192092896 6.400000095367432 0 0.5 6.400000095367432 0
          -0.5 6.800000190734863 0 -0.30000001192092896 6.800000190734863 0
          -0.10000000149011612 6.800000190734863 0 0.10000000149011612 6.800000190734863 0
          0.30000001192092896 6.800000190734863 0 0.5 6.800000190734863 0
          -0.5 7.199999809265137 0 -0.30000001192092896 7.199999809265137 0
          -0.10000000149011612 7.199999809265137 0 0.10000000149011612 7.199999809265137 0
          0.30000001192092896 7.199999809265137 0 0.5 7.199999809265137 0
          -0.5 7.599999904632568 0 -0.30000001192092896 7.599999904632568 0
          -0.10000000149011612 7.599999904632568 0 0.10000000149011612 7.599999904632568 0
          0.30000001192092896 7.599999904632568 0 0.5 7.599999904632568 0
          -0.5 8 0 -0.30000001192092896 8 0
          -0.10000000149011612 8 0 0.10000000149011612 8 0
          0.30000001192092896 8 0 0.5 8 0
          <InformationKey name="L2_NORM_RANGE" location="vtkDataArray" length="2">
            <Value index="0">
              0.10000000149
            </Value>
            <Value index="1">
              8.0156097709
            </Value>
          </InformationKey>
        </DataArray>
      </Points>
      <Cells>
        <DataArray type="Int64" Name="connectivity" format="ascii" RangeMin="0" RangeMax="125">
          15 12 9 14 20 16
          12 15 23 22 16 20
          29 28 22 23 35 34
          28 29 41 40 34 35
          47 46 40 41 53 52
          46 47 59 58 52 53
          65 64 58 59 71 70
          64 65 77 76 70 71
          83 82 76 77 89 88
          82 83 95 94 88 89
          101 100 94 95 107 106
          100 101 113 112 106 107
          119 118 112 113 125 124
          118 119 12 7 6 9
          16 13 7 12 22 21
          13 16 28 27 21 22
          34 33 27 28 40 39
          33 34 46 45 39 40
          52 51 45 46 58 57
          51 52 64 63 57 58
          70 69 63 64 76 75
          69 70 82 81 75 76
          88 87 81 82 94 93
          87 88 100 99 93 94
          106 105 99 100 112 111
          105 106 118 117 111 112
          124 123 117 118 7 5
          2 6 13 11 5 7
          21 19 11 13 27 26
          19 21 33 32 26 27
          39 38 32 33 45 44
          38 39 51 50 44 45
          57 56 50 51 63 62
          56 57 69 68 62 63
          75 74 68 69 81 80
          74 75 87 86 80 81
          93 92 86 87 99 98
          92 93 105 104 98 99
          111 110 104 105 117 116
          110 111 123 122 116 117
          5 4 1 2 11 10
          4 5 19 18 10 11
          26 25 18 19 32 31
          25 26 38 37 31 32
          44 43 37 38 50 49
          43 44 56 55 49 50
          62 61 55 56 68 67
          61 62 74 73 67 68
          80 79 73 74 86 85
          79 80 92 91 85 86
          98 97 91 92 104 103
          97 98 110 109 103 104
          116 115 109 110 122 121
          115 116 4 3 0 1
          10 8 3 4 18 17
          8 10 25 24 17 18
          31 30 24 25 37 36
          30 31 43 42 36 37
          49 48 42 43 55 54
          48 49 61 60 54 55
          67 66 60 61 73 72
          66 67 79 78 72 73
          85 84 78 79 91 90
          84 85 97 96 90 91
          103 102 96 97 109 108
          102 103 115 114 108 109
          121 120 114 115
        </DataArray>
        <DataArray type="Int64" Name="offsets" format="ascii" RangeMin="4" RangeMax="400">
          4 8 12 16 20 24
          28 32 36 40 44 48
          52 56 60 64 68 72
          76 80 84 88 92 96
          100 104 108 112 116 120
          124 128 132 136 140 144
          148 152 156 160 164 168
          172 176 180 184 188 192
          196 200 204 208 212 216
          220 224 228 232 236 240
          244 248 252 256 260 264
          268 272 276 280 284 288
          292 296 300 304 308 312
          316 320 324 328 332 336
          340 344 348 352 356 360
          364 368 372 376 380 384
          388 392 396 400
        </DataArray>
        <DataArray type="UInt8" Name="types" format="ascii" RangeMin="9" RangeMax="9">
          9 9 9 9 9 9
          9 9 9 9 9 9
          9 9 9 9 9 9
          9 9 9 9 9 9
          9 9 9 9 9 9
          9 9 9 9 9 9
          9 9 9 9 9 9
          9 9 9 9 9 9
          9 9 9 9 9 9
          9 9 9 9 9 9
          9 9 9 9 9 9
          9 9 9 9 9 9
          9 9 9 9 9 9
          9 9 9 9 9 9
          9 9 9 9 9 9
          9 9 9 9 9 9
          9 9 9 9
        </DataArray>
      </Cells>
    </Piece>
  </UnstructuredGrid>
</VTKFile>
