<?xml version="1.0"?>
<VTKFile type="UnstructuredGrid" version="0.1" byte_order="LittleEndian" header_type="UInt32" compressor="vtkZLibDataCompressor">
  <UnstructuredGrid>
    <Piece NumberOfPoints="52" NumberOfCells="77">
      <PointData>
        <DataArray type="Float64" Name="nsi_SBC" NumberOfComponents="3" format="ascii" RangeMin="0" RangeMax="0">
          0 0 0 0 0 0
          0 0 0 0 0 0
          0 0 0 0 0 0
          0 0 0 0 0 0
          0 0 0 0 0 0
          0 0 0 0 0 0
          0 0 0 0 0 0
          0 0 0 0 0 0
          0 0 0 0 0 0
          0 0 0 0 0 0
          0 0 0 0 0 0
          0 0 0 0 0 0
          0 0 0 0 0 0
          0 0 0 0 0 0
          0 0 0 0 0 0
          0 0 0 0 0 0
          0 0 0 0 0 0
          0 0 0 0 0 0
          0 0 0 0 0 0
          0 0 0 0 0 0
          0 0 0 0 0 0
          0 0 0 0 0 0
          0 0 0 0 0 0
          0 0 0 0 0 0
          0 0 0 0 0 0
          0 0 0 0 0 0
          <InformationKey name="L2_NORM_RANGE" location="vtkDataArray" length="2">
            <Value index="0">
              0
            </Value>
            <Value index="1">
              0
            </Value>
          </InformationKey>
        </DataArray>
        <DataArray type="Float64" Name="nsi_SFIXNO" NumberOfComponents="3" format="ascii" RangeMin="0" RangeMax="1.7320508075688772">
          -1 -1 -1 -1 -1 -1
          -1 -1 -1 -1 -1 -1
          0 0 0 -1 -1 -1
          -1 -1 -1 -1 -1 -1
          0 0 0 -1 -1 -1
          0 0 0 -1 -1 -1
          0 0 0 0 0 0
          -1 -1 -1 -1 -1 -1
          -1 -1 -1 -1 -1 -1
          -1 -1 -1 -1 -1 -1
          -1 -1 -1 -1 -1 -1
          -1 -1 -1 0 0 0
          -1 -1 -1 -1 -1 -1
          -1 -1 -1 -1 -1 -1
          -1 -1 -1 0 0 0
          -1 -1 -1 -1 -1 -1
          -1 -1 -1 -1 -1 -1
          0 0 0 0 0 0
          0 0 0 0 0 0
          0 0 0 0 0 0
          -1 -1 -1 0 0 0
          -1 -1 -1 -1 -1 -1
          -1 -1 -1 -1 -1 -1
          -1 -1 -1 0 0 0
          -1 -1 -1 -1 -1 -1
          -1 -1 -1 0 0 0
          <InformationKey name="L2_NORM_RANGE" location="vtkDataArray" length="2">
            <Value index="0">
              0
            </Value>
            <Value index="1">
              1.7320508076
            </Value>
          </InformationKey>
        </DataArray>
        <DataArray type="Float64" Name="nsi_UBC" NumberOfComponents="3" format="ascii" RangeMin="0" RangeMax="1">
          0 0 0 0 0 0
          0 0 0 0 0 0
          0 0 0 0 0 0
          0 0 0 0 0 0
          0 0 0 0 0 0
          0 0 0 0 0 0
          0 0 0 0 0 0
          0 0 0 0 0 0
          0 0 0 0 0 0
          0 0 0 0 0 0
          0 0 0 0 0 0
          0 0 0 0 0 0
          0 0 0 0 0 0
          0 0 0 0 0 0
          0 0 0 0 0 0
          0 0 0 0 0 0
          0 0 0 0 0 0
          1 0 0 0 0 0
          1 0 0 1 0 0
          1 0 0 0 0 0
          0 0 0 0 0 0
          0 0 0 0 0 0
          0 0 0 0 0 0
          0 0 0 0 0 0
          0 0 0 0 0 0
          0 0 0 1 0 0
          <InformationKey name="L2_NORM_RANGE" location="vtkDataArray" length="2">
            <Value index="0">
              0
            </Value>
            <Value index="1">
              1
            </Value>
          </InformationKey>
        </DataArray>
        <DataArray type="Float64" Name="nsi_UFIXNO" NumberOfComponents="3" format="ascii" RangeMin="1" RangeMax="1.4142135623730951">
          -1 -1 0 -1 -1 0
          -1 -1 0 -1 -1 0
          0 1 0 -1 -1 0
          -1 -1 0 -1 -1 0
          1 1 0 -1 -1 0
          0 1 0 -1 -1 0
          1 1 0 1 1 0
          -1 -1 0 -1 -1 0
          -1 -1 0 -1 -1 0
          -1 -1 0 -1 -1 0
          -1 -1 0 -1 -1 0
          -1 -1 0 0 1 0
          -1 -1 0 -1 -1 0
          -1 -1 0 -1 -1 0
          -1 -1 0 0 1 0
          -1 -1 0 -1 -1 0
          -1 -1 0 -1 -1 0
          1 1 0 0 1 0
          1 1 0 1 1 0
          1 1 0 1 1 0
          -1 -1 0 1 1 0
          -1 -1 0 -1 -1 0
          -1 -1 0 -1 -1 0
          -1 -1 0 0 1 0
          -1 -1 0 -1 -1 0
          -1 -1 0 1 1 0
          <InformationKey name="L2_NORM_RANGE" location="vtkDataArray" length="2">
            <Value index="0">
              1
            </Value>
            <Value index="1">
              1.4142135624
            </Value>
          </InformationKey>
        </DataArray>
        <DataArray type="Float64" Name="Velocity" NumberOfComponents="3" format="ascii" RangeMin="0" RangeMax="1.514754853476256">
          0.994698840849059 -0.01924155562754291 0 1.0254665553756792 -0.008491015294663494 0
          1.0670361625924614 -0.07580063907097391 0 1.052356342156921 0.011921462736538045 0
          1.0328771213775698 0 0 0.835863011018757 -0.3277011908655165 0
          1.079892352079587 -0.0564137471490978 0 1.2817675845792649 -0.14221937928565936 0
          0 0 0 1.0798498948286328 0.035416100012401946 0
          1.0255662973071493 0 0 1.5145157574398767 0.026912573198972705 0
          0 0 0 0 0 0
          1.080171193755431 0.013774180691194004 0 1.0887936100518467 0.021334081330253635 0
          1.2415363757866231 0.1895436239431332 0 0.9946672460726289 0.357308476929324 0
          0.9790875919348389 0.017647698972964986 0 1.0982983193658236 0.08568096996012103 0
          1.0635961227696047 -0.00024266750527860442 0 1.0440877617571132 0.049050392064019434 0
          1.018173671242302 0.014234161310607117 0 1.0584084815425923 0 0
          1.0420440569362863 0.01949835754814517 0 1.0992815158927316 0.014646997934722173 0
          1.0615083646298844 0.03997591491717926 0 1.1145036831736865 -0.02444392121835452 0
          1.0438990390671912 0.03849241558434647 0 1.0859264981441388 0 0
          0.8859226549132032 0.017041560057730738 0 0.9508956681206029 0.12198538754265933 0
          0.979546963610303 0.10055915877858987 0 0.8689758610882252 0.14905263401928398 0
          1.0000000000004858 0 0 0.820307234204148 0 0
          1.0000000000004858 0 0 1.0000000000004858 0 0
          1.0000000000004858 0 0 0 0 0
          0.9890903794697158 -0.3229260979540441 0 0 0 0
          0.8846661315356374 0.011297350130544814 0 0.9487044768750533 -0.005501045074897074 0
          1.0107076823942083 -0.008442754468451887 0 1.0137654634661586 0.004220955594173042 0
          1.0188738511833795 0.03793242568775037 0 0.951467562963054 0 0
          1.0559087680915336 0.003197178465742559 0 1.1071156083287648 -0.018698754240352007 0
          0.849518286467215 -0.12671313940119971 0 1.0000000000004858 0 0
          <InformationKey name="L2_NORM_RANGE" location="vtkDataArray" length="2">
            <Value index="0">
              0
            </Value>
            <Value index="1">
              1.5147548535
            </Value>
          </InformationKey>
        </DataArray>
        <DataArray type="Float64" Name="Pressure" format="ascii" RangeMin="3.534111567708416" RangeMax="11.642100171949796">
          6.320650903448056 6.481524155872775 7.031943866901587 5.508257142095439 4.489157494317183 7.838493393768128
          7.304355836090234 7.608311502573429 7.744860120013225 6.706319797485094 5.918618205026423 7.8685234620373645
          8.213317864924107 8.450368539512722 7.849587572035273 7.867847295636172 8.219532665364296 8.332835436998623
          8.724140565635151 7.527321991456663 8.228306563618984 8.501103852592133 8.87079354395726 6.792392836644265
          9.493595753513194 8.741681123972205 9.439561880907332 9.00121021560348 10.159132283818266 8.418105336400675
          11.642100171949796 10.522209415479953 9.831223481489197 11.39723567599752 10.945471425942323 9.409167895089155
          10.972525033181475 10.152055225449145 8.911868534258483 8.18133977098517 8.278380765538946 7.7549942324824
          7.389553309395392 6.659197651307382 5.726459526776356 5.594847555125818 4.571042696997672 3.534111567708416
          8.904859350192641 10.165700786532913 11.485780608946847 10.149642567192679
        </DataArray>
        <DataArray type="Float64" Name="Sigma" NumberOfComponents="6" format="ascii" RangeMin="0.00007669022705045048" RangeMax="0.01639134634216758">
          0.00007201116275323556 -0.0001405898780568869 0 0.0001990785170289699 0 0
          -0.0001468497495139297 0.0002547687659867193 0 0.00015985547703747808 0 0
          -0.0019360872071386408 0.0006024268219653968 0 0.0014342599700835647 0 0
          -0.000059794946997398424 0.000009497297851525673 0 0.00004707182354814147 0 0
          -0.00015547688940945547 -0.000133739828545686 0 0.00003414149465161 0 0
          0.011676698488997423 -0.00026271194362591823 0 0.003961190548751955 0 0
          -0.0003498193267448069 0.0007544214681858666 0 -0.0003068629976437641 0 0
          -0.002332366209046232 0.0016273594830263165 0 0.0002785781655233963 0 0
          0.007499861305761963 -0.0012051660423745344 0 0.008701395112813492 0 0
          -0.0002653738113005773 0.00012192407038188345 0 -0.00011863011633026054 0 0
          0.000005385009409479332 -0.00006517816974708294 0 -0.00010907121730363895 0 0
          0.003930117626145573 0.00005136312322539216 0 0.004635576375966656 0 0
          -0.0044067342692789835 0.001420712576273951 0 0.006938229277645378 0 0
          -0.012495348965761764 0.006305662219074357 0 0.00015068689086831957 0 0
          0.00017740730523323642 -0.0004054546470453721 0 -0.0030379584912167577 0 0
          0.00021970967095028235 0.0005291382686447316 0 0.0003734920567851707 0 0
          0.00252916153277896 -0.0020307371043267993 0 0.00012105982793262217 0 0
          -0.006304652311073181 0.0009112895446191208 0 0.003884515796493227 0 0
          -0.0008218638733470125 0.002707087206570797 0 -0.000020521088141152097 0 0
          -0.00019817844396430892 0.00000980377785603574 0 -0.00006505169172609555 0 0
          -0.00015829069709718307 0.0000543763592477542 0 0.0006731156447561898 0 0
          -0.000027487749798059605 -0.000717721264343501 0 0.0005254222625078049 0 0
          0.0009444609361784836 -0.00040440746633232087 0 0.0008181208631416899 0 0
          -0.00023832698907127605 -0.0005201983293338594 0 -0.00017153778281320869 0 0
          -0.00044441213045697415 -0.00019667874801273215 0 -0.00011842055733275976 0 0
          0.00015334334307485055 0.00048088645025405873 0 -0.00006566923294049942 0 0
          0.000018420934653960984 0.0001232812697372877 0 -0.00013553374135357005 0 0
          0.0007745698444663615 -0.000007074230413665578 0 -0.00044524936333778634 0 0
          0.001267961747876655 0.0005730942405719924 0 -0.0004912551412476306 0 0
          0.0008517713819241692 -0.0005401782308087813 0 -0.00001486048711593901 0 0
          -0.0003244666035327227 0.0008196813572384562 0 -0.00001342274740145382 0 0
          0.00029395386271992616 -0.00026078327355132645 0 0.00019979361574141272 0 0
          0.00044754853311837267 -0.00018518856747747845 0 -0.00031259195125563896 0 0
          -0.0011050306946488858 0.00032559838717009413 0 0.00036927080838477594 0 0
          -0.002178749020154349 0.000038370008896175856 0 -0.00020578282513458607 0 0
          -0.0002330696336723053 -0.0002519638221448573 0 -0.000371278060396747 0 0
          -0.0025441842699668806 0.0000938579246995233 0 0.0002619872998500655 0 0
          -0.0015108615117301963 -0.00032992014172468005 0 0.0003969624384970199 0 0
          -0.0019617704595277998 0.00032197219745919544 0 0.000015656340501152055 0 0
          -0.004105553147272926 0.0017913738858868404 0 -0.007837830813020948 0 0
          -0.006772482481501682 0.0007793674536693589 0 -0.0034011391379123734 0 0
          0.015453516768139733 -0.005459591696030726 0 -0.00024065103022226895 0 0
          0.004051621446562533 -0.0037426098744763876 0 -0.000205647691459401 0 0
          0.0004882171928207221 -0.00040745481271741314 0 1.7894813489826878e-7 0 0
          0.0003033846706674939 -0.00005973789146467314 0 -0.00007704905603289211 0 0
          0.000003205806044128396 0.00015542063208325325 0 0.00014815200674379064 0 0
          -0.0002584091631508274 -0.00002274844394081885 0 0.000009615859274026455 0 0
          -0.0001812893133507886 -0.00004953920855196288 0 -0.00006840756613816408 0 0
          0.00021376387465276255 -0.00023786046238848842 0 -0.001156101404623244 0 0
          0.0017109225418909975 0.00044441149753280843 0 0.00029821194077798817 0 0
          -0.0003645461916318797 0.00017556414103432028 0 -0.0001803353756222341 0 0
          -0.0020091198424601053 -0.00024958138131931 0 -0.0002580078074088597 0 0
          <InformationKey name="L2_NORM_RANGE" location="vtkDataArray" length="2">
            <Value index="0">
              7.669022705e-05
            </Value>
            <Value index="1">
              0.016391346342
            </Value>
          </InformationKey>
        </DataArray>
      </PointData>
      <CellData>
        <DataArray type="UInt8" Name="vtkGhostType" format="ascii" RangeMin="0" RangeMax="1">
          1 0 0 1 0 0
          1 0 0 0 0 0
          1 0 0 1 0 0
          0 0 0 1 1 0
          1 0 1 0 1 1
          0 1 1 0 0 1
          0 0 0 1 0 0
          0 0 1 0 0 0
          0 0 0 0 0 0
          1 1 0 0 0 1
          0 0 0 0 0 0
          0 0 0 0 0 0
          1 1 0 0 0
        </DataArray>
        <DataArray type="Float64" Name="Velocity_SGS" NumberOfComponents="3" format="ascii" RangeMin="0" RangeMax="0.12173025956993246">
          6.9201299699268e-310 6.9201299699268e-310 4.6385500660171e-310 0.046262920793443574 -0.0337564713927374 0
          0.0011060579639740882 -0.008752336822510389 0 0.04688373186951046 0.032596461541745524 0
          -0.03682500790691014 0.03161236577075673 0 0.05583383921184852 0.007190840537807115 0
          0.10513428334184072 0.06135991004850548 0 -0.05629924370315357 -0.0015586702313162015 0
          -0.0783331168203836 0.006598070220975638 0 -0.04384050664189798 0.01324927387354979 0
          -0.07414573572553985 0.05148612727981737 0 0.0396320167737311 -0.011665024414155557 0
          0.053004257359697216 0.005948699632631088 0 0.02392829467128355 -0.05980939792097255 0
          0.01488434855171764 -0.013644884482262417 0 -0.004181095408713349 0.006133299219257605 0
          0.0020683025059678554 0.010477705910709682 0 -0.02065628579343376 -0.00125285591739672 0
          -0.001924717973784124 0.0034565522568812497 0 0.0033915984234576535 -0.0058811167483328024 0
          0.0009456861293942521 0.0031969505508947817 0 0.00008316782926439401 0.00283238083565059 0
          0.0005935495742324811 0.002923156602252305 0 -0.002941901779940759 -0.00002179012165573512 0
          -0.0010471809349195554 0.001321604661903993 0 0.0002917307546455376 -0.00005232041112102721 0
          0.0007520266052872969 0.0003261316919552609 0 -0.000052253764544116644 -0.002282088622618384 0
          0.001487332988793978 0.007517769815325486 0 -0.0004984387334165824 -0.0001797243589763882 0
          -0.00008251510361041996 -0.0019794213883170112 0 0.0003989720210414451 0.0011569514106724646 0
          0.0009962373335865337 -0.002127058157983192 0 0.005785840356171284 0.0000733109981633731 0
          0.002523249418567548 -0.0008335455890573276 0 0.00015779614970836764 0.0005786812592112376 0
          0.07513624060148469 -0.0016423721222928551 0 0.06043531244848183 -0.007395130388379222 0
          -0.04762536746826445 -0.06033480929116314 0 -0.04288737684579904 -0.01958194214281094 0
          -0.058445275259636074 0.06510589769965947 0 0.0032316044068497205 0.012291316895628667 0
          0.017996549980195686 0.0018854531438588368 0 0.016174812093914907 0.007054350966383539 0
          -0.00595791251764837 0.005857441590160381 0 -0.0015910772198522907 -0.011312948963655955 0
          -0.01648508729648615 -0.020745390734265626 0 -0.003278995382056947 -0.006506850503125513 0
          0.018373437695367322 0.003992197828899867 0 0.00819494028634235 -0.002872602322017579 0
          -0.013739311925592752 -0.006103631351791064 0 0.006659263180133869 0.009620441035969068 0
          0.004861794876717435 -0.00817955029838347 0 0.011325459799971863 -0.0044384723367034695 0
          -0.021700576619914685 0.00890508168631335 0 0.02072185001388909 -0.009368486380884083 0
          -0.012122988922944004 0.005501515407011397 0 -0.004016994003603866 -0.0018418693608890481 0
          -0.005172683742159767 -0.0004368400891818344 0 -0.01302724396074324 0.005604578681317182 0
          -0.033255190314082805 -0.0018620357084527788 0 0.0013636835499224694 -0.0034879201927966513 0
          0.0006219067308110467 -0.007793929226271919 0 -0.014815796202852154 0.009093249845645857 0
          0.0007266561255556631 -0.001331901773172764 0 -0.003308957078444752 0.004098950571061836 0
          0.03229385270423052 -0.0022086846170135785 0 -0.009103080613678158 0.008845940526794967 0
          0.001593696046372983 0.0008323901744293659 0 -0.012294699931877805 0.012388367363760373 0
          -0.01941371664663813 0.0004895247320268307 0 0.008202730133926237 -0.00763142702832262 0
          0.028276090835343687 -0.00026552523463053686 0 0.019258945522160547 0.0060514284360656395 0
          0.03063581220174514 0.01311171545644033 0 0.01832358098384699 -0.009267380043767565 0
          0.02909281084843122 -0.01540113118929713 0 0.02426125284504727 -0.015320333097976424 0
          <InformationKey name="L2_NORM_RANGE" location="vtkDataArray" length="2">
            <Value index="0">
              0
            </Value>
            <Value index="1">
              0.12173025957
            </Value>
          </InformationKey>
        </DataArray>
        <DataArray type="Float64" Name="Velocity_SGS2" NumberOfComponents="3" format="ascii" RangeMin="0" RangeMax="1.1095288387722029">
          6.9201299699268e-310 6.9201299699268e-310 4.6385500660171e-310 0.6953970887732271 -0.3035711367336916 0
          1.1089079574004623 0.03711315240082884 0 0.6404222614184018 0.2704289912316857 0
          0.6580595209470194 -0.26485782013681647 0 0.22981394349492132 -0.16936934829444095 0
          0.22009087386793608 0.033643493931567896 0 0.07425603251355145 -0.11055615795184184 0
          0.23914166076126417 0.14749617658300526 0 -0.11248837267558338 -0.024845124855617885 0
          0.18995854340979995 -0.0004123531164800095 0 -0.06365764751195993 0.07784822147044064 0
          -0.1336385215509816 0.0189648251958532 0 -0.02386898244391305 0.032289355442852094 0
          -0.010070994139764984 -0.005229228603860667 0 0.058728339884704 -0.023515037571489157 0
          -0.00934363978601167 -0.008160930171424483 0 -0.002963496870217278 0.000024897967858538393 0
          0.013781051310221486 -0.0035794399402750985 0 -0.0518448446905071 0.015453229910895068 0
          0.03508868415422585 -0.021767051407541083 0 -0.011664357556269753 0.008131405661107103 0
          -0.01684693839268705 0.009719373182105513 0 0.0008082654647210946 0.004122438903520671 0
          -0.18348537677237411 -0.007869819492393746 0 0.049160848098610085 -0.00742817657447197 0
          -0.17256468007800368 0.010664974698364468 0 0.012183337057186099 -0.010170017501488514 0
          0.09870478674474595 0.01464675287337188 0 -0.038653231882914765 0.01230507699214847 0
          -0.17393369786312418 0.0067776035749650765 0 0.14293509158091386 -0.015116249506278224 0
          0.14282617114161492 -0.000784740553711194 0 0.6086644691459 0.00660071621715232 0
          0.6103693727087651 0.022916456757250365 0 0.6627689705014197 0.010747452463124616 0
          0.05621901447405089 -0.102602402249168 0 0.0871950533195346 0.11542868272147297 0
          -0.023471593725314804 -0.027077187746675682 0 -0.07012848333261092 -0.0528562480743604 0
          -0.02005335328470491 0.040540483298590516 0 -0.01538239702114201 0.023542419778522325 0
          -0.006441032558378677 0.010469029932644763 0 -0.02391004784507708 -0.007819607613751072 0
          0.0417257533399176 -0.005012291368207053 0 -0.00895384594089478 -0.027655788761824122 0
          -0.006039440914757888 -0.01513637918159079 0 0.0492450799504008 -0.017678086824151895 0
          -0.02558179458990156 0.012660819088559629 0 0.018721746241069395 0.01620366362162999 0
          0.08481363551372871 0.04821564660991816 0 0.007837082806134606 0.00630754120113797 0
          -0.010441107496319295 0.03326316356114444 0 -0.03234046691972307 0.0032432733015290583 0
          0.039931929933072756 0.0720505912098664 0 -0.030650040916609358 0.01834245935538541 0
          0.053659299259717255 -0.021797295387747773 0 0.01812008070931608 -0.04430965458034919 0
          -0.09075148225733938 0.007987037451603524 0 0.06663129240434976 0.00039159726867937436 0
          0.13115760001701038 0.022435651905900293 0 -0.16178464274336007 -0.02479112126062437 0
          0.20384387032946172 0.028241178424858977 0 0.006111968431055971 -0.12507106616956165 0
          0.11047986667318699 0.10749665946028154 0 -0.11933336597098405 -0.05892070242783499 0
          0.13569075430389096 -0.01407859462908396 0 0.27098545382755546 0.026078847426826233 0
          0.6793307134256705 0.054494909593702574 0 -0.003980200783683073 -0.06655220480326646 0
          0.5190010224623232 0.10733701661319434 0 0.2229146863027026 0.010634650379427069 0
          0.2473233686307143 0.23018561714643154 0 -0.08368080188188914 -0.010612418197546464 0
          0.15438456887915078 -0.05988634677865366 0 -0.06019184655814294 0.05795250332602582 0
          0.11465392006268496 0.04205825887075698 0 -0.13904405924260801 -0.06298694156796666 0
          <InformationKey name="L2_NORM_RANGE" location="vtkDataArray" length="2">
            <Value index="0">
              0
            </Value>
            <Value index="1">
              1.1095288388
            </Value>
          </InformationKey>
        </DataArray>
        <DataArray type="Float64" Name="Velocity_SGS3" NumberOfComponents="3" format="ascii" RangeMin="0" RangeMax="0.002673865021190018">
          6.9201299699268e-310 6.9201299699268e-310 4.6385500660171e-310 0.0022364919271084197 0.00012438340937606055 0
          0.0020310512622641807 0.0003207335888644007 0 0.001808017669139962 -0.00045080766544836444 0
          0.002673744497692758 -0.000025387252730412992 0 -0.0016654357818937358 -0.00022847959426819625 0
          -0.0004823124818302779 0.00006963499020817697 0 -0.0005984644973517437 0.000930827988290717 0
          -0.000013541997769647616 0.00021552537326499077 0 -0.00029269872601948827 0.0006278869281254812 0
          0.00017294219795028224 -0.00040335900654381166 0 -0.0006108553063176683 0.0003269629691735751 0
          -0.0011141684246282093 -0.000672268047716441 0 -0.0012938763607084891 -0.00033972744963459795 0
          0.0006476497493420539 0.00010936128805046979 0 -0.00017133132857745885 -0.00006309895263491824 0
          0.0004482854126897645 0.00045297876480589715 0 0.00021157447880022675 0.00017277946977219455 0
          0.00018921420371655103 -0.0001533977515789777 0 -0.000029601156462277044 -0.000023855016553620753 0
          0.00020486416454433624 0.0003043614789624504 0 -0.00020451123959014768 -0.00019809854421131792 0
          0.0002463210722884916 -0.00011631256222211536 0 -0.00018703843782095703 0.00003169971982231077 0
          0.000021680269801585986 0.00004379180237078569 0 -0.00006645525077394364 0.00010279831488857482 0
          -0.00010202199048806076 -0.000026437724869538614 0 6.657739647914155e-7 0.00001560484432088689 0
          0.000038613231715817545 -0.00000355894310777694 0 0.000010479099093405906 -0.000011165053316799013 0
          -0.00002386492741004676 -0.000013094638664619109 0 0.00003220840903127148 0.000030038264140193258 0
          -0.000013617704735099232 -0.000003213812539223557 0 0.0000014690775493780124 -0.000009652152195712964 0
          0.00001354801020122235 -0.000030533671757583655 0 -0.00002535298199580456 -0.000008777715723547002 0
          -0.001040012587783306 0.0007576555404515751 0 -0.0007985388280608774 -0.0006497217166242461 0
          -0.00044675773868347647 0.00042868588758208194 0 -0.0005606486249655578 -0.0002660117212022353 0
          -0.0005619592003318383 -0.0004136639190941143 0 0.00048282802116018453 -0.00043664261496372263 0
          -0.00003506079929243319 -0.00016014805926072706 0 -0.000044970367865082706 0.0001855725015473844 0
          0.00023041036418762863 -0.0003374376667845679 0 0.0005747461516689786 0.00033585957258145587 0
          0.0005714023208870339 -0.00008412717758372442 0 0.00048797857357311643 0.00005643189699205007 0
          -0.00003273041909630922 0.00013695236084642338 0 -0.00023489562648517303 0.00021093666419037994 0
          -0.0002712332678206276 0.00005706603842958891 0 -0.00006045674264378902 0.00010862650542438293 0
          -0.0000868147303539007 0.00007760912664655911 0 -0.00008339579479968777 0.00012100313529278935 0
          0.00007036650418721667 -0.0001073258935520154 0 -0.0001182730817388604 -0.00020818697959103265 0
          -0.00016319356984624873 -0.00003119673509153169 0 -0.00003923767040130342 -0.00007636220098983357 0
          -0.0000882040634379433 -0.00006640442285903622 0 0.00005769719869374055 -0.0001422185076838445 0
          0.0001538902158776584 0.00008983118441152613 0 -0.00010477460693782329 0.00007816318223767904 0
          0.000040427802676286506 -0.0000756826707556565 0 0.0001690669208961998 -0.00008355087496663564 0
          -0.00001038411906872969 0.000013118719890506655 0 0.00006263034040396634 0.000022807768890037238 0
          0.000267650337473779 2.3152940723354803e-7 0 -0.00003231142018042366 -0.00006939321043224364 0
          -0.00006381794508475541 -0.00006392074304020374 0 -0.000010748225469226412 -0.000052489518106134674 0
          0.00005067093018752264 0.000025829980225696232 0 0.00010776128638708636 -0.00004583156171367888 0
          0.0001679978846930364 -0.0000014346265210545055 0 1.387306144265475e-8 0.000020537080521185226 0
          0.00015777368765178333 -0.0000036848396978749573 0 0.0000028599736170668182 0.000033001318680323224 0
          0.0001330825291934437 0.000005147148433383067 0 0.00003825077470982471 0.0000022971795763929558 0
          <InformationKey name="L2_NORM_RANGE" location="vtkDataArray" length="2">
            <Value index="0">
              0
            </Value>
            <Value index="1">
              0.0026738650212
            </Value>
          </InformationKey>
        </DataArray>
      </CellData>
      <Points>
        <DataArray type="Float32" Name="Points" NumberOfComponents="3" format="ascii" RangeMin="0.800000011920929" RangeMax="9.600275714582546">
          6.099924564361572 0.7551726698875427 0 5.713908672332764 1.5511434078216553 0
          5.287501811981201 0.7392560243606567 0 6.337732315063477 2.693572759628296 0
          7.2727274894714355 4 0 4.789450168609619 0.455789178609848 0
          4.914334297180176 1.5619853734970093 0 4.5937981605529785 0.9171930551528931 0
          4.25 0.4330126941204071 0 5.075174808502197 2.6770246028900146 0
          5.818181991577148 4 0 4 0.911578357219696 0
          3.75 0.4330126941204071 0 3.5 5.794379420720475e-10 0
          4.003536701202393 1.4846373796463013 0 4.304850101470947 2.216280698776245 0
          3.502586603164673 0.9728408455848694 0 3.21055006980896 0.455789178609848 0
          2.9087884426116943 0.055647801607847214 0 4.017580509185791 3.097895622253418 0
          3.513624668121338 2.259860038757324 0 3.104448080062866 1.572829246520996 0
          2.7160346508026123 0.7453813552856445 0 4.363636493682861 4 0
          2.1901140213012695 0.010843842290341854 0 2.996014356613159 2.9170591831207275 0
          2.296038866043091 1.4410018920898438 0 2.5660502910614014 2.144286870956421 0
          1.7997161149978638 0.7087167501449585 0 2.909090995788574 4 0
          1.1272525787353516 -0.07592880725860596 0 1.57744562625885 1.767566442489624 0
          1.9087296724319458 2.9074037075042725 0 0.8291426301002502 0.8281394839286804 0
          0 -0.800000011920929 0 1.454545497894287 4 0
          0 0.800000011920929 0 0 2.4000000953674316 0
          0 4 0 3.75 -0.4330126941204071 0
          3.21055006980896 -0.455789178609848 0 4.5 0 0
          5.091211795806885 -0.055647801607847214 0 5.8098859786987305 -0.010843837633728981 0
          6.693774223327637 0.02548009343445301 0 6.861466884613037 1.2402846813201904 0
          7.45475435256958 2.399545669555664 0 8.727272987365723 4 0
          2.712498188018799 -0.7392560243606567 0 1.9000751972198486 -0.7551726698875427 0
          1.1717199087142944 -1.3240290880203247 0 0 -2.4000000953674316 0
          <InformationKey name="L2_NORM_RANGE" location="vtkDataArray" length="2">
            <Value index="0">
              0.80000001192
            </Value>
            <Value index="1">
              9.6002757146
            </Value>
          </InformationKey>
        </DataArray>
      </Points>
      <Cells>
        <DataArray type="Int64" Name="connectivity" format="ascii" RangeMin="0" RangeMax="51">
          39 13 40 12 8 11
          13 12 17 8 41 5
          11 8 7 17 12 16
          5 41 42 12 11 16
          16 11 14 8 5 7
          7 5 2 11 7 14
          5 42 2 7 2 6
          6 2 1 42 43 2
          7 6 14 1 2 0
          6 1 9 15 14 6
          15 6 9 0 2 43
          0 43 44 9 1 3
          1 0 45 15 9 19
          0 44 45 23 19 9
          3 1 45 3 45 46
          9 3 10 3 46 4
          47 4 46 10 23 9
          4 10 3 40 13 18
          13 17 18 18 17 22
          17 16 22 40 18 48
          18 22 24 16 14 21
          24 22 28 21 14 20
          18 24 48 16 21 22
          20 14 15 28 22 26
          21 20 27 24 28 30
          26 22 21 26 21 27
          27 20 25 30 28 33
          49 48 24 49 24 30
          28 26 31 20 15 19
          26 27 31 49 30 50
          25 20 19 25 19 29
          33 28 31 33 31 37
          27 25 32 30 36 34
          32 25 29 29 19 23
          27 32 31 32 29 35
          32 35 37 35 38 37
          50 30 34 50 34 51
          37 31 32 37 36 33
          33 36 30