<?xml version="1.0"?>
<VTKFile type="UnstructuredGrid" version="0.1" byte_order="LittleEndian" header_type="UInt32" compressor="vtkZLibDataCompressor">
  <UnstructuredGrid>
    <Piece NumberOfPoints="55" NumberOfCells="83">
      <PointData>
        <DataArray type="Float64" Name="nsi_SBC" NumberOfComponents="3" format="ascii" RangeMin="0" RangeMax="0">
          0 0 0 0 0 0
          0 0 0 0 0 0
          0 0 0 0 0 0
          0 0 0 0 0 0
          0 0 0 0 0 0
          0 0 0 0 0 0
          0 0 0 0 0 0
          0 0 0 0 0 0
          0 0 0 0 0 0
          0 0 0 0 0 0
          0 0 0 0 0 0
          0 0 0 0 0 0
          0 0 0 0 0 0
          0 0 0 0 0 0
          0 0 0 0 0 0
          0 0 0 0 0 0
          0 0 0 0 0 0
          0 0 0 0 0 0
          0 0 0 0 0 0
          0 0 0 0 0 0
          0 0 0 0 0 0
          0 0 0 0 0 0
          0 0 0 0 0 0
          0 0 0 0 0 0
          0 0 0 0 0 0
          0 0 0 0 0 0
          0 0 0 0 0 0
          0 0 0
          <InformationKey name="L2_NORM_RANGE" location="vtkDataArray" length="2">
            <Value index="0">
              0
            </Value>
            <Value index="1">
              0
            </Value>
          </InformationKey>
        </DataArray>
        <DataArray type="Float64" Name="nsi_SFIXNO" NumberOfComponents="3" format="ascii" RangeMin="0" RangeMax="1.7320508075688772">
          0 0 0 -1 -1 -1
          0 0 0 -1 -1 -1
          -1 -1 -1 -1 -1 -1
          -1 -1 -1 0 0 0
          -1 -1 -1 -1 -1 -1
          -1 -1 -1 -1 -1 -1
          -1 -1 -1 -1 -1 -1
          -1 -1 -1 -1 -1 -1
          0 0 0 -1 -1 -1
          -1 -1 -1 -1 -1 -1
          0 0 0 -1 -1 -1
          0 0 0 -1 -1 -1
          -1 -1 -1 -1 -1 -1
          0 0 0 -1 -1 -1
          0 0 0 -1 -1 -1
          -1 -1 -1 -1 -1 -1
          -1 -1 -1 -1 -1 -1
          -1 -1 -1 -1 -1 -1
          -1 -1 -1 0 0 0
          -1 -1 -1 0 0 0
          0 0 0 -1 -1 -1
          -1 -1 -1 -1 -1 -1
          -1 -1 -1 0 0 0
          0 0 0 0 0 0
          -1 -1 -1 -1 -1 -1
          -1 -1 -1 -1 -1 -1
          -1 -1 -1 -1 -1 -1
          0 0 0
          <InformationKey name="L2_NORM_RANGE" location="vtkDataArray" length="2">
            <Value index="0">
              0
            </Value>
            <Value index="1">
              1.7320508076
            </Value>
          </InformationKey>
        </DataArray>
        <DataArray type="Float64" Name="nsi_UBC" NumberOfComponents="3" format="ascii" RangeMin="0" RangeMax="1">
          0 0 0 0 0 0
          0 0 0 0 0 0
          0 0 0 0 0 0
          0 0 0 0 0 0
          0 0 0 0 0 0
          0 0 0 0 0 0
          0 0 0 0 0 0
          0 0 0 0 0 0
          0 0 0 0 0 0
          0 0 0 0 0 0
          0 0 0 0 0 0
          0 0 0 0 0 0
          0 0 0 0 0 0
          0 0 0 0 0 0
          0 0 0 0 0 0
          0 0 0 0 0 0
          0 0 0 0 0 0
          0 0 0 0 0 0
          0 0 0 0 0 0
          0 0 0 1 0 0
          1 0 0 0 0 0
          0 0 0 0 0 0
          0 0 0 0 0 0
          0 0 0 0 0 0
          0 0 0 0 0 0
          0 0 0 0 0 0
          0 0 0 0 0 0
          1 0 0
          <InformationKey name="L2_NORM_RANGE" location="vtkDataArray" length="2">
            <Value index="0">
              0
            </Value>
            <Value index="1">
              1
            </Value>
          </InformationKey>
        </DataArray>
        <DataArray type="Float64" Name="nsi_UFIXNO" NumberOfComponents="3" format="ascii" RangeMin="1" RangeMax="1.4142135623730951">
          0 1 0 -1 -1 0
          0 1 0 -1 -1 0
          -1 -1 0 -1 -1 0
          -1 -1 0 0 1 0
          -1 -1 0 -1 -1 0
          -1 -1 0 -1 -1 0
          -1 -1 0 -1 -1 0
          -1 -1 0 -1 -1 0
          0 1 0 -1 -1 0
          -1 -1 0 -1 -1 0
          1 1 0 -1 -1 0
          1 1 0 -1 -1 0
          -1 -1 0 -1 -1 0
          1 1 0 -1 -1 0
          0 1 0 -1 -1 0
          -1 -1 0 -1 -1 0
          -1 -1 0 -1 -1 0
          -1 -1 0 -1 -1 0
          -1 -1 0 0 1 0
          -1 -1 0 1 1 0
          1 1 0 -1 -1 0
          -1 -1 0 -1 -1 0
          -1 -1 0 0 1 0
          1 1 0 1 1 0
          -1 -1 0 -1 -1 0
          -1 -1 0 -1 -1 0
          -1 -1 0 -1 -1 0
          1 1 0
          <InformationKey name="L2_NORM_RANGE" location="vtkDataArray" length="2">
            <Value index="0">
              1
            </Value>
            <Value index="1">
              1.4142135624
            </Value>
          </InformationKey>
        </DataArray>
      </PointData>
      <CellData>
        <DataArray type="UInt8" Name="vtkGhostType" format="ascii" RangeMin="0" RangeMax="1">
          0 0 0 1 1 1
          0 1 1 0 0 1
          0 0 1 0 0 0
          0 0 0 0 0 0
          0 0 0 0 0 0
          0 0 0 0 0 0
          0 0 0 0 0 0
          0 0 0 0 0 0
          0 0 0 0 0 0
          1 0 0 0 0 0
          0 0 0 0 0 0
          0 0 0 0 0 0
          0 0 0 0 0 0
          0 0 0 0 0
        </DataArray>
      </CellData>
      <Points>
        <DataArray type="Float32" Name="Points" NumberOfComponents="3" format="ascii" RangeMin="0.800000011920929" RangeMax="10.939351806969364">
          8.727272987365723 -4 0 7.805444717407227 -1.7921322584152222 0
          7.2727274894714355 -4 0 7.007204532623291 -2.83231782913208 0
          7.1708574295043945 -0.8281394839286804 0 6.674066066741943 -1.5641728639602661 0
          6.693774223327637 0.02548009343445301 0 5.818181991577148 -4 0
          6.200284004211426 -0.7087167501449585 0 5.636225700378418 -2.404327869415283 0
          5.70396089553833 -1.4410018920898438 0 5.8098859786987305 -0.010843837633728981 0
          4.868238925933838 -3.1601128578186035 0 5.283965587615967 -0.7453813552856445 0
          4.895552158355713 -1.572829246520996 0 5.091211795806885 -0.055647801607847214 0
          4.363636493682861 -4 0 4.486375331878662 -2.259860038757324 0
          4.789450168609619 -0.455789178609848 0 4.497413158416748 -0.9728408455848694 0
          4.5 0 0 3.9964635372161865 -1.4846373796463013 0
          4.25 -0.4330126941204071 0 4 -0.911578357219696 0
          3.5827698707580566 -3.0377652645111084 0 3.604036331176758 -2.1961746215820312 0
          3.75 -0.4330126941204071 0 3.4062018394470215 -0.9171930551528931 0
          2.909090995788574 -4 0 3.0856659412384033 -1.5619853734970093 0
          3.21055006980896 -0.455789178609848 0 2.6751792430877686 -2.3456170558929443 0
          2.712498188018799 -0.7392560243606567 0 2.1728320121765137 -3.3025918006896973 0
          2.2860913276672363 -1.5511434078216553 0 1.6973814964294434 -2.3319733142852783 0
          1.9000751972198486 -0.7551726698875427 0 1.454545497894287 -4 0
          1.1717199087142944 -1.3240290880203247 0 0 -4 0
          0 -2.4000000953674316 0 7.773712158203125 0.06892196089029312 0
          8.356465339660645 -0.9738070964813232 0 6.861466884613037 1.2402846813201904 0
          9.158483505249023 -2.108525514602661 0 10.181818008422852 -4 0
          3.5 5.794379420720475e-10 0 4.25 0.4330126941204071 0
          4.789450168609619 0.455789178609848 0 5.287501811981201 0.7392560243606567 0
          6.099924564361572 0.7551726698875427 0 2.9087884426116943 0.055647801607847214 0
          2.1901140213012695 0.010843842290341854 0 1.1272525787353516 -0.07592880725860596 0
          0 -0.800000011920929 0
          <InformationKey name="L2_NORM_RANGE" location="vtkDataArray" length="2">
            <Value index="0">
              0.80000001192
            </Value>
            <Value index="1">
              10.939351807
            </Value>
          </InformationKey>
        </DataArray>
      </Points>
      <Cells>
        <DataArray type="Int64" Name="connectivity" format="ascii" RangeMin="0" RangeMax="54">
          6 8 4 4 8 5
          4 5 1 6 4 41
          41 4 42 6 41 43
          1 5 3 4 1 42
          42 1 44 3 5 9
          1 3 0 44 1 0
          7 2 3 3 2 0
          0 45 44 7 3 9
          20 22 18 26 46 30
          22 26 23 47 20 48
          18 22 19 23 26 27
          48 20 15 20 18 15
          15 18 13 26 30 27
          27 30 32 22 23 19
          19 23 21 18 19 13
          23 27 21 48 15 49
          15 13 11 19 21 14
          27 32 29 11 13 8
          14 21 17 15 11 49
          19 14 13 27 29 21
          8 13 10 17 21 25
          11 8 6 14 17 9
          10 13 14 10 14 9
          50 49 11 50 11 6
          9 17 12 25 21 29
          25 29 31 8 10 5
          17 25 24 10 9 5
          50 6 43 25 31 24
          12 17 24 12 24 16
          9 12 7 16 24 28
          12 16 7 33 28 24
          31 33 24 30 46 51
          30 51 32 29 32 34
          51 52 32 34 32 36
          29 34 31 36 32 52
          36 52 53 31 34 35
          34 36 38 36 53 38
          35 34 38 35 38 40
          31 35 33 33 35 37
          33 37 28 39 37 40
          38 53 54 38 54 40
          35 40 37
        </DataArray>
        <DataArray type="Int64" Name="offsets" format="ascii" RangeMin="3" RangeMax="249">
          3 6 9 12 15 18
          21 24 27 30 33 36
          39 42 45 48 51 54
          57 60 63 66 69 72
          75 78 81 84 87 90
          93 96 99 102 105 108
          111 114 117 120 123 126
          129 132 135 138 141 144
          147 150 153 156 159 162
          165 168 171 174 177 180
          183 186 189 192 195 198
          201 204 207 210 213 216
          219 222 225 228 231 234
          237 240 243 246 249
        </DataArray>
        <DataArray type="UInt8" Name="types" format="ascii" RangeMin="5" RangeMax="5">
          5 5 5 5 5 5
          5 5 5 5 5 5
          5 5 5 5 5 5
          5 5 5 5 5 5
          5 5 5 5 5 5
          5 5 5 5 5 5
          5 5 5 5 5 5
          5 5 5 5 5 5
          5 5 5 5 5 5
          5 5 5 5 5 5
          5 5 5 5 5 5
          5 5 5 5 5 5
          5 5 5 5 5 5
          5 5 5 5 5
        </DataArray>
      </Cells>
    </Piece>
  </UnstructuredGrid>
</VTKFile>
