<?xml version="1.0"?>
<VTKFile type="UnstructuredGrid" version="0.1" byte_order="LittleEndian" header_type="UInt32" compressor="vtkZLibDataCompressor">
  <UnstructuredGrid>
    <Piece NumberOfPoints="49" NumberOfCells="73">
      <PointData>
        <DataArray type="Float64" Name="nsi_SBC" NumberOfComponents="3" format="ascii" RangeMin="0" RangeMax="0">
          0 0 0 0 0 0
          0 0 0 0 0 0
          0 0 0 0 0 0
          0 0 0 0 0 0
          0 0 0 0 0 0
          0 0 0 0 0 0
          0 0 0 0 0 0
          0 0 0 0 0 0
          0 0 0 0 0 0
          0 0 0 0 0 0
          0 0 0 0 0 0
          0 0 0 0 0 0
          0 0 0 0 0 0
          0 0 0 0 0 0
          0 0 0 0 0 0
          0 0 0 0 0 0
          0 0 0 0 0 0
          0 0 0 0 0 0
          0 0 0 0 0 0
          0 0 0 0 0 0
          0 0 0 0 0 0
          0 0 0 0 0 0
          0 0 0 0 0 0
          0 0 0 0 0 0
          0 0 0
          <InformationKey name="L2_NORM_RANGE" location="vtkDataArray" length="2">
            <Value index="0">
              0
            </Value>
            <Value index="1">
              0
            </Value>
          </InformationKey>
        </DataArray>
        <DataArray type="Float64" Name="nsi_SFIXNO" NumberOfComponents="3" format="ascii" RangeMin="0" RangeMax="1.7320508075688772">
          0 0 0 0 0 0
          -1 -1 -1 -1 -1 -1
          0 0 0 -1 -1 -1
          -1 -1 -1 -1 -1 -1
          -1 -1 -1 -1 -1 -1
          0 0 0 -1 -1 -1
          -1 -1 -1 -1 -1 -1
          -1 -1 -1 -1 -1 -1
          -1 -1 -1 0 0 0
          -1 -1 -1 -1 -1 -1
          -1 -1 -1 -1 -1 -1
          -1 -1 -1 -1 -1 -1
          -1 -1 -1 -1 -1 -1
          0 0 0 -1 -1 -1
          0 0 0 -1 -1 -1
          -1 -1 -1 -1 -1 -1
          0 0 0 0 0 0
          -1 -1 -1 -1 -1 -1
          -1 -1 -1 0 0 0
          -1 -1 -1 -1 -1 -1
          0 0 0 -1 -1 -1
          -1 -1 -1 -1 -1 -1
          0 0 0 -1 -1 -1
          -1 -1 -1 -1 -1 -1
          0 0 0
          <InformationKey name="L2_NORM_RANGE" location="vtkDataArray" length="2">
            <Value index="0">
              0
            </Value>
            <Value index="1">
              1.7320508076
            </Value>
          </InformationKey>
        </DataArray>
        <DataArray type="Float64" Name="nsi_UBC" NumberOfComponents="3" format="ascii" RangeMin="0" RangeMax="0">
          0 0 0 0 0 0
          0 0 0 0 0 0
          0 0 0 0 0 0
          0 0 0 0 0 0
          0 0 0 0 0 0
          0 0 0 0 0 0
          0 0 0 0 0 0
          0 0 0 0 0 0
          0 0 0 0 0 0
          0 0 0 0 0 0
          0 0 0 0 0 0
          0 0 0 0 0 0
          0 0 0 0 0 0
          0 0 0 0 0 0
          0 0 0 0 0 0
          0 0 0 0 0 0
          0 0 0 0 0 0
          0 0 0 0 0 0
          0 0 0 0 0 0
          0 0 0 0 0 0
          0 0 0 0 0 0
          0 0 0 0 0 0
          0 0 0 0 0 0
          0 0 0 0 0 0
          0 0 0
          <InformationKey name="L2_NORM_RANGE" location="vtkDataArray" length="2">
            <Value index="0">
              0
            </Value>
            <Value index="1">
              0
            </Value>
          </InformationKey>
        </DataArray>
        <DataArray type="Float64" Name="nsi_UFIXNO" NumberOfComponents="3" format="ascii" RangeMin="1" RangeMax="1.4142135623730951">
          0 1 0 0 1 0
          -1 -1 0 -1 -1 0
          0 1 0 -1 -1 0
          -1 -1 0 -1 -1 0
          -1 -1 0 -1 -1 0
          0 1 0 -1 -1 0
          -1 -1 0 -1 -1 0
          -1 -1 0 -1 -1 0
          -1 -1 0 0 1 0
          -1 -1 0 -1 -1 0
          -1 -1 0 -1 -1 0
          -1 -1 0 -1 -1 0
          -1 -1 0 -1 -1 0
          0 1 0 -1 -1 0
          0 1 0 -1 -1 0
          -1 -1 0 -1 -1 0
          0 1 0 0 1 0
          -1 -1 0 -1 -1 0
          -1 -1 0 0 1 0
          -1 -1 0 -1 -1 0
          0 1 0 -1 -1 0
          -1 -1 0 -1 -1 0
          0 1 0 -1 -1 0
          -1 -1 0 -1 -1 0
          0 1 0
          <InformationKey name="L2_NORM_RANGE" location="vtkDataArray" length="2">
            <Value index="0">
              1
            </Value>
            <Value index="1">
              1.4142135624
            </Value>
          </InformationKey>
        </DataArray>
        <DataArray type="Float64" Name="Velocity" NumberOfComponents="3" format="ascii" RangeMin="0.6391154314748534" RangeMax="1.2587219266722143">
          1.2587219266722143 0 0 0.6391154314748534 0 0
          0.900939407081106 0.02203810317768195 0 0.9962447406048738 0.09372545980988907 0
          1.0886973512071696 0 0 0.9774769900675533 0.1050086703224387 0
          0.8182117321030737 -0.001234406265499718 0 1.0130204740849895 0.023250767176354683 0
          0.6957528466170757 0.0011749362450482381 0 1.0651558477373604 -0.030305558756211978 0
          0.943940373582459 0 0 0.9620654501993205 -0.08443260558018095 0
          1.1665595117261662 -0.0068177886861397925 0 0.9728384438997812 0.026822972212051127 0
          0.7880528053929776 -0.022613254858723137 0 0.9942582512405478 0.01526299436511463 0
          0.9481634930424826 -0.00853982480991429 0 0.9315670187289856 0 0
          1.056593404117157 0.039335944924874106 0 0.9283108630126111 -0.024891325394097597 0
          0.9854916915065958 0.007015729525826699 0 0.9897142976363642 0.016845316538644767 0
          0.9834328865883295 -0.08315355887234889 0 0.9124341344875685 -0.04112038779114458 0
          0.9672407281484747 -0.029627489290275057 0 1.0209532587238592 -0.009891065312464139 0
          1.203692647665471 0 0 1.000967652116974 -0.003714521916267159 0
          0.6600538377400198 0 0 0.9721812158720956 -0.018241486764487395 0
          0.9663088621082749 -0.003766570707239916 0 0.999347362202037 -0.03232544649911194 0
          1.0731779646326114 0 0 0.9767810481594534 0 0
          0.9898845622259366 -0.01699891733775192 0 0.9639494344416031 -0.000619747419360391 0
          0.9807424370261231 0.00556049123977474 0 0.9503739866349772 0 0
          0.9869716593983857 0.003038904323990471 0 0.9928135481428043 0.029608205614832392 0
          0.9400563665742633 0 0 0.9727146320046038 -0.009992126467770618 0
          1.0062118285875794 -0.014941890761414504 0 0.9849643520179743 -0.05640484793396233 0
          0.931844733625769 0 0 0.9943192157506117 -0.013776365826242164 0
          0.9635797003905038 -0.021253824164927444 0 1.0241766368732916 0.007291493408707347 0
          0.9995228290279442 0 0
          <InformationKey name="L2_NORM_RANGE" location="vtkDataArray" length="2">
            <Value index="0">
              0.63911543147
            </Value>
            <Value index="1">
              1.2587219267
            </Value>
          </InformationKey>
        </DataArray>
        <DataArray type="Float64" Name="Pressure" format="ascii" RangeMin="-17.47797460602225" RangeMax="0.7215496130580273">
          -0.03906086438507901 -0.8955182481931377 0.7215496130580273 -1.7130619111613166 -3.815346856183511 0.5688320778175762
          -0.5576091588431895 -5.005836178266089 0.5412226703437338 -4.172675297348885 -6.4941289010871275 0.6247298141634884
          -2.6238036582067337 -6.890527760456948 -0.15038725530045435 -8.372194600418405 -5.54650775950532 -9.076272512251995
          -3.4994678211453447 0.6813610201374146 -8.18116779022767 -9.638026370057853 -1.6912915576885466 -10.997317139825494
          -7.006847382489522 -4.878225905030995 0.029325636620564782 -11.009543758367538 -0.8504904758552406 -9.47354612768521
          -12.314492265984795 -7.79764098284768 -3.7006604290754495 -6.330702264899159 -13.496198372688335 -11.307109002483632
          -13.217262684830697 -9.270846609039722 -15.30312626192946 -13.910323131779412 -11.524579054176511 -15.6197651050268
          -14.654420264346431 -13.204796255914944 -11.085605570347598 -17.47797460602225 -16.73532021044033 -16.103966989566544
          -14.132665880198065
        </DataArray>
        <DataArray type="Float64" Name="Sigma" NumberOfComponents="6" format="ascii" RangeMin="0.00008462040858965385" RangeMax="0.010112479726310892">
          0.009682500803968708 -0.00012431122907740743 0 -0.002914784917368589 0 0
          -0.0005259198846248658 0.0005869131297273955 0 0.0008140189805901282 0 0
          0.0015762014600943241 0.00024331553773169318 0 0.000026428178512705016 0 0
          -0.0017808983131646064 -0.000192568685890469 0 0.0001226421003574608 0 0
          -0.000775993529256564 0.0006144259452160576 0 -0.00012875636385285594 0 0
          0.003176435116364989 -0.0000517064029429954 0 0.00002275497308926399 0 0
          -0.0014780334084035793 -0.00020452811657445185 0 0.000037059260905397356 0 0
          0.0008471343920492536 -0.00003485634943041843 0 0.00003202815670590085 0 0
          -0.000791846813218255 -0.0006918268093081763 0 0.000027162224307763033 0 0
          0.00045348294704501566 -0.0003717893090362151 0 0.00015957388667933598 0 0
          0.00034891175171066505 0.00013488935943698288 0 0.0001408958554197902 0 0
          0.0038800662385104377 -0.0004032503644941778 0 -0.00009380850435152611 0 0
          -0.001607740280062948 0.00048039025419989814 0 0.00005258729298292782 0 0
          -0.00025929616839353865 -0.00011412863192371082 0 -0.0003180550098095777 0 0
          -0.0014989285909198888 -0.0001767440194769883 0 0.000047871102137839456 0 0
          0.00003860514713959461 0.00015058294793339616 0 0.00024486905451214967 0 0
          0.001428625572266265 0.00019276100348858955 0 -0.0000737600732236916 0 0
          0.0003416398754897542 -0.00011725875493386738 0 0.0000880112878518954 0 0
          0.0002629682567160097 -0.00021193205343106593 0 -0.00027571300587456176 0 0
          0.0017434991377812093 0.00030804856554296554 0 0.00010537741698763719 0 0
          -0.0005919667894268435 -0.0002633210038436621 0 -0.000052803538460858484 0 0
          0.00033619362280883547 0.00009849392856963493 0 0.0002300612093190266 0 0
          -0.0017306702203293246 -0.00020982417929473436 0 -0.00024022587332495605 0 0
          0.00026215137758086373 0.00012893268643593962 0 0.00024675745393969015 0 0
          -0.000158122429669653 -0.0001279561035554342 0 0.0003555948927875667 0 0
          0.0007646272198523046 -0.00013491962957624135 0 0.00009157290900480434 0 0
          0.008616698838270122 -0.000052863656851787106 0 0.0024435705923437153 0 0
          0.00006612899829772933 -0.00010200365328159155 0 -0.000006731713164747403 0 0
          -0.0004642264222728992 0.0005495731620814945 0 -0.0008440713280219023 0 0
          0.00015496723219574407 -0.00008168569878470526 0 -0.00011817537898697903 0 0
          -0.00019662973395537302 0.0002828856525074073 0 0.0002470374172916538 0 0
          -0.000020982786848192756 0.0001544779194416702 0 -0.00005814040414297929 0 0
          -0.0009538136785495225 0.0005003840270209661 0 0.00009383637150494049 0 0
          0.0004347682228959262 0.00016128455253742945 0 -0.00006775541873451919 0 0
          -0.0000549220283394242 -0.00006197061273854863 0 -0.000017430648575778327 0 0
          0.00002103927137391349 0.000022043268914037602 0 -0.00017170429360813366 0 0
          -0.00002163559153207579 0.00026043778607757106 0 -0.00004254564738002841 0 0
          0.00024884531057206 0.0001448028078137144 0 -0.00014475706515080174 0 0
          0.00003794853670589171 0.00017871097515718165 0 0.00017655210075702586 0 0
          -0.0003460139267041625 -0.000027951741680037086 0 0.000017922245414150572 0 0
          -0.00023522465723519581 -0.00009274473228720974 0 -0.00007588598192179501 0 0
          0.0006052666581346376 -0.000017260295606181905 0 -0.0000867267770020527 0 0
          0.00006687773943780975 0.00015280075929612185 0 -0.00006850090507223936 0 0
          -0.0006862483674070243 0.00004714351140756151 0 -0.0000891136949908883 0 0
          -0.0006661591229259244 -0.00034222068819868734 0 -0.00010279110428357388 0 0
          -0.0002597590081513705 0.0004420812856872705 0 0.00023591410299366152 0 0
          -0.00012696403439150294 -0.000060172478143176154 0 0.0003843262514504032 0 0
          -0.00010414396140833795 -0.00001725472948964208 0 0.00004064221621374848 0 0
          -0.00018128513597574571 -0.00017027430456219246 0 0.00003320700748552529 0 0
          <InformationKey name="L2_NORM_RANGE" location="vtkDataArray" length="2">
            <Value index="0">
              8.462040859e-05
            </Value>
            <Value index="1">
              0.010112479726
            </Value>
          </InformationKey>
        </DataArray>
      </PointData>
      <CellData>
        <DataArray type="UInt8" Name="vtkGhostType" format="ascii" RangeMin="0" RangeMax="0">
          0 0 0 0 0 0
          0 0 0 0 0 0
          0 0 0 0 0 0
          0 0 0 0 0 0
          0 0 0 0 0 0
          0 0 0 0 0 0
          0 0 0 0 0 0
          0 0 0 0 0 0
          0 0 0 0 0 0
          0 0 0 0 0 0
          0 0 0 0 0 0
          0 0 0 0 0 0
          0
        </DataArray>
        <DataArray type="Float64" Name="Velocity_SGS" NumberOfComponents="3" format="ascii" RangeMin="0" RangeMax="0.11839976148995378">
          6.8999244133658e-310 6.8999244133658e-310 4.6611310657878e-310 0.0013560263872824342 0.0011899158016923815 0
          0.004609133939883417 -0.0007105012481806837 0 0.001905976195087595 0.0028683957600841707 0
          -0.0010035520260126773 -0.0034568832819736554 0 0.0030906812929434196 -0.0017831933461516932 0
          -0.002355836479459938 -0.0006374683928252672 0 0.00035656159531412274 -0.00036659868043164006 0
          -0.0016006137992411952 -0.0016817794969010173 0 0.00041318866243895665 0.002146361198636254 0
          -0.0011530479628394357 0.0014439453509916642 0 0.006689407225900391 -0.0003823924472231984 0
          -0.0010849964884468107 0.0021263027208511887 0 -0.007604612757039541 -0.0032061787070701065 0
          -0.011194940473314876 -0.005011112458951315 0 0.004778224200021462 0.0001628829952810113 0
          -0.019687513345229155 -0.000007861500303926825 0 0.056970558352430395 -0.0004528878874898348 0
          -0.11839938441187109 -0.00029881728183077535 0 0.0021591052344557106 0.0008446900179644591 0
          -0.004759643935335638 0.00039902242873915086 0 0.06182117366698985 -0.0003758639615588242 0
          -0.012551617764636619 0.00029358449871494304 0 -0.10760655235871053 0.0006444213106475283 0
          -0.003062121343339679 -0.00016034495925066304 0 -0.0012587107672055568 -0.0005563366867528277 0
          0.0009716969449885874 0.0005774726906820861 0 0.0016367135665591483 0.0032938195020373023 0
          -0.0015062972090863205 -0.000037966629052530506 0 0.0074368357615672495 0.00018727601973276956 0
          -0.0016740734023912283 -0.0022382938216108437 0 0.01597013764399146 -0.001413073973107185 0
          -0.0006694073775965915 0.004766252048644384 0 0.016662372820095042 0.003430704080351517 0
          -0.005173807577620872 -0.007722578861886779 0 -0.006894355569996673 -0.0067779145513858045 0
          -0.004012809329433231 0.0021781410344746616 0 0.0026706432434574247 -0.00378923614275594 0
          0.0044088113580769235 -0.001369109969208308 0 0.0012618398275089228 0.003321510307634415 0
          -0.0028903049372962274 0.008379030729139852 0 -0.0057998265144800125 0.006689680426186291 0
          -0.006237483870029518 -0.007683040587546916 0 0.020075226020064816 0.004477432563647947 0
          0.005599778562363334 0.005350012602197851 0 0.0035654608827483773 0.0011091349760697737 0
          0.0021411378682601985 -0.0043015218325416025 0 -0.002745358880355727 -0.0023214228752223573 0
          -0.008813458460730051 0.00687784073936744 0 -0.04246170192279215 0.0008326452002636958 0
          0.001851564930413314 -0.007428983391685336 0 -0.0047528444411823155 0.0030699262145323964 0
          -0.0008464111405214697 -0.00063644984667862 0 0.0038169272050613454 -0.0004294477778920356 0
          0.02027099724078106 0.0070469580223818055 0 -0.04344077785509394 -0.0001286062981539603 0
          -0.013474488417551625 -0.006761660600372806 0 0.017227457951307326 -0.0025072111901197325 0
          0.02058430596912194 -0.0015267370025402736 0 0.047948352507844835 0.0013390584429030256 0
          -0.02944143405068655 -0.008606111526904986 0 -0.06966036125108166 0.00308193156469522 0
          -0.03966462608456599 0.008591862979807316 0 0.049054374686347095 -0.004854114278677031 0
          -0.033672415355727424 0.0042256305785754915 0 -0.024919671874023584 -0.008823886789871059 0
          -0.010014532428429809 0.006960455101588556 0 -0.0008767230423398962 0.00133685035070883 0
          -0.00010880779539630702 -0.002454565804079832 0 -0.0014937220327709512 -0.00007203025435125184 0
          -0.000060360888808906 -0.003120999116776528 0 -0.002399747428808284 -0.0006796158106305932 0
          0.0016091029923056628 -0.0032279525680349434 0 0.008069454994135689 0.0001945089562955911 0
          <InformationKey name="L2_NORM_RANGE" location="vtkDataArray" length="2">
            <Value index="0">
              0
            </Value>
            <Value index="1">
              0.11839976149
            </Value>
          </InformationKey>
        </DataArray>
        <DataArray type="Float64" Name="Velocity_SGS2" NumberOfComponents="3" format="ascii" RangeMin="0" RangeMax="0.43303278079313273">
          6.8999244133658e-310 6.8999244133658e-310 4.6611310657878e-310 -0.016805117299688067 0.011305757466820885 0
          0.009603574790690485 0.0026925672763870537 0 0.00881666607772551 -0.004236129905941266 0
          -0.01235627795595165 -0.021301146933857498 0 -0.11068683419537054 0.018916240373310994 0
          0.008748496595702919 -0.001507727106167456 0 0.026256058204756964 -0.0130899209976501 0
          0.010523484933489915 -0.010852409664408015 0 -0.11280889457222337 0.014519408655698599 0
          0.02590891124364177 -0.008812164748022551 0 0.11220381454000028 -0.03062926745928652 0
          -0.03827812804080696 0.031822407957211626 0 -0.0992650290085013 0.0171469813846021 0
          0.0890735051015786 0.0058029981900362924 0 -0.026553628682248743 0.002332991810660634 0
          0.4035916529954402 0.022238610112386016 0 0.38193406243157757 -0.05727929159157078 0
          0.2671701892128583 0.06650100906476032 0 0.3622635995008444 -0.04669942976122121 0
          0.4329683782747745 0.007468109234947446 0 0.38789028502938255 0.05979140421870159 0
          0.38278571163121544 -0.023337952764209687 0 0.2566406250998111 -0.08074038989794857 0
          0.40299358939107943 -0.0006310980916715576 0 0.3883286974638295 0.0018488142077989394 0
          -0.013053760807519573 0.0016605408917610468 0 0.09453757316536127 -0.000619454292940763 0
          -0.004474980186868992 -0.004637791385484205 0 -0.0990675494821629 -0.00003316476942486152 0
          0.032651849070657324 -0.01604480327066407 0 0.017890628947614187 -0.007358474196797419 0
          0.01871841645208604 0.013603908093418226 0 0.01178139179321962 0.0010032952054807639 0
          0.14516166304586509 0.03501268037827708 0 -0.0834003169179936 -0.026995224733809595 0
          0.11632264703260507 -0.01145128295668988 0 0.11593933147000697 0.01805297860588506 0
          -0.0996928939720795 0.00006693704875102165 0 -0.03311090736613864 -0.012568986574781619 0
          0.13449365875713404 -0.03686930661466615 0 -0.09895110760028131 0.03368956314456041 0
          -0.04041717702865892 -0.0024122710163139924 0 -0.028746416551459056 0.027340982029872982 0
          0.24168472203860572 -0.035143883203306206 0 0.10552897679768206 -0.0038175180276777522 0
          0.2100978515097366 0.02724886621977789 0 0.008404715614732067 0.013009872937694188 0
          -0.03748679312440541 0.004417055510301433 0 -0.029620798847348365 0.01697021080313387 0
          0.031149321405731838 -0.021460631624096834 0 0.017093648779585177 0.012941296808189288 0
          -0.10755580586324867 -0.015168831055186335 0 -0.015928909466962005 0.005025694287341671 0
          0.03512911668157168 0.03285268293343751 0 -0.026855792930322947 -0.002163380692637248 0
          -0.011455433191572717 -0.08407799259856864 0 0.035048420852218556 -0.03722177774571852 0
          -0.021392973233183454 -0.008933153379060277 0 0.013001005230666541 -0.07544914914591382 0
          -0.014537416109061035 0.06889769832453743 0 0.13186450569867617 0.003939715381695454 0
          -0.03469202088221178 -0.04812379713539918 0 0.025502949341592432 0.0535585144063686 0
          0.22553949863521008 0.0023791095288511997 0 0.21530961012919753 -0.004044308094989357 0
          -0.008275762905822798 0.05105967936716952 0 0.029466106474856313 -0.00031292658620804634 0
          0.010263249254849314 -0.0073844001612723194 0 -0.020194155163804704 0.007427651229788683 0
          -0.0996889030858003 0.004457449149047515 0 -0.022916774344592068 0.00853793204984761 0
          0.0828364927237217 0.00019684538909284666 0 0.38284667697977837 0.0018753243478878637 0
          <InformationKey name="L2_NORM_RANGE" location="vtkDataArray" length="2">
            <Value index="0">
              0
            </Value>
            <Value index="1">
              0.43303278079
            </Value>
          </InformationKey>
        </DataArray>
        <DataArray type="Float64" Name="Velocity_SGS3" NumberOfComponents="3" format="ascii" RangeMin="0" RangeMax="0.0019555269397618204">
          6.8999244133658e-310 6.8999244133658e-310 4.6611310657878e-310 0.000017698363102624295 -0.000038022025391915346 0
          -0.00004037670391530604 -0.000006547488027063741 0 0.00003604110313546914 0.000023675728894907796 0
          -6.104128228114841e-7 0.00003152455341706175 0 0.00004809718282082362 -2.5475765479825444e-7 0
          -0.000034261261147619266 -0.00004718377032502107 0 0.000011833303307823305 0.000010326796919827826 0
          0.000022601459664949763 0.000052844361574893145 0 0.00001220834576341311 -0.00002276071250262413 0
          0.00007318228485701233 -0.0000027794510431746944 0 0.00009179673300518609 0.0000262550721685971 0
          0.00002831283655692653 0.0000017983168706739619 0 -0.00003784736643696102 -0.000002499550899563607 0
          -0.0000731141291087546 0.000008388546616526604 0 -0.00012754996696286538 -0.00003664950258282996 0
          -0.00013862886550539027 -0.0000920218561831316 0 0.00005495684377015473 -0.00005486663073496153 0
          0.001888295872068086 -0.0005083545137646136 0 0.00011432906471639898 0.00005513708739739256 0
          0.000006845730553744723 0.000005273621684822811 0 0.000026199320663739357 0.00004454922763028153 0
          -0.00017266842467794752 0.00009127286535431674 0 0.0016844631344215466 0.00045969856712789204 0
          0.000020907570849786025 0.00002465332193161343 0 0.0000602546877935521 -0.000011705248744506482 0
          -0.00001668073330095341 0.000008544122294964572 0 0.000029971753156342903 -0.0000035237377435170705 0
          -0.00006861194047565165 0.0000027673381406688134 0 0.000012058558365332248 -0.000011049248256323233 0
          -0.00010453407311345866 -0.000053745157170503535 0 0.00017697785124920406 0.000011274061373533315 0
          0.00010539293591109725 0.00007400586645154016 0 0.00019556558850615668 -0.000015511540098568897 0
          -0.0002619172693261611 -0.00003794973647709895 0 -0.00015519000697863407 -0.0000016188673834325118 0
          -0.000043804473091896715 0.000005414505242501686 0 0.00013791000142100216 0.00001574332843686889 0
          0.00003868465352511535 0.000015805014699521858 0 -0.00013147054480612744 0.00004960609894505307 0
          -0.0002587041562598373 0.000012337364377494773 0 -0.00012496631457236892 -0.000035180110180936876 0
          0.00017919445066987623 -0.000029427881595162203 0 -0.0002792194228364604 0.00003421507575754105 0
          0.0002751062675117632 -0.0000536882396060003 0 0.00012388837946282564 -0.00001161730876045016 0
          0.00026882067918103695 0.00007325934130642314 0 -0.00005941327472511289 -0.000011492298991243093 0
          0.00019210917548721616 0.000026087648713638745 0 -0.00016273736293231719 0.00005107290748544097 0
          0.00007625986957867238 -0.00007347974694904655 0 -0.00007814052717152932 0.00005236652641883116 0
          0.000021213981536128594 -0.000012174934621975938 0 0.0000616297888482002 -0.000011969315491967895 0
          -0.0001255099394323262 -0.00003650503987651361 0 -0.00017871639906292573 -0.00003351453323036866 0
          0.0001568602400141051 1.1980369331221534e-8 0 -0.00007752371105778624 0.000033763500229652875 0
          -0.00026685471559750905 -0.000026784636243260754 0 -0.00014210478017632718 0.000015858826406424442 0
          0.00019625306078801594 -0.00008458426092585545 0 0.0007938978098612044 -0.000049160610620434014 0
          0.0004126759866306087 0.00005545414357726306 0 -0.00018211413673121948 0.000009363462333693978 0
          0.0006938228881634805 0.00005703737680016812 0 0.0004954521707492166 -0.00003420402553060062 0
          0.00018898057695587522 0.000018844130449561534 0 -0.0001417293640274764 0.00015741520684477628 0
          0.000008364139684832084 0.000008016447144634915 0 0.00002411622677011485 -0.000028108936010886077 0
          -0.0000373632512142974 -0.000013491047708917155 0 -0.000005795767962674606 -0.000039081032259719284 0
          -0.00002403791901414334 -9.365221058938725e-7 0 -5.333173050424594e-7 -0.000017081537913211025 0
          <InformationKey name="L2_NORM_RANGE" location="vtkDataArray" length="2">
            <Value index="0">
              0
            </Value>
            <Value index="1">
              0.0019555269398
            </Value>
          </InformationKey>
        </DataArray>
      </CellData>
      <Points>
        <DataArray type="Float32" Name="Points" NumberOfComponents="3" format="ascii" RangeMin="5.920709263879467" RangeMax="16.492422502470642">
          16 -4 0 14.545454025268555 -4 0
          16 -2.4000000953674316 0 13.818181991577148 -2.7009618282318115 0
          13.090909004211426 -4 0 16 -0.800000011920929 0
          14.271505355834961 -1.146686315536499 0 12.363636016845703 -2.7009618282318115 0
          15.047001838684082 0.13715402781963348 0 12.772308349609375 -1.1155608892440796 0
          11.636363983154297 -4 0 16 0.800000011920929 0
          13.547407150268555 0.16641846299171448 0 11.280959129333496 -1.061901330947876 0
          14.588034629821777 1.4168537855148315 0 10.558568954467773 -2.354511022567749 0
          12.049510955810547 0.19002920389175415 0 10.181818008422852 -4 0
          13.090909004211426 1.4019237756729126 0 16 2.4000000953674316 0
          10.582230567932129 0.11868668347597122 0 9.802840232849121 -1.1505086421966553 0
          13.818181991577148 2.7009618282318115 0 9.158483505249023 -2.108525514602661 0
          11.25278377532959 1.451863169670105 0 12.363636016845703 2.7009618282318115 0
          16 4 0 9.092836380004883 0.12193738669157028 0
          14.545454025268555 4 0 9.840368270874023 1.4193470478057861 0
          8.356465339660645 -0.9738070964813232 0 10.909090995788574 2.7009618282318115 0
          13.090909004211426 4 0 11.636363983154297 4 0
          7.773712158203125 0.06892196089029312 0 8.90578556060791 2.2909152507781982 0
          7.956461429595947 1.1881567239761353 0 10.181818008422852 4 0
          6.861466884613037 1.2402846813201904 0 7.45475435256958 2.399545669555664 0
          8.727272987365723 4 0 6.693774223327637 0.02548009343445301 0
          7.1708574295043945 -0.8281394839286804 0 7.805444717407227 -1.7921322584152222 0
          8.727272987365723 -4 0 5.713908672332764 1.5511434078216553 0
          6.099924564361572 0.7551726698875427 0 6.337732315063477 2.693572759628296 0
          7.2727274894714355 4 0
          <InformationKey name="L2_NORM_RANGE" location="vtkDataArray" length="2">
            <Value index="0">
              5.9207092639
            </Value>
            <Value index="1">
              16.492422502
            </Value>
          </InformationKey>
        </DataArray>
      </Points>
      <Cells>
        <DataArray type="Int64" Name="connectivity" format="ascii" RangeMin="0" RangeMax="48">
          41 42 34 34 42 30
          41 34 38 42 43 30
          30 43 23 34 30 27
          36 38 34 36 34 27
          39 36 35 27 30 21
          23 43 44 30 23 21
          21 23 15 15 23 17
          21 15 13 10 4 7
          28 32 22 1 0 2
          44 17 23 33 37 31
          4 1 3 32 33 25
          26 28 19 17 10 15
          37 40 35 35 36 27
          39 35 40 27 21 20
          13 15 7 21 13 20
          20 13 16 16 13 9
          20 16 24 7 4 3
          7 3 9 31 37 35
          25 33 31 25 31 24
          24 31 29 22 32 25
          22 25 18 18 25 24
          22 18 14 3 1 2
          10 7 15 28 22 19
          27 20 29 9 13 7
          16 9 12 24 16 18
          20 24 29 29 31 35
          29 35 27 14 18 12
          12 18 16 22 14 19
          12 9 6 6 9 3
          12 6 8 8 6 5
          8 5 11 8 11 14
          8 14 12 14 11 19
          2 5 6 6 3 2
          45 46 38 46 41 38
          47 45 38 47 38 39
          39 38 36 47 39 48
          40 48 39
        </DataArray>
        <DataArray type="Int64" Name="offsets" format="ascii" RangeMin="3" RangeMax="219">
          3 6 9 12 15 18
          21 24 27 30 33 36
          39 42 45 48 51 54
          57 60 63 66 69 72
          75 78 81 84 87 90
          93 96 99 102 105 108
          111 114 117 120 123 126
          129 132 135 138 141 144
          147 150 153 156 159 162
          165 168 171 174 177 180
          183 186 189 192 195 198
          201 204 207 210 213 216
          219
        </DataArray>
        <DataArray type="UInt8" Name="types" format="ascii" RangeMin="5" RangeMax="5">
          5 5 5 5 5 5
          5 5 5 5 5 5
          5 5 5 5 5 5
          5 5 5 5 5 5
          5 5 5 5 5 5
          5 5 5 5 5 5
          5 5 5 5 5 5
          5 5 5 5 5 5
          5 5 5 5 5 5
          5 5 5 5 5 5
          5 5 5 5 5 5
          5 5 5 5 5 5
          5