<?xml version="1.0"?>
<VTKFile type="UnstructuredGrid" version="0.1" byte_order="LittleEndian" header_type="UInt32" compressor="vtkZLibDataCompressor">
  <UnstructuredGrid>
    <Piece NumberOfPoints="52" NumberOfCells="77">
      <PointData>
        <DataArray type="Float64" Name="nsi_SBC" NumberOfComponents="3" format="ascii" RangeMin="0" RangeMax="0">
          0 0 0 0 0 0
          0 0 0 0 0 0
          0 0 0 0 0 0
          0 0 0 0 0 0
          0 0 0 0 0 0
          0 0 0 0 0 0
          0 0 0 0 0 0
          0 0 0 0 0 0
          0 0 0 0 0 0
          0 0 0 0 0 0
          0 0 0 0 0 0
          0 0 0 0 0 0
          0 0 0 0 0 0
          0 0 0 0 0 0
          0 0 0 0 0 0
          0 0 0 0 0 0
          0 0 0 0 0 0
          0 0 0 0 0 0
          0 0 0 0 0 0
          0 0 0 0 0 0
          0 0 0 0 0 0
          0 0 0 0 0 0
          0 0 0 0 0 0
          0 0 0 0 0 0
          0 0 0 0 0 0
          0 0 0 0 0 0
          <InformationKey name="L2_NORM_RANGE" location="vtkDataArray" length="2">
            <Value index="0">
              0
            </Value>
            <Value index="1">
              0
            </Value>
          </InformationKey>
        </DataArray>
        <DataArray type="Float64" Name="nsi_SFIXNO" NumberOfComponents="3" format="ascii" RangeMin="0" RangeMax="1.7320508075688772">
          -1 -1 -1 -1 -1 -1
          -1 -1 -1 -1 -1 -1
          0 0 0 -1 -1 -1
          -1 -1 -1 -1 -1 -1
          0 0 0 -1 -1 -1
          0 0 0 -1 -1 -1
          0 0 0 0 0 0
          -1 -1 -1 -1 -1 -1
          -1 -1 -1 -1 -1 -1
          -1 -1 -1 -1 -1 -1
          -1 -1 -1 -1 -1 -1
          -1 -1 -1 0 0 0
          -1 -1 -1 -1 -1 -1
          -1 -1 -1 -1 -1 -1
          -1 -1 -1 0 0 0
          -1 -1 -1 -1 -1 -1
          -1 -1 -1 -1 -1 -1
          0 0 0 0 0 0
          0 0 0 0 0 0
          0 0 0 0 0 0
          -1 -1 -1 0 0 0
          -1 -1 -1 -1 -1 -1
          -1 -1 -1 -1 -1 -1
          -1 -1 -1 0 0 0
          -1 -1 -1 -1 -1 -1
          -1 -1 -1 0 0 0
          <InformationKey name="L2_NORM_RANGE" location="vtkDataArray" length="2">
            <Value index="0">
              0
            </Value>
            <Value index="1">
              1.7320508076
            </Value>
          </InformationKey>
        </DataArray>
        <DataArray type="Float64" Name="nsi_UBC" NumberOfComponents="3" format="ascii" RangeMin="0" RangeMax="1">
          0 0 0 0 0 0
          0 0 0 0 0 0
          0 0 0 0 0 0
          0 0 0 0 0 0
          0 0 0 0 0 0
          0 0 0 0 0 0
          0 0 0 0 0 0
          0 0 0 0 0 0
          0 0 0 0 0 0
          0 0 0 0 0 0
          0 0 0 0 0 0
          0 0 0 0 0 0
          0 0 0 0 0 0
          0 0 0 0 0 0
          0 0 0 0 0 0
          0 0 0 0 0 0
          0 0 0 0 0 0
          1 0 0 0 0 0
          1 0 0 1 0 0
          1 0 0 0 0 0
          0 0 0 0 0 0
          0 0 0 0 0 0
          0 0 0 0 0 0
          0 0 0 0 0 0
          0 0 0 0 0 0
          0 0 0 1 0 0
          <InformationKey name="L2_NORM_RANGE" location="vtkDataArray" length="2">
            <Value index="0">
              0
            </Value>
            <Value index="1">
              1
            </Value>
          </InformationKey>
        </DataArray>
        <DataArray type="Float64" Name="nsi_UFIXNO" NumberOfComponents="3" format="ascii" RangeMin="1" RangeMax="1.4142135623730951">
          -1 -1 0 -1 -1 0
          -1 -1 0 -1 -1 0
          0 1 0 -1 -1 0
          -1 -1 0 -1 -1 0
          1 1 0 -1 -1 0
          0 1 0 -1 -1 0
          1 1 0 1 1 0
          -1 -1 0 -1 -1 0
          -1 -1 0 -1 -1 0
          -1 -1 0 -1 -1 0
          -1 -1 0 -1 -1 0
          -1 -1 0 0 1 0
          -1 -1 0 -1 -1 0
          -1 -1 0 -1 -1 0
          -1 -1 0 0 1 0
          -1 -1 0 -1 -1 0
          -1 -1 0 -1 -1 0
          1 1 0 0 1 0
          1 1 0 1 1 0
          1 1 0 1 1 0
          -1 -1 0 1 1 0
          -1 -1 0 -1 -1 0
          -1 -1 0 -1 -1 0
          -1 -1 0 0 1 0
          -1 -1 0 -1 -1 0
          -1 -1 0 1 1 0
          <InformationKey name="L2_NORM_RANGE" location="vtkDataArray" length="2">
            <Value index="0">
              1
            </Value>
            <Value index="1">
              1.4142135624
            </Value>
          </InformationKey>
        </DataArray>
        <DataArray type="Float64" Name="Velocity" NumberOfComponents="3" format="ascii" RangeMin="0" RangeMax="1.3917890914402737">
          0.9635797003905038 -0.021253824164927444 0 0.9943192157506117 -0.013776365826242164 0
          1.0548239860642725 -0.1305046444641074 0 1.0241766368732916 0.007291493408707347 0
          0.9995228290279442 0 0 0.645550865821923 -0.3179197923371766 0
          1.05414160465923 -0.07014350772831993 0 1.3202047692013363 -0.16712626047869636 0
          0 0 0 1.0600021844639358 0.0309273695422061 0
          1.0028371874589184 0 0 1.3908694400980592 0.050587307236633884 0
          0 0 0 0 0 0
          1.0932690126869815 0.03610892704176943 0 1.0634935211601706 0.03257682219661797 0
          1.253287924929276 0.2419442456302496 0 0.8487179444640263 0.3710919767958187 0
          0.9395782384676543 0.02055729605787607 0 1.0732577979737883 0.07137638795021077 0
          1.0546326704114333 -0.0038833498467281983 0 1.0061044362855607 0.04006383718547487 0
          1.0117444533326883 0.031028414123025917 0 1.0338616300199852 0 0
          0.982275676031498 0.0072654830549691955 0 1.0747253905894825 0.022870620073918144 0
          1.027080716474349 0.05252089057461964 0 1.0702755299914655 0.00333274341668086 0
          0.9829375729226127 0.05529402592888106 0 1.0451938689750073 0 0
          0.9107570321474432 0.015782322639264573 0 0.9507372265766872 0.1201556834580593 0
          0.9705057458911821 0.09122335111493872 0 0.890435273131228 0.1202826794775128 0
          1.0000000000067752 0 0 0.8397320056782571 0 0
          1.0000000000067752 0 0 1.0000000000067752 0 0
          1.0000000000067752 0 0 0 0 0
          0.8468126205370242 -0.32616744417590315 0 0 0 0
          0.7649018233945881 0.014387249346659924 0 0.8883897692432076 -0.0042591711458033156 0
          0.9727146320046038 -0.009992126467770618 0 0.9869716593983857 0.003038904323990471 0
          0.9928135481428043 0.029608205614832392 0 0.9400563665742633 0 0
          1.066092612388226 0.0026826520440021494 0 1.021915156420148 -0.02431897381359574 0
          0.8691616508834821 -0.10518495862918555 0 1.0000000000067752 0 0
          <InformationKey name="L2_NORM_RANGE" location="vtkDataArray" length="2">
            <Value index="0">
              0
            </Value>
            <Value index="1">
              1.3917890914
            </Value>
          </InformationKey>
        </DataArray>
        <DataArray type="Float64" Name="Pressure" format="ascii" RangeMin="-26.828816360023136" RangeMax="-11.524579054176511">
          -16.73532021044033 -17.47797460602225 -18.502227347334493 -16.103966989566544 -14.132665880198065 -19.90915705153257
          -19.089590377369426 -19.996921218005113 -20.533308439923477 -18.560218843592605 -17.005896903962114 -20.815410501839718
          -20.919756060969014 -21.092659843279677 -20.690792254163814 -20.192128219902425 -21.332117518171504 -21.421782661290866
          -22.099555944151547 -20.58858342998401 -21.614657288822208 -22.350878107097362 -22.950267263666078 -19.69412622298601
          -24.14414314842083 -22.616127928538074 -23.919348288695733 -23.32550252881961 -24.852700749836455 -22.629140843191887
          -26.375207427922746 -25.295149803821836 -24.62747511037994 -26.547335895607688 -26.828816360023136 -24.850994581647317
          -26.777706309803044 -26.464053224383623 -25.289283510241575 -20.879848789823356 -21.395500728611907 -20.05376919192784
          -19.228446278189427 -17.380767001010614 -15.6197651050268 -15.30312626192946 -13.910323131779412 -11.524579054176511
          -23.02812050514691 -24.815268582177538 -26.241319075488374 -26.365583945876683
        </DataArray>
        <DataArray type="Float64" Name="Sigma" NumberOfComponents="6" format="ascii" RangeMin="0.00011311710801796158" RangeMax="0.019137826930875453">
          -0.00012696403439150294 -0.000060172478143176154 0 0.0003843262514504032 0 0
          -0.0002597590081513705 0.0004420812856872705 0 0.00023591410299366152 0 0
          -0.0020985124398109232 0.000774366404005369 0 0.0021077572868453253 0 0
          -0.00010414396140833795 -0.00001725472948964208 0 0.00004064221621374848 0 0
          -0.00018128513597574571 -0.00017027430456219246 0 0.00003320700748552529 0 0
          0.014862261782385554 -0.0004525226081310107 0 0.0054374284880180195 0 0
          -0.0007441993274208002 0.001201678618473288 0 -0.0008576189568812255 0 0
          -0.0018180988019620681 0.0018485189031692414 0 0.0008829115488690574 0 0
          0.00988124845981084 -0.0015497753577518349 0 0.011011154197730374 0 0
          -0.0002854341519698233 0.00012410724168929836 0 -0.00010382781254035024 0 0
          -0.00004219038585820235 -0.00010112154373206362 0 -0.00017250237610040467 0 0
          0.005007768139269189 0.0002318234910551283 0 0.005789132285271048 0 0
          -0.004877655903847752 0.002103123826253107 0 0.008525235653775002 0 0
          -0.014744188869767059 0.008098232017514966 0 0.00015132325556852348 0 0
          0.0003032184083684036 -0.0007318431495147934 0 -0.0037072039566534896 0 0
          0.00024487190660264725 0.0006342529684654457 0 0.0005004076334311848 0 0
          0.0024381211522449867 -0.0026541156616856523 0 0.0008211090965577052 0 0
          -0.007926861454285979 0.001499299342825949 0 0.004820208140202437 0 0
          -0.0019505877389648413 0.0030753523066120265 0 -0.00007729192585866078 0 0
          -0.000239413563163297 -0.000011183975002555227 0 -0.00006965835438334415 0 0
          -0.0001523160482369567 0.00014987065687279257 0 0.0009170437989653112 0 0
          0.00021238385573452907 -0.0009515517487442142 0 0.0004586643883126496 0 0
          0.0011962198197580894 -0.0004098096975024051 0 0.000990149261841614 0 0
          -0.00027813774664405395 -0.0007016002775421425 0 -0.00026588000118223223 0 0
          -0.0001269983382403821 -0.000181713209810989 0 -0.00016692156097766877 0 0
          0.0002816126781424979 0.0005689731265255268 0 -0.00017259415420308396 0 0
          0.000024762590685613114 0.00018946129283521903 0 -0.00030051935804483576 0 0
          0.0008092113622854617 0.000055476659413711205 0 -0.0005762293271462688 0 0
          0.0013177396414359008 0.0008116572239576979 0 -0.000576350252670126 0 0
          0.0009904308241697906 -0.0007243761666978765 0 -0.0000689879295866101 0 0
          -0.00007014661551344874 0.0010321369643401823 0 0.000027219389319064645 0 0
          0.0005559443978459184 -0.00031038045702941824 0 0.00019396187008941993 0 0
          0.0008034432328075915 -0.0003253494091019944 0 -0.0003608838074113164 0 0
          -0.0007255095936201096 0.00041947347936829795 0 0.0004673895496085691 0 0
          -0.002131258859737048 0.00002755826318611135 0 -0.0002497736417166328 0 0
          -0.00009689660906597818 -0.00034761086882069235 0 -0.0003889956688938575 0 0
          -0.002398256617163271 0.00009022435301460731 0 0.00035522641229340085 0 0
          -0.0014730977838186058 -0.00040289181210419314 0 0.00047811676811064453 0 0
          -0.002006265965299029 0.0004295540338723791 0 -0.000007786588850681079 0 0
          -0.004324757538249253 0.0026353096361504216 0 -0.009623520880856629 0 0
          -0.008687658766892028 0.001244778862443121 0 -0.004243653351155557 0 0
          0.017967728697224915 -0.006584126419441547 0 -0.00025772929960292206 0 0
          0.007705260350374255 -0.004816668169432725 0 -0.0002729766106047039 0 0
          0.000327315697955054 -0.0008551820723530942 0 -0.00001784604165914926 0 0
          0.0006052666581346376 -0.000017260295606181905 0 -0.0000867267770020527 0 0
          0.00003794853670589171 0.00017871097515718165 0 0.00017655210075702586 0 0
          -0.0003460139267041625 -0.000027951741680037086 0 0.000017922245414150572 0 0
          -0.00023522465723519581 -0.00009274473228720974 0 -0.00007588598192179501 0 0
          0.000476672463842692 -0.00024064879558655352 0 -0.001317716005215721 0 0
          0.001994088313126076 0.0005661954880035577 0 0.00038845997949307705 0 0
          -0.00003572742627997644 0.0002569604497450415 0 -0.00022759009749738764 0 0
          -0.0020225868777343195 -0.00030511732851439016 0 -0.00030330501494752095 0 0
          <InformationKey name="L2_NORM_RANGE" location="vtkDataArray" length="2">
            <Value index="0">
              0.00011311710802
            </Value>
            <Value index="1">
              0.019137826931
            </Value>
          </InformationKey>
        </DataArray>
      </PointData>
      <CellData>
        <DataArray type="UInt8" Name="vtkGhostType" format="ascii" RangeMin="0" RangeMax="1">
          1 0 0 1 0 0
          1 0 0 0 0 0
          1 0 0 1 0 0
          0 0 0 1 1 0
          1 0 1 0 1 1
          0 1 1 0 0 1
          0 0 0 1 0 0
          0 0 1 0 0 0
          0 0 0 0 0 0
          1 1 0 0 0 1
          0 0 0 0 0 0
          0 0 0 0 0 0
          1 1 0 0 0
        </DataArray>
        <DataArray type="Float64" Name="Velocity_SGS" NumberOfComponents="3" format="ascii" RangeMin="0.0007653878121119289" RangeMax="Infinity">
          1.7017313553798368e+214 4.370732369173311e-19 1.2950481522633744e+171 0.06120432697938092 -0.050032145222124694 0
          0.0014487468990052798 -0.012950258473038379 0 0.06241461121749467 0.046982979809235936 0
          -0.04883092707297605 0.045479255402048745 0 0.05635910992098786 0.01229027512486731 0
          0.12565316789704378 0.08939255570052285 0 -0.06903286767633846 -0.0037496937659280295 0
          -0.08707704385458531 0.009178324150092489 0 -0.02993745548578853 0.021604656797481123 0
          -0.07848916159769531 0.06775787527842533 0 0.05687285386193987 -0.013836847990204753 0
          0.045785176894807975 0.009990254490326252 0 0.005209808887282737 -0.07695469562428313 0
          0.03075956892589617 -0.017898176474020956 0 -0.006663244430365537 0.0076826564445470515 0
          0.006382560436098493 0.014880251121024302 0 -0.02590644307540579 -0.0011037734139054708 0
          0.00045992171446810996 0.0019612173122664205 0 0.004155464149693601 -0.010527440985481768 0
          0.002508757849181246 0.006860223349125969 0 -0.0029949899847625428 0.0058356429634582405 0
          0.0044005647058486886 0.00004598084880983941 0 -0.006624139867552292 0.0014108300996726292 0
          -0.001097987433269131 0.0028138415811735248 0 -0.0008767230423398962 0.00133685035070883 0
          0.0001039668247799652 0.0007582937440561259 0 -0.00010880779539630702 -0.002454565804079832 0
          0.0023046766548511072 0.010263752665175662 0 -0.0014937220327709512 -0.00007203025435125184 0
          -0.000060360888808906 -0.003120999116776528 0 0.001247163876079524 0.0019102611964685998 0
          0.0016091029923056628 -0.0032279525680349434 0 0.008069454994135689 0.0001945089562955911 0
          0.003917283299780864 -0.001298757907547582 0 0.0006841078658845834 0.0008091547807664129 0
          0.10286628223593759 -0.002813325418477803 0 0.08754337379255156 -0.009888359709328524 0
          -0.039708809078013475 -0.0801723548397705 0 -0.0581874255985163 -0.027940545334017415 0
          -0.05389945554911858 0.09201693076217898 0 -0.0033974181369112047 0.01698416948217345 0
          0.02124378544391928 0.0023710862818542766 0 0.018533105009295812 0.011647703864278214 0
          -0.011435964462788223 0.005515173912098076 0 -0.009907297491689674 -0.01752850575803974 0
          -0.02804149649579319 -0.034710223564324225 0 -0.0021927691898708536 -0.0119810513280913 0
          0.019853892640190742 0.0065868885544022775 0 0.010710228887559627 -0.001028389892393216 0
          -0.013557979162810898 -0.007586191924406105 0 0.012882399628354167 0.01635880434445261 0
          0.00907877505159249 -0.009885897784628228 0 0.013622621669770966 -0.004400152656390892 0
          -0.02400365727355201 0.010903719894736309 0 0.020896660038844005 -0.0156302266722136 0
          -0.010083845739173869 0.008574415321998832 0 -0.006044924905431038 -0.002555286543969659 0
          -0.005384952262141825 -0.0028891730588743417 0 -0.016497774976334676 0.006448936132283857 0
          -0.038601422149695155 -0.0022770344970240754 0 0.002642601306744593 -0.004163962152229236 0
          0.0005091553684099589 -0.011116513615605922 0 -0.016563739450492956 0.012224139659248026 0
          -0.00010318374897379159 -0.002454326262736184 0 -0.004279956712537822 0.00487205198099593 0
          0.03559888636158678 -0.0035490683019737588 0 -0.012220906757952472 0.012826621853049785 0
          0.0013034525056828741 0.0013633728517026176 0 -0.01463243064309192 0.017560663779570405 0
          -0.02623755680706262 0.0010682232396879454 0 0.00827588862580956 -0.012259477430054008 0
          0.033425217052534366 -0.0005729108328838258 0 0.022764049198585434 0.008207758234735293 0
          0.03599882489441092 0.01876854226051912 0 0.023196491730554138 -0.013921206701760502 0
          0.02994681905847954 -0.020144830907538602 0 0.027663310328042492 -0.02077680651842303 0
          <InformationKey name="L2_NORM_RANGE" location="vtkDataArray" length="2">
            <Value index="0">
              0.00076538781211
            </Value>
            <Value index="1">
              inf
            </Value>
          </InformationKey>
        </DataArray>
        <DataArray type="Float64" Name="Velocity_SGS2" NumberOfComponents="3" format="ascii" RangeMin="0" RangeMax="0.8912335740501305">
          6.9201299699379e-310 6.9201299699379e-310 4.63855006405825e-310 0.5454431966605658 -0.27821957823872917 0
          0.8897135643422963 0.05202938534612956 0 0.48003442347804015 0.24635492236879392 0
          0.4985481558125081 -0.21275044126796194 0 0.14885711001254737 -0.13200639470844053 0
          0.20502340186924026 0.03471496489927501 0 0.05624946775125213 -0.04702288276352715 0
          0.16299031572383366 0.11859336586624379 0 -0.03685580739713607 -0.04681506940943241 0
          0.15655918696844126 -0.014645902406852537 0 -0.05098976990538537 0.024699465386686225 0
          -0.06875966505659549 0.0157403475234137 0 -0.024984091273705513 0.01468888967307213 0
          -0.018565094560961535 0.00494437745695234 0 0.04250760041242231 -0.017284260394714528 0
          -0.014813897772249262 -0.020603904930954726 0 0.005235631563473758 -0.01826476042243451 0
          -0.0006070793327265546 -0.0010973050987001932 0 -0.030783090729633145 0.012320501811958297 0
          0.018472047612052896 -0.006517296481470674 0 -0.0010748939177040104 0.004552193397089479 0
          -0.006614994201960167 0.014837657929597134 0 0.00673111347639142 -0.0049979337066302825 0
          -0.1081195004027349 -0.004381171008002989 0 0.029466106474856313 -0.00031292658620804634 0
          -0.08975658061435599 0.009098898154064953 0 0.010263249254849314 -0.0073844001612723194 0
          0.04861965185527356 0.00627035389224263 0 -0.020194155163804704 0.007427651229788683 0
          -0.0996889030858003 0.004457449149047515 0 0.08630626233773944 -0.01089995207438322 0
          0.0828364927237217 0.00019684538909284666 0 0.38284667697977837 0.0018753243478878637 0
          0.37704932954144676 0.008417658428742841 0 0.41134346020170415 0.0003714419358342965 0
          0.029082970233919127 -0.037249064702829245 0 0.04440096579047935 0.04767792166839395 0
          -0.021309507601864165 -0.011862852148489941 0 -0.06349056582159879 0.004870712550607479 0
          -0.03124257261217578 0.02273959878170094 0 -0.029275310704835956 0.045038475363017215 0
          -0.0057905573629536 0.027053868154275483 0 -0.0040243451998425005 -0.023218181369601732 0
          0.025329137994100165 -0.00408906691467777 0 -0.016791287662943275 -0.0440386907830289 0
          -0.015446369987770076 -0.021507982950953058 0 0.01859775868698868 -0.008877655763632914 0
          -0.017756305959968695 0.009532858196610228 0 0.011018412751159501 0.005628829938913187 0
          0.05940457700431027 0.035789416321161525 0 0.016826083136228562 0.006930690556985642 0
          -0.009073975181014656 0.010747398677950437 0 -0.018195270489469596 0.004262813426777142 0
          0.01720022157193184 0.04186932880855828 0 -0.010971880821630925 0.02558551443639422 0
          0.03652950264569721 -0.01718187492413548 0 0.011154925622377269 -0.0219033093856945 0
          -0.04829812110751267 0.004746873030847452 0 0.03774181798751218 -0.00234988783924088 0
          0.08092150788719162 0.012171527146592658 0 -0.0959687474628426 -0.01460432836446195 0
          0.11668107323925303 0.01603048660459105 0 0.0009459759364397764 -0.07617940852436811 0
          0.06553706615142901 0.061168254202572145 0 -0.062126929121714185 -0.030052294042235923 0
          0.09266381800385919 -0.013917265471505805 0 0.1630617644635831 0.01805759631068489 0
          0.4190321627463822 0.029787989343724286 0 -0.005587439483717156 -0.03827740772052102 0
          0.32230231996705805 0.06069349843896757 0 0.15568592455310465 -0.0016336630335176648 0
          0.17131184297806298 0.13379029780336207 0 -0.055266444410821264 -0.008157218138814206 0
          0.1056950465139552 -0.03223854668883294 0 -0.0418232783080309 0.040767176598433215 0
          0.06122954216871128 0.019540038635509575 0 -0.07403249264212086 -0.0307975277991675 0
          <InformationKey name="L2_NORM_RANGE" location="vtkDataArray" length="2">
            <Value index="0">
              0
            </Value>
            <Value index="1">
              0.89123357405
            </Value>
          </InformationKey>
        </DataArray>
        <DataArray type="Float64" Name="Velocity_SGS3" NumberOfComponents="3" format="ascii" RangeMin="0" RangeMax="0.004781943029042359">
          6.9201299699379e-310 6.9201299699379e-310 4.6385500655776e-310 0.004104489944744977 0.0002865979140944857 0
          0.0034373934759504912 0.0006438452052556533 0 0.003234490301576234 -0.0008337979931670204 0
          0.00478186619885986 -0.00002710699556145323 0 -0.00262914073266746 -0.00029575207200791627 0
          -0.0005901211922623804 0.00001825137543668315 0 -0.00038864935268313815 0.0015912802493301568 0
          0.00014985204579446866 0.00024891720167664205 0 -0.0004085214175076033 0.0008821156625278961 0
          0.0002527572523139185 -0.0006351794661817037 0 -0.0011617967732064321 0.0004827393935293628 0
          -0.0017033613365468677 -0.0010448274602500925 0 -0.0021197905031072007 -0.0006152644282212233 0
          0.0009154475102855172 0.00013831800911170202 0 -0.00022502959874299671 -0.00003218107724009694 0
          0.000458035905283096 0.0007701082196159123 0 0.0002688081748553208 0.00027216559698597286 0
          0.0002898483622958339 -0.0002678365967734515 0 0.000013223761804902559 0.0000014269340490077317 0
          0.0003354336662227289 0.00046428369219551414 0 -0.00030084406375584737 -0.0003740079877628805 0
          0.0004950508318373063 -0.00016703661901301857 0 -0.00021446219508054997 0.0000884370245499193 0
          0.000019340456009366943 0.00005600332512161413 0 -0.0001417293640274764 0.00015741520684477628 0
          -0.00017177157053487757 -0.000030728237533428434 0 0.000008364139684832084 0.000008016447144634915 0
          0.00005930668806688139 -0.000009808513632261663 0 0.00002411622677011485 -0.000028108936010886077 0
          -0.0000373632512142974 -0.000013491047708917155 0 0.00004505727029977454 0.00005162609869479615 0
          -0.00002403791901414334 -9.365221058938725e-7 0 -5.333173050424594e-7 -0.000017081537913211025 0
          0.00000876252875367268 -0.000052576855026766605 0 -0.00003830917149227157 -0.000011165805421273779 0
          -0.0014919234527433463 0.0012169415969397023 0 -0.0010838975614217918 -0.0010029795997747865 0
          -0.0007067377363436838 0.0007426682907743649 0 -0.0009793694443152377 -0.0004344902541632344 0
          -0.0010026242143475444 -0.0007361625744698418 0 0.0006581389271301871 -0.0006938814346961323 0
          -0.00015402976019517382 -0.00024326362599186915 0 0.000018695355034562936 0.0002899926191762146 0
          0.00041315315425819246 -0.0005339344251753541 0 0.0008126704848007822 0.0005225596919075611 0
          0.000793635829270055 -0.00004354484451126583 0 0.0007940066389013902 0.00012816968486763247 0
          -0.000008786108786251315 0.00020842995084454583 0 -0.00031779684365864757 0.0003390818097933574 0
          -0.0004099093016054866 0.00010106312626310937 0 -0.00005542321726844988 0.00013285177707641569 0
          -0.00009462820220368896 0.00011996503183095273 0 -0.00013657949189631622 0.00020250645362945044 0
          0.000048750637277846995 -0.00016999930043730608 0 -0.00011622147162579287 -0.0003103580642356367 0
          -0.0002558335219364569 -0.00006152110608293978 0 -0.00007595072844014303 -0.00012190816443806536 0
          -0.0001621405818707872 -0.00012140096378761986 0 0.00006319377643537258 -0.00021170384913505688 0
          0.00019888751400911099 0.0001468958818627525 0 -0.00019666936266033534 0.00012953018001338388 0
          0.00008020668012914109 -0.0001192656221322332 0 0.00021776407841253442 -0.00013748466003499468 0
          -0.000009857057289190777 0.000016185168864230292 0 0.000090416504821392 0.00002610401461876802 0
          0.0004465801981209243 0.000004352152985491688 0 -0.00007046424001843496 -0.00012750391245782395 0
          -0.00011367295377801316 -0.0001204774447634427 0 -0.00004374956515533081 -0.0000882962425253006 0
          0.00006473567274895193 0.0000384711428088153 0 0.00019181897623393696 -0.00007637129158004416 0
          0.00025735437971746825 0.000009552077076955366 0 0.000025791407379463412 0.00003963261275151935 0
          0.0002762161770466453 -0.000003606664723320677 0 0.00003196238885822472 0.00005213575080794993 0
          0.00022235582522937906 0.0000037608209409925174 0 0.00009200048411158304 -0.0000018395356318838654 0
          <InformationKey name="L2_NORM_RANGE" location="vtkDataArray" length="2">
            <Value index="0">
              0
            </Value>
            <Value index="1">
              0.004781943029
            </Value>
          </InformationKey>
        </DataArray>
      </CellData>
      <Points>
        <DataArray type="Float32" Name="Points" NumberOfComponents="3" format="ascii" RangeMin="0.800000011920929" RangeMax="9.600275714582546">
          6.099924564361572 0.7551726698875427 0 5.713908672332764 1.5511434078216553 0
          5.287501811981201 0.7392560243606567 0 6.337732315063477 2.693572759628296 0
          7.2727274894714355 4 0 4.789450168609619 0.455789178609848 0
          4.914334297180176 1.5619853734970093 0 4.5937981605529785 0.9171930551528931 0
          4.25 0.4330126941204071 0 5.075174808502197 2.6770246028900146 0
          5.818181991577148 4 0 4 0.911578357219696 0
          3.75 0.4330126941204071 0 3.5 5.794379420720475e-10 0
          4.003536701202393 1.4846373796463013 0 4.304850101470947 2.216280698776245 0
          3.502586603164673 0.9728408455848694 0 3.21055006980896 0.455789178609848 0
          2.9087884426116943 0.055647801607847214 0 4.017580509185791 3.097895622253418 0
          3.513624668121338 2.259860038757324 0 3.104448080062866 1.572829246520996 0
          2.7160346508026123 0.7453813552856445 0 4.363636493682861 4 0
          2.1901140213012695 0.010843842290341854 0 2.996014356613159 2.9170591831207275 0
          2.296038866043091 1.4410018920898438 0 2.5660502910614014 2.144286870956421 0
          1.7997161149978638 0.7087167501449585 0 2.909090995788574 4 0
          1.1272525787353516 -0.07592880725860596 0 1.57744562625885 1.767566442489624 0
          1.9087296724319458 2.9074037075042725 0 0.8291426301002502 0.8281394839286804 0
          0 -0.800000011920929 0 1.454545497894287 4 0
          0 0.800000011920929 0 0 2.4000000953674316 0
          0 4 0 3.75 -0.4330126941204071 0
          3.21055006980896 -0.455789178609848 0 4.5 0 0
          5.091211795806885 -0.055647801607847214 0 5.8098859786987305 -0.010843837633728981 0
          6.693774223327637 0.02548009343445301 0 6.861466884613037 1.2402846813201904 0
          7.45475435256958 2.399545669555664 0 8.727272987365723 4 0
          2.712498188018799 -0.7392560243606567 0 1.9000751972198486 -0.7551726698875427 0
          1.1717199087142944 -1.3240290880203247 0 0 -2.4000000953674316 0
          <InformationKey name="L2_NORM_RANGE" location="vtkDataArray" length="2">
            <Value index="0">
              0.80000001192
            </Value>
            <Value index="1">
              9.6002757146
            </Value>
          </InformationKey>
        </DataArray>
      </Points>
      <Cells>
        <DataArray type="Int64" Name="connectivity" format="ascii" RangeMin="0" RangeMax="51">
          39 13 40 12 8 11
          13 12 17 8 41 5
          11 8 7 17 12 16
          5 41 42 12 11 16
          16 11 14 8 5 7
          7 5 2 11 7 14
          5 42 2 7 2 6
          6 2 1 42 43 2
          7 6 14 1 2 0
          6 1 9 15 14 6
          15 6 9 0 2 43
          0 43 44 9 1 3
          1 0 45 15 9 19
          0 44 45 23 19 9
          3 1 45 3 45 46
          9 3 10 3 46 4
          47 4 46 10 23 9
          4 10 3 40 13 18
          13 17 18 18 17 22
          17 16 22 40 18 48
          18 22 24 16 14 21
          24 22 28 21 14 20
          18 24 48 16 21 22
          20 14 15 28 22 26
          21 20 27 24 28 30
          26 22 21 26 21 27
          27 20 25 30 28 33
          49 48 24 49 24 30
          28 26 31 20 15 19
          26 27 31 49 30 50
          25 20 19 25 19 29
          33 28 31 33 31 37
          27 25 32 30 36 34
          32 25 29 29 19 23
          27 32 31 32 29 35
          32 35 37 35 38 37