<?xml version="1.0"?>
<VTKFile type="UnstructuredGrid" version="0.1" byte_order="LittleEndian" header_type="UInt32" compressor="vtkZLibDataCompressor">
  <UnstructuredGrid>
    <Piece NumberOfPoints="49" NumberOfCells="73">
      <PointData>
        <DataArray type="Float64" Name="nsi_SBC" NumberOfComponents="3" format="ascii" RangeMin="0" RangeMax="0">
          0 0 0 0 0 0
          0 0 0 0 0 0
          0 0 0 0 0 0
          0 0 0 0 0 0
          0 0 0 0 0 0
          0 0 0 0 0 0
          0 0 0 0 0 0
          0 0 0 0 0 0
          0 0 0 0 0 0
          0 0 0 0 0 0
          0 0 0 0 0 0
          0 0 0 0 0 0
          0 0 0 0 0 0
          0 0 0 0 0 0
          0 0 0 0 0 0
          0 0 0 0 0 0
          0 0 0 0 0 0
          0 0 0 0 0 0
          0 0 0 0 0 0
          0 0 0 0 0 0
          0 0 0 0 0 0
          0 0 0 0 0 0
          0 0 0 0 0 0
          0 0 0 0 0 0
          0 0 0
          <InformationKey name="L2_NORM_RANGE" location="vtkDataArray" length="2">
            <Value index="0">
              0
            </Value>
            <Value index="1">
              0
            </Value>
          </InformationKey>
        </DataArray>
        <DataArray type="Float64" Name="nsi_SFIXNO" NumberOfComponents="3" format="ascii" RangeMin="0" RangeMax="1.7320508075688772">
          0 0 0 0 0 0
          -1 -1 -1 -1 -1 -1
          0 0 0 -1 -1 -1
          -1 -1 -1 -1 -1 -1
          -1 -1 -1 -1 -1 -1
          0 0 0 -1 -1 -1
          -1 -1 -1 -1 -1 -1
          -1 -1 -1 -1 -1 -1
          -1 -1 -1 0 0 0
          -1 -1 -1 -1 -1 -1
          -1 -1 -1 -1 -1 -1
          -1 -1 -1 -1 -1 -1
          -1 -1 -1 -1 -1 -1
          0 0 0 -1 -1 -1
          0 0 0 -1 -1 -1
          -1 -1 -1 -1 -1 -1
          0 0 0 0 0 0
          -1 -1 -1 -1 -1 -1
          -1 -1 -1 0 0 0
          -1 -1 -1 -1 -1 -1
          0 0 0 -1 -1 -1
          -1 -1 -1 -1 -1 -1
          0 0 0 -1 -1 -1
          -1 -1 -1 -1 -1 -1
          0 0 0
          <InformationKey name="L2_NORM_RANGE" location="vtkDataArray" length="2">
            <Value index="0">
              0
            </Value>
            <Value index="1">
              1.7320508076
            </Value>
          </InformationKey>
        </DataArray>
        <DataArray type="Float64" Name="nsi_UBC" NumberOfComponents="3" format="ascii" RangeMin="0" RangeMax="0">
          0 0 0 0 0 0
          0 0 0 0 0 0
          0 0 0 0 0 0
          0 0 0 0 0 0
          0 0 0 0 0 0
          0 0 0 0 0 0
          0 0 0 0 0 0
          0 0 0 0 0 0
          0 0 0 0 0 0
          0 0 0 0 0 0
          0 0 0 0 0 0
          0 0 0 0 0 0
          0 0 0 0 0 0
          0 0 0 0 0 0
          0 0 0 0 0 0
          0 0 0 0 0 0
          0 0 0 0 0 0
          0 0 0 0 0 0
          0 0 0 0 0 0
          0 0 0 0 0 0
          0 0 0 0 0 0
          0 0 0 0 0 0
          0 0 0 0 0 0
          0 0 0 0 0 0
          0 0 0
          <InformationKey name="L2_NORM_RANGE" location="vtkDataArray" length="2">
            <Value index="0">
              0
            </Value>
            <Value index="1">
              0
            </Value>
          </InformationKey>
        </DataArray>
        <DataArray type="Float64" Name="nsi_UFIXNO" NumberOfComponents="3" format="ascii" RangeMin="1" RangeMax="1.4142135623730951">
          0 1 0 0 1 0
          -1 -1 0 -1 -1 0
          0 1 0 -1 -1 0
          -1 -1 0 -1 -1 0
          -1 -1 0 -1 -1 0
          0 1 0 -1 -1 0
          -1 -1 0 -1 -1 0
          -1 -1 0 -1 -1 0
          -1 -1 0 0 1 0
          -1 -1 0 -1 -1 0
          -1 -1 0 -1 -1 0
          -1 -1 0 -1 -1 0
          -1 -1 0 -1 -1 0
          0 1 0 -1 -1 0
          0 1 0 -1 -1 0
          -1 -1 0 -1 -1 0
          0 1 0 0 1 0
          -1 -1 0 -1 -1 0
          -1 -1 0 0 1 0
          -1 -1 0 -1 -1 0
          0 1 0 -1 -1 0
          -1 -1 0 -1 -1 0
          0 1 0 -1 -1 0
          -1 -1 0 -1 -1 0
          0 1 0
          <InformationKey name="L2_NORM_RANGE" location="vtkDataArray" length="2">
            <Value index="0">
              1
            </Value>
            <Value index="1">
              1.4142135624
            </Value>
          </InformationKey>
        </DataArray>
      </PointData>
      <CellData>
        <DataArray type="UInt8" Name="vtkGhostType" format="ascii" RangeMin="0" RangeMax="0">
          0 0 0 0 0 0
          0 0 0 0 0 0
          0 0 0 0 0 0
          0 0 0 0 0 0
          0 0 0 0 0 0
          0 0 0 0 0 0
          0 0 0 0 0 0
          0 0 0 0 0 0
          0 0 0 0 0 0
          0 0 0 0 0 0
          0 0 0 0 0 0
          0 0 0 0 0 0
          0
        </DataArray>
      </CellData>
      <Points>
        <DataArray type="Float32" Name="Points" NumberOfComponents="3" format="ascii" RangeMin="5.920709263879467" RangeMax="16.492422502470642">
          16 -4 0 14.545454025268555 -4 0
          16 -2.4000000953674316 0 13.818181991577148 -2.7009618282318115 0
          13.090909004211426 -4 0 16 -0.800000011920929 0
          14.271505355834961 -1.146686315536499 0 12.363636016845703 -2.7009618282318115 0
          15.047001838684082 0.13715402781963348 0 12.772308349609375 -1.1155608892440796 0
          11.636363983154297 -4 0 16 0.800000011920929 0
          13.547407150268555 0.16641846299171448 0 11.280959129333496 -1.061901330947876 0
          14.588034629821777 1.4168537855148315 0 10.558568954467773 -2.354511022567749 0
          12.049510955810547 0.19002920389175415 0 10.181818008422852 -4 0
          13.090909004211426 1.4019237756729126 0 16 2.4000000953674316 0
          10.582230567932129 0.11868668347597122 0 9.802840232849121 -1.1505086421966553 0
          13.818181991577148 2.7009618282318115 0 9.158483505249023 -2.108525514602661 0
          11.25278377532959 1.451863169670105 0 12.363636016845703 2.7009618282318115 0
          16 4 0 9.092836380004883 0.12193738669157028 0
          14.545454025268555 4 0 9.840368270874023 1.4193470478057861 0
          8.356465339660645 -0.9738070964813232 0 10.909090995788574 2.7009618282318115 0
          13.090909004211426 4 0 11.636363983154297 4 0
          7.773712158203125 0.06892196089029312 0 8.90578556060791 2.2909152507781982 0
          7.956461429595947 1.1881567239761353 0 10.181818008422852 4 0
          6.861466884613037 1.2402846813201904 0 7.45475435256958 2.399545669555664 0
          8.727272987365723 4 0 6.693774223327637 0.02548009343445301 0
          7.1708574295043945 -0.8281394839286804 0 7.805444717407227 -1.7921322584152222 0
          8.727272987365723 -4 0 5.713908672332764 1.5511434078216553 0
          6.099924564361572 0.7551726698875427 0 6.337732315063477 2.693572759628296 0
          7.2727274894714355 4 0
          <InformationKey name="L2_NORM_RANGE" location="vtkDataArray" length="2">
            <Value index="0">
              5.9207092639
            </Value>
            <Value index="1">
              16.492422502
            </Value>
          </InformationKey>
        </DataArray>
      </Points>
      <Cells>
        <DataArray type="Int64" Name="connectivity" format="ascii" RangeMin="0" RangeMax="48">
          41 42 34 34 42 30
          41 34 38 42 43 30
          30 43 23 34 30 27
          36 38 34 36 34 27
          39 36 35 27 30 21
          23 43 44 30 23 21
          21 23 15 15 23 17
          21 15 13 10 4 7
          28 32 22 1 0 2
          44 17 23 33 37 31
          4 1 3 32 33 25
          26 28 19 17 10 15
          37 40 35 35 36 27
          39 35 40 27 21 20
          13 15 7 21 13 20
          20 13 16 16 13 9
          20 16 24 7 4 3
          7 3 9 31 37 35
          25 33 31 25 31 24
          24 31 29 22 32 25
          22 25 18 18 25 24
          22 18 14 3 1 2
          10 7 15 28 22 19
          27 20 29 9 13 7
          16 9 12 24 16 18
          20 24 29 29 31 35
          29 35 27 14 18 12
          12 18 16 22 14 19
          12 9 6 6 9 3
          12 6 8 8 6 5
          8 5 11 8 11 14
          8 14 12 14 11 19
          2 5 6 6 3 2
          45 46 38 46 41 38
          47 45 38 47 38 39
          39 38 36 47 39 48
          40 48 39
        </DataArray>
        <DataArray type="Int64" Name="offsets" format="ascii" RangeMin="3" RangeMax="219">
          3 6 9 12 15 18
          21 24 27 30 33 36
          39 42 45 48 51 54
          57 60 63 66 69 72
          75 78 81 84 87 90
          93 96 99 102 105 108
          111 114 117 120 123 126
          129 132 135 138 141 144
          147 150 153 156 159 162
          165 168 171 174 177 180
          183 186 189 192 195 198
          201 204 207 210 213 216
          219
        </DataArray>
        <DataArray type="UInt8" Name="types" format="ascii" RangeMin="5" RangeMax="5">
          5 5 5 5 5 5
          5 5 5 5 5 5
          5 5 5 5 5 5
          5 5 5 5 5 5
          5 5 5 5 5 5
          5 5 5 5 5 5
          5 5 5 5 5 5
          5 5 5 5 5 5
          5 5 5 5 5 5
          5 5 5 5 5 5
          5 5 5 5 5 5
          5 5 5 5 5 5
          5
        </DataArray>
      </Cells>
    </Piece>
  </UnstructuredGrid>
</VTKFile>
