<?xml version="1.0"?>
<VTKFile type="UnstructuredGrid" version="0.1" byte_order="LittleEndian" header_type="UInt32" compressor="vtkZLibDataCompressor">
  <UnstructuredGrid>
    <Piece NumberOfPoints="49" NumberOfCells="73">
      <PointData>
        <DataArray type="Float64" Name="nsi_SBC" NumberOfComponents="3" format="ascii" RangeMin="0" RangeMax="0">
          0 0 0 0 0 0
          0 0 0 0 0 0
          0 0 0 0 0 0
          0 0 0 0 0 0
          0 0 0 0 0 0
          0 0 0 0 0 0
          0 0 0 0 0 0
          0 0 0 0 0 0
          0 0 0 0 0 0
          0 0 0 0 0 0
          0 0 0 0 0 0
          0 0 0 0 0 0
          0 0 0 0 0 0
          0 0 0 0 0 0
          0 0 0 0 0 0
          0 0 0 0 0 0
          0 0 0 0 0 0
          0 0 0 0 0 0
          0 0 0 0 0 0
          0 0 0 0 0 0
          0 0 0 0 0 0
          0 0 0 0 0 0
          0 0 0 0 0 0
          0 0 0 0 0 0
          0 0 0
          <InformationKey name="L2_NORM_RANGE" location="vtkDataArray" length="2">
            <Value index="0">
              0
            </Value>
            <Value index="1">
              0
            </Value>
          </InformationKey>
        </DataArray>
        <DataArray type="Float64" Name="nsi_SFIXNO" NumberOfComponents="3" format="ascii" RangeMin="0" RangeMax="1.7320508075688772">
          0 0 0 0 0 0
          -1 -1 -1 -1 -1 -1
          0 0 0 -1 -1 -1
          -1 -1 -1 -1 -1 -1
          -1 -1 -1 -1 -1 -1
          0 0 0 -1 -1 -1
          -1 -1 -1 -1 -1 -1
          -1 -1 -1 -1 -1 -1
          -1 -1 -1 0 0 0
          -1 -1 -1 -1 -1 -1
          -1 -1 -1 -1 -1 -1
          -1 -1 -1 -1 -1 -1
          -1 -1 -1 -1 -1 -1
          0 0 0 -1 -1 -1
          0 0 0 -1 -1 -1
          -1 -1 -1 -1 -1 -1
          0 0 0 0 0 0
          -1 -1 -1 -1 -1 -1
          -1 -1 -1 0 0 0
          -1 -1 -1 -1 -1 -1
          0 0 0 -1 -1 -1
          -1 -1 -1 -1 -1 -1
          0 0 0 -1 -1 -1
          -1 -1 -1 -1 -1 -1
          0 0 0
          <InformationKey name="L2_NORM_RANGE" location="vtkDataArray" length="2">
            <Value index="0">
              0
            </Value>
            <Value index="1">
              1.7320508076
            </Value>
          </InformationKey>
        </DataArray>
        <DataArray type="Float64" Name="nsi_UBC" NumberOfComponents="3" format="ascii" RangeMin="0" RangeMax="0">
          0 0 0 0 0 0
          0 0 0 0 0 0
          0 0 0 0 0 0
          0 0 0 0 0 0
          0 0 0 0 0 0
          0 0 0 0 0 0
          0 0 0 0 0 0
          0 0 0 0 0 0
          0 0 0 0 0 0
          0 0 0 0 0 0
          0 0 0 0 0 0
          0 0 0 0 0 0
          0 0 0 0 0 0
          0 0 0 0 0 0
          0 0 0 0 0 0
          0 0 0 0 0 0
          0 0 0 0 0 0
          0 0 0 0 0 0
          0 0 0 0 0 0
          0 0 0 0 0 0
          0 0 0 0 0 0
          0 0 0 0 0 0
          0 0 0 0 0 0
          0 0 0 0 0 0
          0 0 0
          <InformationKey name="L2_NORM_RANGE" location="vtkDataArray" length="2">
            <Value index="0">
              0
            </Value>
            <Value index="1">
              0
            </Value>
          </InformationKey>
        </DataArray>
        <DataArray type="Float64" Name="nsi_UFIXNO" NumberOfComponents="3" format="ascii" RangeMin="1" RangeMax="1.4142135623730951">
          0 1 0 0 1 0
          -1 -1 0 -1 -1 0
          0 1 0 -1 -1 0
          -1 -1 0 -1 -1 0
          -1 -1 0 -1 -1 0
          0 1 0 -1 -1 0
          -1 -1 0 -1 -1 0
          -1 -1 0 -1 -1 0
          -1 -1 0 0 1 0
          -1 -1 0 -1 -1 0
          -1 -1 0 -1 -1 0
          -1 -1 0 -1 -1 0
          -1 -1 0 -1 -1 0
          0 1 0 -1 -1 0
          0 1 0 -1 -1 0
          -1 -1 0 -1 -1 0
          0 1 0 0 1 0
          -1 -1 0 -1 -1 0
          -1 -1 0 0 1 0
          -1 -1 0 -1 -1 0
          0 1 0 -1 -1 0
          -1 -1 0 -1 -1 0
          0 1 0 -1 -1 0
          -1 -1 0 -1 -1 0
          0 1 0
          <InformationKey name="L2_NORM_RANGE" location="vtkDataArray" length="2">
            <Value index="0">
              1
            </Value>
            <Value index="1">
              1.4142135624
            </Value>
          </InformationKey>
        </DataArray>
        <DataArray type="Float64" Name="Velocity" NumberOfComponents="3" format="ascii" RangeMin="0.2949192485928613" RangeMax="1.4209678044948688">
          1.4209678044948688 0 0 0.2949192485928613 0 0
          0.795078673851627 0.007466420925968305 0 0.7223271084341942 0.029571335031865088 0
          0.8459625968947236 0 0 0.9918997002241874 0.08627670008119563 0
          0.5143854334695983 0.014395482990784391 0 0.7015883762938749 0.014259727608144191 0
          0.4218869894091538 0.014878482349631643 0 0.7749668147924154 -0.026364704700452747 0
          0.6792731636238538 0 0 1.0020724932129463 -0.06655865687428923 0
          0.9025370505948178 -0.013065536398636153 0 0.7004660760243457 0.007321179376997525 0
          0.5001249159741278 -0.03020075484403127 0 0.7362843447234878 0.014063708276792328 0
          0.6388575883335377 0.0023554276769117617 0 0.6905770852398215 0 0
          0.7661294675472006 0.04153400113058592 0 0.8149796108886133 -0.01906569688539927 0
          0.731769928183139 0.0039701089317816666 0 0.7092506373099177 0.007166742701346162 0
          0.7213270394876545 -0.025865468233119072 0 0.6817187033782204 -0.01549895166298422 0
          0.7063195830467107 -0.019409106774736815 0 0.7067138157870688 -0.0038804852511650544 0
          1.370979329271812 0 0 0.7154490902329322 -0.004801850055329198 0
          0.3043454615121247 0 0 0.6978049750318871 0.0005200728711052123 0
          0.7110040920542106 0.014612186919850384 0 0.7294075822363585 -0.01786279453995662 0
          0.8327206405452157 0 0 0.6972905435594857 0 0
          0.7107165869268645 -0.015477129345103638 0 0.7054644430703859 -0.006482849465548964 0
          0.7161750094040441 0.0049017155481011114 0 0.6991941963915296 0 0
          0.7120567633503784 -0.008344705304982504 0 0.7225759462461621 0.012700122347277427 0
          0.6871203223586114 0 0 0.7075300799434237 -0.0015846854988821064 0
          0.7235219530853987 0.006139293232677283 0 0.7136333495235208 -0.0254506991584202 0
          0.6857092314213843 0 0 0.7269581332352848 -0.02337180489109813 0
          0.7054463518705656 -0.018470936499607658 0 0.7391544124597897 -0.0019703664921013665 0
          0.7340760070778097 0 0
          <InformationKey name="L2_NORM_RANGE" location="vtkDataArray" length="2">
            <Value index="0">
              0.29491924859
            </Value>
            <Value index="1">
              1.4209678045
            </Value>
          </InformationKey>
        </DataArray>
        <DataArray type="Float64" Name="Pressure" format="ascii" RangeMin="2.5671273758898883" RangeMax="73.38011620743534">
          4.01781872102143 9.795336998566398 2.851860269213638 14.808434505175025 21.23601235850386 2.8332727154845663
          11.020806006401541 25.927160884087563 5.754862657426607 23.24182865170484 31.232774939814327 2.5671273758898883
          17.990616619271645 33.5069936666242 8.910880478238175 38.776568054507706 27.820259686551733 41.56433949033061
          20.929739322105927 2.7486789085305094 38.641385800777336 44.01278426650434 14.74176655071411 48.94984437464492
          33.74362767627012 25.84946717805854 4.0959760987929945 49.089047520473024 9.753385735241272 43.64204260972726
          54.25653637031237 36.44711266648488 21.157129339932297 30.99421317706143 58.48752518304789 50.441033318462594
          57.34947113137273 41.78976922434633 65.11267785044123 60.72821713705516 51.65218346779194 66.14123381373048
          62.82929864786477 58.14157337079824 51.067612391361024 73.38011620743534 70.41411004233639 68.93731281260635
          61.98762886445214
        </DataArray>
        <DataArray type="Float64" Name="Sigma" NumberOfComponents="6" format="ascii" RangeMin="0.000025836735108209735" RangeMax="0.006943245915616124">
          0.006653748629722976 -0.000058314805983593374 0 -0.0019831521375282078 0 0
          0.0000843590671256363 0.00008628791092497591 0 0.00047896556375217854 0 0
          0.0013745522642154141 0.00012402289097054764 0 0.00008566650325046279 0 0
          -0.0008232846757703674 -0.00004933444422187026 0 0.000056103927163461825 0 0
          -0.0005785466655121103 0.00015277904894585344 0 -0.00013744153211174863 0 0
          0.00253484950333545 -0.000005000706448596344 0 -0.000013390605619042234 0 0
          -0.0003157841688590664 0.000038433822842277384 0 -0.00003437543806293542 0 0
          0.000435754024939603 -0.000038270179369688554 0 -0.00004025499427854276 0 0
          0.0006333128402906702 -0.00039146022388454534 0 -0.000001775969375028477 0 0
          0.00012505570922780013 -0.00009744815148412478 0 0.00010652315602818463 0 0
          0.00016336541959455255 0.00006991978562062605 0 0.000039001833464096975 0 0
          0.003179100438872545 -0.00020332753520620214 0 -0.00006879293850348505 0 0
          -0.001162989729047474 0.00011582930415706808 0 0.00004428129446993498 0 0
          -0.00017947170691746546 -0.00003165358892945251 0 -0.00010986482826068212 0 0
          -0.0002371745607521375 0.000027791900028809556 0 0.00009756413945291362 0 0
          -0.00012224515077746126 0.000025479053730613798 0 0.00006274997038212655 0 0
          0.0007533927311628423 0.00010122874125928263 0 -0.000031104774668003565 0 0
          0.000119925192274051 -0.000013158877933241054 0 0.000051557037905751076 0 0
          0.00005708880080984927 -0.00003344736432061776 0 -0.0001700878255424185 0 0
          0.0014620619904528686 0.00014991107828741151 0 -0.00002236109503282106 0 0
          -0.000282888556233578 -0.0000556310974436517 0 -0.000008123037119866098 0 0
          0.00015865452373288515 0.000005054221310999999 0 0.00004104649724283348 0 0
          -0.0008207986690471816 -0.00006004100538525741 0 -0.00010227426316738242 0 0
          0.00011556119160984064 0.00005147336119339511 0 0.00005429977495152896 0 0
          -0.0001720139469676068 -0.00005554289306140057 0 0.00013956178095362025 0 0
          0.00044156810611992707 -0.00006416486293769289 0 0.00008187379435891338 0 0
          0.0061893945381147905 -0.000011418873746609922 0 0.0017768783309285517 0 0
          0.000019683090301061504 -0.000028759500514035105 0 0.0000025506417186057477 0 0
          0.0000798289969147721 0.00009389085965275699 0 -0.0005198356169404603 0 0
          0.00015018956839443713 -0.000021835847228633336 0 -0.00003959592313909494 0 0
          -0.00009298117355696757 0.00004300216197432759 0 0.00003865379486336303 0 0
          -0.00011530653812968834 0.00003872004580369218 0 -0.000026255626605662785 0 0
          -0.0006182060685314964 0.0001172987349756352 0 0.00011473993661359072 0 0
          0.0001999751285327632 0.00005438458317572082 0 -0.000011871522465570924 0 0
          0.000017907809790373798 -0.00007112817507680386 0 -0.000007675790703362335 0 0
          -4.771809022561707e-7 -0.000009551423654957013 0 -0.00002400165589291387 0 0
          -0.000007018488234896202 0.00007763730526331372 0 0.0000021944085400934584 0 0
          0.00010077066374297521 0.00005981632307343914 0 -0.00005712631208290879 0 0
          -0.000004723670776187567 0.00005593997232574675 0 0.0000820812050843619 0 0
          -0.00009429410714421172 -0.0000024057911756835494 0 0.000008920049950394275 0 0
          -0.00008377255433504881 -0.00000394725334267341 0 -0.00003423500361232802 0 0
          0.00004463686789396973 -0.0000621796839924363 0 -0.00003201104211560503 0 0
          0.000046932186601926386 0.000016239890254672744 0 -0.000021829470240202914 0 0
          -0.00016347293535000576 0.00004730653064121811 0 -0.000014068900743305308 0 0
          -0.00021856322429486647 -0.00010134830952904933 0 -0.00002750423700671151 0 0
          -0.00004733415754905507 0.00008775470173274774 0 0.0000689558386235595 0 0
          0.00010946140452456796 -0.0001354106113324842 0 0.0000884969706734945 0 0
          -0.000030253505205202694 0.00003337578904190557 0 0.0000373972689138048 0 0
          -0.00007582025581594596 -0.00004691018233448129 0 0.00001763662758190345 0 0
          <InformationKey name="L2_NORM_RANGE" location="vtkDataArray" length="2">
            <Value index="0">
              2.5836735108e-05
            </Value>
            <Value index="1">
              0.0069432459156
            </Value>
          </InformationKey>
        </DataArray>
      </PointData>
      <CellData>
        <DataArray type="UInt8" Name="vtkGhostType" format="ascii" RangeMin="0" RangeMax="0">
          0 0 0 0 0 0
          0 0 0 0 0 0
          0 0 0 0 0 0
          0 0 0 0 0 0
          0 0 0 0 0 0
          0 0 0 0 0 0
          0 0 0 0 0 0
          0 0 0 0 0 0
          0 0 0 0 0 0
          0 0 0 0 0 0
          0 0 0 0 0 0
          0 0 0 0 0 0
          0
        </DataArray>
        <DataArray type="Float64" Name="Velocity_SGS" NumberOfComponents="3" format="ascii" RangeMin="0" RangeMax="0.05667966630591742">
          6.899924413384e-310 6.899924413384e-310 4.66113106672773e-310 0.00016604459467913375 0.00046925675967579876 0
          0.0005834058195269812 -0.00018180859749373888 0 0.00006813593777722915 0.0010008791424510933 0
          -0.0005289499391340533 -0.0008626198734751514 0 0.00034289221232218167 -0.0005871049406833189 0
          -0.00039962455956840497 -0.0003054182212911985 0 -0.000199193465725632 -0.00039821836371963377 0
          -0.00006300297607100564 -0.00033331721773959694 0 0.00005120419777897227 0.0005276350285836668 0
          0.0004429717392520178 0.000721086311060537 0 0.001050480267731839 -0.00008998458179417532 0
          0.0005457288072408357 0.0006921726355855412 0 -0.0015495948716644646 -0.0006113291782123918 0
          -0.0024564606234921535 -0.0008551786154764858 0 0.0001018233306456464 -0.000037896181396569685 0
          -0.00610531489589042 -0.00008521022202240683 0 0.018723951489451197 -0.00024613269284728457 0
          -0.05667961749172905 -0.00007438777744512288 0 0.00039693299541296366 0.00014026072135565133 0
          -0.0005303316811977748 -0.000039699642988867215 0 0.01958433004939811 0.00004782000348365669 0
          -0.004785398249512065 0.0001995403582434797 0 -0.053244402599591525 0.00015782102147071124 0
          -0.00023369532013732427 0.000027639183636653502 0 -0.00028945337353856397 -0.00004873614404365338 0
          0.00041594490185660113 0.00046360887861683305 0 0.0002813437843253659 0.0006546109394802896 0
          -0.0013337724341094272 -0.00021862372082332405 0 0.002232506763791032 -0.000007123785871709423 0
          -0.0010069582631313941 -0.000418237505303967 0 0.005754368202115223 -0.00039089981670832515 0
          0.0002521248447739287 0.0009769881563602045 0 0.005864719073388661 0.0004601861758961579 0
          -0.0020428522014365857 -0.0007460040677551245 0 -0.002496828323235521 -0.0007025029744357292 0
          -0.001068421071018255 0.0002711468046196537 0 0.001876195652472858 -0.0005619761682822406 0
          0.001814030892322694 -0.000016458654196069343 0 -0.0005621969966523883 0.001097468810822186 0
          -0.0018265094975828352 0.0009684303479830344 0 -0.0025146583840267686 0.0006961185156073996 0
          -0.0013355713293963986 -0.0016779408716885082 0 0.00925663061499989 0.0014793684684472998 0
          -0.0015249046677157925 0.000518451550079677 0 0.0018621477692402687 0.00012789996551119728 0
          -0.002203011890377881 -0.0003265370844843873 0 -0.0013747251855278776 -0.0004561312198167152 0
          -0.002281310219031913 0.0011105650131886745 0 -0.014868229971451275 0.0006421264698164185 0
          0.0007982672609300899 -0.0018824881986809932 0 -0.0018251693234424388 0.0011076288961678615 0
          -0.00011580566939025573 -0.00033659674679974454 0 0.0014817158347247197 -0.0007539040411113785 0
          0.006933026693092858 0.0020854762195259237 0 -0.015032114164424968 0.000358087881300264 0
          -0.0047874875467497115 -0.001131076414705934 0 0.006190101825854782 -0.0009019532777133365 0
          0.00910403077002112 -0.0007065682305238447 0 0.019276576493443824 0.00003516953746250308 0
          -0.01240760118673539 -0.0018890427380966086 0 -0.0412184438864691 0.001487196244289289 0
          -0.019003477981250204 0.0022720872573782124 0 0.02009468829461005 -0.0017294163815891942 0
          -0.021845330431729048 0.0007050345788062759 0 -0.017709360277932393 -0.0019936956749120167 0
          -0.00437782186078949 0.0013006950311260158 0 0.0007012469668484411 -0.0002588843149268255 0
          0.00026169703344586427 -0.0008291220222582312 0 0.0001620088794619173 -0.0003343981426218466 0
          -0.00014530861353500316 -0.0003620162339415395 0 -0.0008477322340347194 -0.0004214967811876396 0
          0.00020507305349376438 -0.0006154405910214224 0 0.0018197898402473127 -0.000015810759672569255 0
          <InformationKey name="L2_NORM_RANGE" location="vtkDataArray" length="2">
            <Value index="0">
              0
            </Value>
            <Value index="1">
              0.056679666306
            </Value>
          </InformationKey>
        </DataArray>
        <DataArray type="Float64" Name="Velocity_SGS2" NumberOfComponents="3" format="ascii" RangeMin="0" RangeMax="0.678506164163">
          6.8999244134053e-310 6.8999244134053e-310 4.66113106731033e-310 -0.023795317519542454 0.010652522127718344 0
          0.016864613646103515 -0.003973311053675833 0 0.0137280273988622 -0.003574673895923582 0
          -0.02155176025724702 -0.008009938477411691 0 -0.1928167301876256 0.022909885802844844 0
          0.013366502482916608 -0.005180945329716523 0 0.053780932780731025 -0.0065433654481025436 0
          0.025185994080041945 -0.007515836631848768 0 -0.1846232312435387 0.009731811034662464 0
          0.05930020457658468 -0.010302738373522649 0 0.212967672260511 -0.02549340166406181 0
          -0.08281592753048453 0.029857193058696274 0 -0.203022484233788 0.018989619563980115 0
          0.12519322634807034 0.003416176102860502 0 -0.04476532558717279 -0.00007194220765656227 0
          0.663271670247134 0.023260113511424367 0 0.6082916113420059 -0.04443617058836674 0
          0.4622087567976926 0.06879911985740972 0 0.632329258798604 -0.03270497277086185 0
          0.6784853041716431 0.005320416365363278 0 0.608975420262414 0.04582684697311667 0
          0.6383905472804153 -0.019182126274648006 0 0.45404003978686175 -0.07979030850499746 0
          0.644724891444978 0.004164658968578888 0 0.6427427051686484 0.0007476199321936605 0
          -0.03994471358841633 0.0027007049244989856 0 0.14978361895908635 0.0019002710161306821 0
          -0.0016556475812822095 -0.008901897673156342 0 -0.1657929757353237 -0.005370994617030977 0
          0.04391737204787423 -0.018143441210334153 0 0.029316136773866394 -0.003435428758590057 0
          0.041629065637625376 0.0348830507063051 0 0.02123409365832119 0.0011906477204450304 0
          0.2126006341898188 0.04855296010207462 0 -0.1507506681903053 -0.030103799862675418 0
          0.1778919634752502 -0.010711583419009374 0 0.17178090007942745 0.017672928661602784 0
          -0.17015829958262804 0.0013230452545269049 0 -0.04619243263516245 -0.008861351917153001 0
          0.20000596546876662 -0.05009091963144156 0 -0.17145341015308246 0.04037905734073438 0
          -0.055873486865633905 0.0023761965339512033 0 -0.07775332099437615 0.034263756181118044 0
          0.37953738559656625 -0.07323980834141113 0 0.17687915581757638 -0.00009078706041530746 0
          0.35697825957257684 0.06866426542818202 0 0.011319529708317691 0.013700418344656268 0
          -0.04691016141285098 -0.0038919720647133914 0 -0.04123600806024871 0.027975165344963436 0
          0.04254092916307392 -0.04012411881142221 0 0.037146118026155514 0.018098816930338033 0
          -0.17052521122012332 -0.014964852098121859 0 -0.03999005543613435 0.0038685976115028064 0
          0.05041249251700474 0.05857224956254146 0 -0.04063853748841673 -0.008823371809377901 0
          -0.00005481776933935478 -0.10476859471295524 0 0.044411743008482725 -0.06696356724265509 0
          -0.0716414954286153 -0.006320573497852066 0 -0.0012805176210716439 -0.08937680482668499 0
          0.014605980845006389 0.11316153272289897 0 0.2837927827967377 0.010073911148725185 0
          -0.018089178266415262 -0.08444412870879688 0 0.015004590026088107 0.0585848088280978 0
          0.40300599593422226 -0.003622479819604391 0 0.4192808703929024 -0.00020448627667921104 0
          0.009920965705218998 0.06259655728983117 0 0.05761452841596145 -0.007853530305584559 0
          0.011690862436477205 -0.0023729524533975693 0 -0.03790827138508545 0.005845867499420079 0
          -0.19079973532438455 -0.0007645293205815018 0 -0.049478654587202464 0.008056539160515314 0
          0.14478580369581132 0.0014936634397822578 0 0.6278887009679555 -0.0006026049501025158 0
          <InformationKey name="L2_NORM_RANGE" location="vtkDataArray" length="2">
            <Value index="0">
              0
            </Value>
            <Value index="1">
              0.67850616416
            </Value>
          </InformationKey>
        </DataArray>
        <DataArray type="Float64" Name="Velocity_SGS3" NumberOfComponents="3" format="ascii" RangeMin="0" RangeMax="0.0005441044285330014">
          6.8999244134053e-310 6.8999244134053e-310 4.6611310676202e-310 0.000019805513846591346 -0.00000639613205879439 0
          -0.0000141576709045945 -8.844745055865971e-7 0 0.00002388009471481857 0.0000037656913112563483 0
          -0.00000836980968382951 0.0000016615890037813001 0 0.000005974568061454337 -0.000004830835388449635 0
          -0.000009981148824218948 -0.0000063888041926490726 0 -7.03694365010607e-7 3.9665274527893176e-7 0
          -2.392639460446549e-7 0.000010644794559984419 0 0.000002647047092772769 -0.000001957317817052134 0
          0.00002054508891102579 0.0000023467540951564925 0 0.000016175944031463217 0.000003834899075943404 0
          0.000013390521511053979 -8.58210774042416e-7 0 -0.000009343035091900167 2.227768801966423e-7 0
          -0.0000213704967203534 0.0000019898592876225413 0 -0.00003280115913231071 -0.000005942238571124597 0
          -0.000039594311653934885 -0.00001950096528483179 0 0.000027739420001534385 -0.00002737314819712777 0
          0.0005255056062817335 -0.0001410442728922085 0 0.00002011049739464969 0.00001019961842475367 0
          0.0000024284535632700463 0.0000024911896860573645 0 0.00002570772677482695 0.00002485271901181837 0
          -0.0000454741672284182 0.000018049971605051557 0 0.00048333603400493397 0.00013260123315895556 0
          0.000002961515905746291 9.361478807115651e-7 0 0.000010052194909549334 -2.74108324024825e-7 0
          -0.000002700893312503196 5.639502664221339e-7 0 0.000002603275239167857 0.000002223996716100445 0
          -0.000014300051102710429 0.0000011989567541150587 0 0.000009834536617699362 -0.000001918584464879622 0
          -0.000027882334523908376 -0.000009298578321591169 0 0.00004636390781017159 7.416556555255009e-7 0
          0.00002764603470024368 0.000016140159951872244 0 0.00005196701266500705 -0.000004015299252319597 0
          -0.00006442937722933414 -0.00000590813862720212 0 -0.00003966561974448123 -0.000001149858660458561 0
          -0.00001344752843357545 -5.125252976554319e-9 0 0.00003836648151052839 0.000005986924603294334 0
          0.000015997137492193052 0.000006245518481212279 0 -0.000037297269083540394 0.000010969440689865218 0
          -0.00006543176320741062 0.0000010746087488016208 0 -0.00003440164852775119 -0.000006271104196639618 0
          0.000043640954199159704 -0.000009984832583610163 0 -0.00006369361489935691 0.000012309453851244459 0
          0.00007294381239504301 -0.000002598543855633155 0 0.000032751577755652 -0.000005008782646000351 0
          0.00007341217297284402 0.000007784621287714143 0 -0.000013586859208175779 -0.0000022482361152668973 0
          0.00004393637786006455 0.000008295364748110319 0 -0.00005906819121318667 0.000009395839594453668 0
          0.000022000056836508803 -0.0000171900318040192 0 -0.000027303505936031344 0.000011300884262817563 0
          0.000006213674744245854 -0.000005314820171564989 0 0.00002267948010542203 -0.0000043428068891418925 0
          -0.000028597601903767832 0.0000012369064978435812 0 -0.00006499360956897543 -0.0000026216722504795546 0
          0.000026871065271213365 -0.000004669739620151195 0 -0.000014595389068640591 -0.0000010012983453622644 0
          -0.000059602169459651826 -0.000008558240891618244 0 -0.000010621961971198193 -0.00000529382033952788 0
          0.000037701336058324496 -0.000024000082007216383 0 0.00018714271859520158 -0.0000117910035939516 0
          0.00010170651038015294 0.00001769523647097016 0 -0.000021830077909172345 0.000009460422429519098 0
          0.0001759079390614811 0.000004800342222996255 0 0.0001293117530675389 -0.0000031028611403783243 0
          0.00003867646449353536 0.00000823853773035652 0 -0.000015562592929198705 0.00004364064146298468 0
          0.0000024009130387324766 0.000007760488628263787 0 0.0000031972336460177275 -8.303015370702625e-7 0
          -0.000008883656780479445 -0.000006319334605903729 0 -0.000001797573409081565 -0.000009611122489919746 0
          -0.000003773755518446819 -0.0000026630956849982884 0 8.639198004228494e-7 -0.000003166011240153578 0
          <InformationKey name="L2_NORM_RANGE" location="vtkDataArray" length="2">
            <Value index="0">
              0
            </Value>
            <Value index="1">
              0.00054410442853
            </Value>
          </InformationKey>
        </DataArray>
      </CellData>
      <Points>
        <DataArray type="Float32" Name="Points" NumberOfComponents="3" format="ascii" RangeMin="5.920709263879467" RangeMax="16.492422502470642">
          16 -4 0 14.545454025268555 -4 0
          16 -2.4000000953674316 0 13.818181991577148 -2.7009618282318115 0
          13.090909004211426 -4 0 16 -0.800000011920929 0
          14.271505355834961 -1.146686315536499 0 12.363636016845703 -2.7009618282318115 0
          15.047001838684082 0.13715402781963348 0 12.772308349609375 -1.1155608892440796 0
          11.636363983154297 -4 0 16 0.800000011920929 0
          13.547407150268555 0.16641846299171448 0 11.280959129333496 -1.061901330947876 0
          14.588034629821777 1.4168537855148315 0 10.558568954467773 -2.354511022567749 0
          12.049510955810547 0.19002920389175415 0 10.181818008422852 -4 0
          13.090909004211426 1.4019237756729126 0 16 2.4000000953674316 0
          10.582230567932129 0.11868668347597122 0 9.802840232849121 -1.1505086421966553 0
          13.818181991577148 2.7009618282318115 0 9.158483505249023 -2.108525514602661 0
          11.25278377532959 1.451863169670105 0 12.363636016845703 2.7009618282318115 0
          16 4 0 9.092836380004883 0.12193738669157028 0
          14.545454025268555 4 0 9.840368270874023 1.4193470478057861 0
          8.356465339660645 -0.9738070964813232 0 10.909090995788574 2.7009618282318115 0
          13.090909004211426 4 0 11.636363983154297 4 0
          7.773712158203125 0.06892196089029312 0 8.90578556060791 2.2909152507781982 0
          7.956461429595947 1.1881567239761353 0 10.181818008422852 4 0
          6.861466884613037 1.2402846813201904 0 7.45475435256958 2.399545669555664 0
          8.727272987365723 4 0 6.693774223327637 0.02548009343445301 0
          7.1708574295043945 -0.8281394839286804 0 7.805444717407227 -1.7921322584152222 0
          8.727272987365723 -4 0 5.713908672332764 1.5511434078216553 0
          6.099924564361572 0.7551726698875427 0 6.337732315063477 2.693572759628296 0
          7.2727274894714355 4 0
          <InformationKey name="L2_NORM_RANGE" location="vtkDataArray" length="2">
            <Value index="0">
              5.9207092639
            </Value>
            <Value index="1">
              16.492422502
            </Value>
          </InformationKey>
        </DataArray>
      </Points>
      <Cells>
        <DataArray type="Int64" Name="connectivity" format="ascii" RangeMin="0" RangeMax="48">
          41 42 34 34 42 30
          41 34 38 42 43 30
          30 43 23 34 30 27
          36 38 34 36 34 27
          39 36 35 27 30 21
          23 43 44 30 23 21
          21 23 15 15 23 17
          21 15 13 10 4 7
          28 32 22 1 0 2
          44 17 23 33 37 31
          4 1 3 32 33 25
          26 28 19 17 10 15
          37 40 35 35 36 27
          39 35 40 27 21 20
          13 15 7 21 13 20
          20 13 16 16 13 9
          20 16 24 7 4 3
          7 3 9 31 37 35
          25 33 31 25 31 24
          24 31 29 22 32 25
          22 25 18 18 25 24
          22 18 14 3 1 2
          10 7 15 28 22 19
          27 20 29 9 13 7
          16 9 12 24 16 18
          20 24 29 29 31 35
          29 35 27 14 18 12
          12 18 16 22 14 19
          12 9 6 6 9 3
          12 6 8 8 6 5
          8 5 11 8 11 14
          8 14 12 14 11 19
          2 5 6 6 3 2
          45 46 38 46 41 38
          47 45 38 47 38 39
          39 38 36 47 39 48
          40 48 39
        </DataArray>
        <DataArray type="Int64" Name="offsets" format="ascii" RangeMin="3" RangeMax="219">
          3 6 9 12 15 18
          21 24 27 30 33 36
          39 42 45 48 51 54
          57 60 63 66 69 72
          75 78 81 84 87 90
          93 96 99 102 105 108
          111 114 117 120 123 126
          129 132 135 138 141 144
          147 150 153 156 159 162
          165 168 171 174 177 180
          183 186 189 192 195 198
          201 204 207 210 213 216
          219
        </DataArray>
        <DataArray type="UInt8" Name="types" format="ascii" RangeMin="5" RangeMax="5">
          5 5 5 5 5 5
          5 5 5 5 5 5
          5 5 5 5 5 5
          5 5 5 5 5 5
          5 5 5 5 5 5
          5 5 5 5 5 5
          5 5 5 5 5 5
          5 5 5 5 5 5