<?xml version="1.0"?>
<VTKFile type="UnstructuredGrid" version="0.1" byte_order="LittleEndian" header_type="UInt32" compressor="vtkZLibDataCompressor">
  <UnstructuredGrid>
    <Piece NumberOfPoints="121" NumberOfCells="199">
      <PointData>
        <DataArray type="Float64" Name="tem_BC" format="ascii" RangeMin="0" RangeMax="0">
          0 0 0 0 0 0
          0 0 0 0 0 0
          0 0 0 0 0 0
          0 0 0 0 0 0
          0 0 0 0 0 0
          0 0 0 0 0 0
          0 0 0 0 0 0
          0 0 0 0 0 0
          0 0 0 0 0 0
          0 0 0 0 0 0
          0 0 0 0 0 0
          0 0 0 0 0 0
          0 0 0 0 0 0
          0 0 0 0 0 0
          0 0 0 0 0 0
          0 0 0 0 0 0
          0 0 0 0 0 0
          0 0 0 0 0 0
          0 0 0 0 0 0
          0 0 0 0 0 0
          0
        </DataArray>
        <DataArray type="Float64" Name="tem_FIXNO" format="ascii" RangeMin="-1" RangeMax="1">
          1 1 1 1 1 1
          1 1 1 1 1 -1
          -1 -1 -1 -1 -1 -1
          -1 -1 1 -1 -1 -1
          -1 -1 -1 -1 -1 -1
          1 -1 -1 -1 -1 -1
          -1 -1 -1 -1 1 -1
          -1 -1 -1 -1 -1 -1
          -1 -1 1 -1 -1 -1
          -1 -1 -1 -1 -1 -1
          1 -1 -1 -1 -1 -1
          -1 -1 -1 -1 1 -1
          -1 -1 -1 -1 -1 -1
          -1 -1 1 -1 -1 -1
          -1 -1 -1 -1 -1 -1
          1 -1 -1 -1 -1 -1
          -1 -1 -1 -1 1 -1
          -1 -1 -1 -1 -1 -1
          -1 -1 1 -1 -1 -1
          -1 -1 -1 -1 -1 -1
          -1
        </DataArray>
        <DataArray type="Float64" Name="Temperature" format="ascii" RangeMin="0" RangeMax="0.07316592200414546">
          0 0 0 0 0 0
          0 0 0 0 0 0.004686372752511681
          0.00798770395293647 0.010451120495140383 0.012332961506051728 0.013771879418029076 0.014850879307361503 0.015622525531476533
          0.01612037124065259 0.016364551034581135 0 0.00798770395346384 0.014043239460447382 0.018713733416299852
          0.022338763000947184 0.02513359374596877 0.02723902916830049 0.02874876846813915 0.029724325288193902 0.030203198765827007
          0 0.010451120496172299 0.018713733413524027 0.02525172759088097 0.03040468021007881 0.034414620273154124
          0.037452792042566824 0.03963911080238448 0.041054879585713924 0.0417506368912762 0 0.012332961502685997
          0.022338762991842388 0.030404680204880883 0.036843526864592434 0.04189733198307302 0.045748324837904114 0.04852992004719357
          0.050335362304088235 0.051223749236473756 0 0.013771879406293205 0.02513359373259772 0.03441462026937292
          0.04189733198442206 0.0478127728725125 0.052343172214542724 0.05562679917592723 0.05776281730760405 0.058815165426505576
          0 0.014850879294951583 0.027239029167625457 0.037452792064377655 0.04574832486715677 0.05234317223769312
          0.05741470891717589 0.06110120406685854 0.06350385927864219 0.06468884663365136 0 0.015622525531433267
          0.028748768495861318 0.03963911085504006 0.04852992009942274 0.05562679921559105 0.06110120408694174 0.06508936583152888
          0.06769248604710733 0.06897743205310615 0 0.016120371259033116 0.02972432533751147 0.04105487964807788
          0.05033536235758404 0.0577628173450612 0.06350385930099861 0.06769248605661608 0.07042920394901013 0.07178088030863464
          0 0.016364551077770267 0.030203198838971067 0.04175063695664818 0.05122374926039174 0.05881516539757335
          0.06468884658055547 0.06897743202668404 0.07178088031658189 0.0731659218685965 0 0.01636455102330795
          0.030203198748617325 0.04175063685691806 0.051223749182634996 0.058815165364936105 0.06468884657943974 0.06897743201122902
          0.07178088027085999 0.07316592167733851 0 0.01636455108919644 0.030203198868740486 0.04175063703126001
          0.051223749400015166 0.05881516557623995 0.06468884674254026 0.06897743214972657 0.07178088045032294 0.07316592199636211
          0.07316592200414546
        </DataArray>
      </PointData>
      <CellData>
        <DataArray type="UInt8" Name="vtkGhostType" format="ascii" RangeMin="0" RangeMax="0">
          0 0 0 0 0 0
          0 0 0 0 0 0
          0 0 0 0 0 0
          0 0 0 0 0 0
          0 0 0 0 0 0
          0 0 0 0 0 0
          0 0 0 0 0 0
          0 0 0 0 0 0
          0 0 0 0 0 0
          0 0 0 0 0 0
          0 0 0 0 0 0
          0 0 0 0 0 0
          0 0 0 0 0 0
          0 0 0 0 0 0
          0 0 0 0 0 0
          0 0 0 0 0 0
          0 0 0 0 0 0
          0 0 0 0 0 0
          0 0 0 0 0 0
          0 0 0 0 0 0
          0 0 0 0 0 0
          0 0 0 0 0 0
          0 0 0 0 0 0
          0 0 0 0 0 0
          0 0 0 0 0 0
          0 0 0 0 0 0
          0 0 0 0 0 0
          0 0 0 0 0 0
          0 0 0 0 0 0
          0 0 0 0 0 0
          0 0 0 0 0 0
          0 0 0 0 0 0
          0 0 0 0 0 0
          0
        </DataArray>
      </CellData>
      <Points>
        <DataArray type="Float32" Name="Points" NumberOfComponents="3" format="ascii" RangeMin="0.4736842215061188" RangeMax="1.1300479326393575">
          0 1 0 0 0.9473684430122375 0
          0 0.8947368264198303 0 0 0.8421052694320679 0
          0 0.7894737124443054 0 0 0.7368420958518982 0
          0 0.6842105388641357 0 0 0.6315789222717285 0
          0 0.5789473652839661 0 0 0.5263158082962036 0
          0.05263157933950424 1 0 0.05263157933950424 0.9473684430122375 0
          0.05263157933950424 0.8947368264198303 0 0.05263157933950424 0.8421052694320679 0
          0.05263157933950424 0.7894737124443054 0 0.05263157933950424 0.7368420958518982 0
          0.05263157933950424 0.6842105388641357 0 0.05263157933950424 0.6315789222717285 0
          0.05263157933950424 0.5789473652839661 0 0.05263157933950424 0.5263158082962036 0
          0.10526315867900848 1 0 0.10526315867900848 0.9473684430122375 0
          0.10526315867900848 0.8947368264198303 0 0.10526315867900848 0.8421052694320679 0
          0.10526315867900848 0.7894737124443054 0 0.10526315867900848 0.7368420958518982 0
          0.10526315867900848 0.6842105388641357 0 0.10526315867900848 0.6315789222717285 0
          0.10526315867900848 0.5789473652839661 0 0.10526315867900848 0.5263158082962036 0
          0.15789473056793213 1 0 0.15789473056793213 0.9473684430122375 0
          0.15789473056793213 0.8947368264198303 0 0.15789473056793213 0.8421052694320679 0
          0.15789473056793213 0.7894737124443054 0 0.15789473056793213 0.7368420958518982 0
          0.15789473056793213 0.6842105388641357 0 0.15789473056793213 0.6315789222717285 0
          0.15789473056793213 0.5789473652839661 0 0.15789473056793213 0.5263158082962036 0
          0.21052631735801697 1 0 0.21052631735801697 0.9473684430122375 0
          0.21052631735801697 0.8947368264198303 0 0.21052631735801697 0.8421052694320679 0
          0.21052631735801697 0.7894737124443054 0 0.21052631735801697 0.7368420958518982 0
          0.21052631735801697 0.6842105388641357 0 0.21052631735801697 0.6315789222717285 0
          0.21052631735801697 0.5789473652839661 0 0.21052631735801697 0.5263158082962036 0
          0.2631579041481018 1 0 0.2631579041481018 0.9473684430122375 0
          0.2631579041481018 0.8947368264198303 0 0.2631579041481018 0.8421052694320679 0
          0.2631579041481018 0.7894737124443054 0 0.2631579041481018 0.7368420958518982 0
          0.2631579041481018 0.6842105388641357 0 0.2631579041481018 0.6315789222717285 0
          0.2631579041481018 0.5789473652839661 0 0.2631579041481018 0.5263158082962036 0
          0.31578946113586426 1 0 0.31578946113586426 0.9473684430122375 0
          0.31578946113586426 0.8947368264198303 0 0.31578946113586426 0.8421052694320679 0
          0.31578946113586426 0.7894737124443054 0 0.31578946113586426 0.7368420958518982 0
          0.31578946113586426 0.6842105388641357 0 0.31578946113586426 0.6315789222717285 0
          0.31578946113586426 0.5789473652839661 0 0.31578946113586426 0.5263158082962036 0
          0.3684210479259491 1 0 0.3684210479259491 0.9473684430122375 0
          0.3684210479259491 0.8947368264198303 0 0.3684210479259491 0.8421052694320679 0
          0.3684210479259491 0.7894737124443054 0 0.3684210479259491 0.7368420958518982 0
          0.3684210479259491 0.6842105388641357 0 0.3684210479259491 0.6315789222717285 0
          0.3684210479259491 0.5789473652839661 0 0.3684210479259491 0.5263158082962036 0
          0.42105263471603394 1 0 0.42105263471603394 0.9473684430122375 0
          0.42105263471603394 0.8947368264198303 0 0.42105263471603394 0.8421052694320679 0
          0.42105263471603394 0.7894737124443054 0 0.42105263471603394 0.7368420958518982 0
          0.42105263471603394 0.6842105388641357 0 0.42105263471603394 0.6315789222717285 0
          0.42105263471603394 0.5789473652839661 0 0.42105263471603394 0.5263158082962036 0
          0.4736842215061188 1 0 0.4736842215061188 0.9473684430122375 0
          0.4736842215061188 0.8947368264198303 0 0.4736842215061188 0.8421052694320679 0
          0.4736842215061188 0.7894737124443054 0 0.4736842215061188 0.7368420958518982 0
          0.4736842215061188 0.6842105388641357 0 0.4736842215061188 0.6315789222717285 0
          0.4736842215061188 0.5789473652839661 0 0.4736842215061188 0.5263158082962036 0
          0 0.4736842215061188 0 0.05263157933950424 0.4736842215061188 0
          0.10526315867900848 0.4736842215061188 0 0.15789473056793213 0.4736842215061188 0
          0.21052631735801697 0.4736842215061188 0 0.2631579041481018 0.4736842215061188 0
          0.31578946113586426 0.4736842215061188 0 0.3684210479259491 0.4736842215061188 0
          0.42105263471603394 0.4736842215061188 0 0.4736842215061188 0.4736842215061188 0
          0.5263158082962036 1 0 0.5263158082962036 0.9473684430122375 0
          0.5263158082962036 0.8947368264198303 0 0.5263158082962036 0.8421052694320679 0
          0.5263158082962036 0.7894737124443054 0 0.5263158082962036 0.7368420958518982 0
          0.5263158082962036 0.6842105388641357 0 0.5263158082962036 0.6315789222717285 0
          0.5263158082962036 0.5789473652839661 0 0.5263158082962036 0.5263158082962036 0
          0.5263158082962036 0.4736842215061188 0
          <InformationKey name="L2_NORM_RANGE" location="vtkDataArray" length="2">
            <Value index="0">
              0.47368422151
            </Value>
            <Value index="1">
              1.1300479326
            </Value>
          </InformationKey>
        </DataArray>
      </Points>
      <Cells>
        <DataArray type="Int64" Name="connectivity" format="ascii" RangeMin="0" RangeMax="119">
          0 1 10 1 11 10
          1 2 11 2 12 11
          2 3 12 3 13 12
          3 4 13 4 14 13
          4 5 14 5 15 14
          5 6 15 6 16 15
          6 7 16 7 17 16
          7 8 17 8 18 17
          8 9 18 9 19 18
          10 11 20 11 21 20
          11 12 21 12 22 21
          12 13 22 13 23 22
          13 14 23 14 24 23
          14 15 24 15 25 24
          15 16 25 16 26 25
          16 17 26 17 27 26
          17 18 27 18 28 27
          18 19 28 19 29 28
          20 21 30 21 31 30
          21 22 31 22 32 31
          22 23 32 23 33 32
          23 24 33 24 34 33
          24 25 34 25 35 34
          25 26 35 26 36 35
          26 27 36 27 37 36
          27 28 37 28 38 37
          28 29 38 29 39 38
          30 31 40 31 41 40
          31 32 41 32 42 41
          32 33 42 33 43 42
          33 34 43 34 44 43
          34 35 44 35 45 44
          35 36 45 36 46 45
          36 37 46 37 47 46
          37 38 47 38 48 47
          38 39 48 39 49 48
          40 41 50 41 51 50
          41 42 51 42 52 51
          42 43 52 43 53 52
          43 44 53 44 54 53
          44 45 54 45 55 54
          45 46 55 46 56 55
          46 47 56 47 57 56
          47 48 57 48 58 57
          48 49 58 49 59 58
          50 51 60 51 61 60
          51 52 61 52 62 61
          52 53 62 53 63 62
          53 54 63 54 64 63
          54 55 64 55 65 64
          55 56 65 56 66 65
          56 57 66 57 67 66
          57 58 67 58 68 67
          58 59 68 59 69 68
          60 61 70 61 71 70
          61 62 71 62 72 71
          62 63 72 63 73 72
          63 64 73 64 74 73
          64 65 74 65 75 74
          65 66 75 66 76 75
          66 67 76 67 77 76
          67 68 77 68 78 77
          68 69 78 69 79 78
          70 71 80 71 81 80
          71 72 81 72 82 81
          72 73 82 73 83 82
          73 74 83 74 84 83
          74 75 84 75 85 84
          75 76 85 76 86 85
          76 77 86 77 87 86
          77 78 87 78 88 87
          78 79 88 79 89 88
          80 81 90 81 91 90
          81 82 91 82 92 91
          82 83 92 83 93 92
          83 84 93 84 94 93
          84 85 94 85 95 94
          85 86 95 86 96 95
          86 87 96 87 97 96
          87 88 97 88 98 97
          88 89 98 89 99 98
          100 19 9 100 101 19
          101 29 19 101 102 29
          102 39 29 102 103 39
          103 49 39 103 104 49
          104 59 49 104 105 59
          105 69 59 105 106 69
          106 79 69 106 107 79
          107 89 79 107 108 89
          108 99 89 108 109 99
          91 110 90 91 111 110
          92 111 91 92 112 111
          93 112 92 93 113 112
          94 113 93 94 114 113
          95 114 94 95 115 114
          96 115 95 96 116 115
          97 116 96 97 117 116
          98 117 97 98 118 117
          99 118 98 99 119 118
          109 119 99
        </DataArray>
        <DataArray type="Int64" Name="offsets" format="ascii" RangeMin="3" RangeMax="597">
          3 6 9 12 15 18
          21 24 27 30 33 36
          39 42 45 48 51 54
          57 60 63 66 69 72
          75 78 81 84 87 90
          93 96 99 102 105 108
          111 114 117 120 123 126
          129 132 135 138 141 144
          147 150 153 156 159 162
          165 168 171 174 177 180
          183 186 189 192 195 198
          201 204 207 210 213 216
          219 222 225 228 231 234
          237 240 243 246 249 252
          255 258 261 264 267 270
          273 276 279 282 285 288
          291 294 297 300 303 306
          309 312 315 318 321 324
          327 330 333 336 339 342
          345 348 351 354 357 360
          363 366 369 372 375 378
          381 384 387 390 393 396
          399 402 405 408 411 414
          417 420 423 426 429 432
          435 438 441 444 447 450
          453 456 459 462 465 468
          471 474 477 480 483 486
          489 492 495 498 501 504
          507 510 513 516 519 522
          525 528 531 534 537 540
          543 546 549 552 555 558
          561 564 567 570 573 576
          579 582 585 588 591 594
          597
        </DataArray>
        <DataArray type="UInt8" Name="types" format="ascii" RangeMin="5" RangeMax="5">
          5 5 5 5 5 5
          5 5 5 5 5 5
          5 5 5 5 5 5
          5 5 5 5 5 5
          5 5 5 5 5 5
          5 5 5 5 5 5
          5 5 5 5 5 5
          5 5 5 5 5 5
          5 5 5 5 5 5
          5 5 5 5 5 5
          5 5 5 5 5 5
          5 5 5 5 5 5
          5 5 5 5 5 5
          5 5 5 5 5 5
          5 5 5 5 5 5
          5 5 5 5 5 5
          5 5 5 5 5 5
          5 5 5 5 5 5
          5 5 5 5 5 5
          5 5 5 5 5 5
          5 5 5 5 5 5
          5 5 5 5 5 5
          5 5 5 5 5 5
          5 5 5 5 5 5
          5 5 5 5 5 5
          5 5 5 5 5 5
          5 5 5 5 5 5
          5 5 5 5 5 5
          5 5 5 5 5 5
          5 5 5 5 5 5
          5 5 5 5 5 5
          5 5 5 5 5 5
          5 5 5 5 5 5
          5
        </DataArray>
      </Cells>
    </Piece>
  </UnstructuredGrid>
</VTKFile>
