<?xml version="1.0"?>
<VTKFile type="UnstructuredGrid" version="0.1" byte_order="LittleEndian" header_type="UInt32" compressor="vtkZLibDataCompressor">
  <UnstructuredGrid>
    <Piece NumberOfPoints="50" NumberOfCells="69">
      <PointData>
        <DataArray type="Float64" Name="Velocity" NumberOfComponents="3" format="ascii" RangeMin="0" RangeMax="0.23717430107229626">
          -0.04522579019621094 0.21397077108355134 0 -0.02248240612414823 0.15799456285293667 0
          -0.04238852440223192 0.19450648683366809 0 -0.005241859363916482 0.0811446462037659 0
          -0.020012341146665204 0.1394035627832247 0 -0.03910946483025218 0.17508742048896442 0
          0 0 0 -0.004476206236765302 0.0702022215487666 0
          -0.01776615717491301 0.12238213548785436 0 -0.03573408135574393 0.15630682136412546 0
          0 0 0 -0.00384507778049264 0.0605812176272569 0
          -0.015757837359602112 0.10692006050011706 0 -0.03244802660846958 0.13850159841687745 0
          0 0 0 -0.003320796392820361 0.05210963659017343 0
          -0.013977106648478503 0.09294320009500026 0 -0.029343608668301813 0.12184999775763827 0
          0 0 0 -0.0028815886537900937 0.04463840584048047 0
          -0.012402543585561001 0.08035005791649781 0 -0.02645904902815241 0.10643027187138386 0
          0 0 0 -0.002509919860285363 0.03804044113419836 0
          -0.01100838066895967 0.06903071872643947 0 -0.023801698931965938 0.09225787512769748 0
          0 0 0 -0.002191471684529612 0.03220892415874154 0
          -0.009768073270200942 0.05887740083309754 0 -0.02136168635779506 0.07930980178958766 0
          0 0 0 -0.0019143789214102615 0.02705548641929843 0
          -0.008656017786675517 0.04979013679298238 0 -0.019120151853946908 0.06754070626731547 0
          0 0 0 -0.0016685979998807502 0.022508820737109587 0
          -0.007648000510176402 0.04168063233576237 0 -0.01705437789162006 0.05689373232918634 0
          0 0 0 -0.0014451849691371817 0.018515494782840855 0
          -0.006720236428288488 0.034477408376555746 0 0 0 0
          -0.0061782270159541144 0.0935977586504738 0 0 0 0
          -0.0251109549322861 0.17802700104275718 0 -0.0470038719490861 0.23246996604061812 0
          -0.0012355693315915437 0.015042318935512786 0 -0.005848482374842006 0.028128960332983528 0
          -0.015138918028239728 0.047306833832635876 0 0 0 0
          <InformationKey name="L2_NORM_RANGE" location="vtkDataArray" length="2">
            <Value index="0">
              0
            </Value>
            <Value index="1">
              0.23717430107
            </Value>
          </InformationKey>
        </DataArray>
        <DataArray type="Float64" Name="Pressure" format="ascii" RangeMin="63.62914839246704" RangeMax="68.882834696048">
          64.52713483331401 65.27932285100434 65.27170915280539 66.30255292659145 65.99254170440086 65.89081002707964
          67.5288158211645 66.86351625112516 66.5655378456721 66.4055505593229 67.88476738755718 67.30682593312709
          67.02627080758926 66.8328114616907 68.16030864389177 67.65735808827058 67.39672878561527 67.18679220988679
          68.3729610122847 67.93421552136296 67.69432971108985 67.47935377882959 68.53573704112628 68.15209113169801
          67.9327573522817 67.72023091212151 68.65839622758432 68.32232063150133 68.12278590752912 67.91740331544125
          68.74840112048247 68.45378948711861 68.27301850150485 68.07740728191324 68.811584835144 68.5535389727889
          68.39026116580355 68.20526797538919 68.85248494265237 68.62697208204204 68.47947231790221 68.87473657428819
          65.59063115542884 67.06838322217152 64.38888599681039 63.62914839246704 68.6783230648758 68.54454133832479
          68.30435489926406 68.882834696048
        </DataArray>
      </PointData>
      <CellData>
        <DataArray type="UInt8" Name="vtkGhostType" format="ascii" RangeMin="0" RangeMax="1">
          1 1 1 0 1 1
          0 0 0 0 0 0
          0 0 0 0 0 0
          0 0 0 0 0 0
          0 0 0 0 0 0
          0 0 0 0 0 0
          0 0 0 0 0 0
          0 0 0 0 0 0
          0 0 0 0 0 0
          0 0 0 0 0 0
          1 0 0 0 0 0
          0 0 0
        </DataArray>
      </CellData>
      <Points>
        <DataArray type="Float32" Name="Points" NumberOfComponents="3" format="ascii" RangeMin="0.2666666805744171" RangeMax="0.7401201263226397">
          0.10000000149011612 0.699999988079071 0 0.06666667014360428 0.6666666865348816 0
          0.10000000149011612 0.6666666865348816 0 0.03333333507180214 0.6333333253860474 0
          0.06666667014360428 0.6333333253860474 0 0.10000000149011612 0.6333333253860474 0
          0 0.6000000238418579 0 0.03333333507180214 0.6000000238418579 0
          0.06666667014360428 0.6000000238418579 0 0.10000000149011612 0.6000000238418579 0
          0 0.5666666626930237 0 0.03333333507180214 0.5666666626930237 0
          0.06666667014360428 0.5666666626930237 0 0.10000000149011612 0.5666666626930237 0
          0 0.5333333611488342 0 0.03333333507180214 0.5333333611488342 0
          0.06666667014360428 0.5333333611488342 0 0.10000000149011612 0.5333333611488342 0
          0 0.5 0 0.03333333507180214 0.5 0
          0.06666667014360428 0.5 0 0.10000000149011612 0.5 0
          0 0.46666666865348816 0 0.03333333507180214 0.46666666865348816 0
          0.06666667014360428 0.46666666865348816 0 0.10000000149011612 0.46666666865348816 0
          0 0.4333333373069763 0 0.03333333507180214 0.4333333373069763 0
          0.06666667014360428 0.4333333373069763 0 0.10000000149011612 0.4333333373069763 0
          0 0.4000000059604645 0 0.03333333507180214 0.4000000059604645 0
          0.06666667014360428 0.4000000059604645 0 0.10000000149011612 0.4000000059604645 0
          0 0.36666667461395264 0 0.03333333507180214 0.36666667461395264 0
          0.06666667014360428 0.36666667461395264 0 0.10000000149011612 0.36666667461395264 0
          0 0.3333333432674408 0 0.03333333507180214 0.3333333432674408 0
          0.06666667014360428 0.3333333432674408 0 0 0.30000001192092896 0
          0.03333333507180214 0.6666666865348816 0 0 0.6333333253860474 0
          0.06666667014360428 0.699999988079071 0 0.10000000149011612 0.7333333492279053 0
          0.03333333507180214 0.30000001192092896 0 0.06666667014360428 0.30000001192092896 0
          0.10000000149011612 0.3333333432674408 0 0 0.2666666805744171 0
          <InformationKey name="L2_NORM_RANGE" location="vtkDataArray" length="2">
            <Value index="0">
              0.26666668057
            </Value>
            <Value index="1">
              0.74012012632
            </Value>
          </InformationKey>
        </DataArray>
      </Points>
      <Cells>
        <DataArray type="Int64" Name="connectivity" format="ascii" RangeMin="0" RangeMax="49">
          3 42 43 1 42 3
          1 44 42 2 0 1
          0 44 1 0 45 44
          46 39 41 39 38 41
          47 40 46 40 39 46
          48 40 47 39 35 38
          35 34 38 40 36 39
          36 35 39 48 37 40
          37 36 40 35 31 34
          31 30 34 36 32 35
          32 31 35 37 33 36
          33 32 36 31 27 30
          27 26 30 32 28 31
          28 27 31 33 29 32
          29 28 32 27 23 26
          23 22 26 28 24 27
          24 23 27 29 25 28
          25 24 28 23 19 22
          19 18 22 24 20 23
          20 19 23 25 21 24
          21 20 24 19 15 18
          15 14 18 20 16 19
          16 15 19 21 17 20
          17 16 20 15 11 14
          11 10 14 16 12 15
          12 11 15 17 13 16
          13 12 16 11 7 10
          7 6 10 12 8 11
          8 7 11 13 9 12
          9 8 12 7 3 6
          3 43 6 8 4 7
          4 3 7 9 5 8
          5 4 8 4 1 3
          5 2 4 2 1 4
          46 41 49
        </DataArray>
        <DataArray type="Int64" Name="offsets" format="ascii" RangeMin="3" RangeMax="207">
          3 6 9 12 15 18
          21 24 27 30 33 36
          39 42 45 48 51 54
          57 60 63 66 69 72
          75 78 81 84 87 90
          93 96 99 102 105 108
          111 114 117 120 123 126
          129 132 135 138 141 144
          147 150 153 156 159 162
          165 168 171 174 177 180
          183 186 189 192 195 198
          201 204 207
        </DataArray>
        <DataArray type="UInt8" Name="types" format="ascii" RangeMin="5" RangeMax="5">
          5 5 5 5 5 5
          5 5 5 5 5 5
          5 5 5 5 5 5
          5 5 5 5 5 5
          5 5 5 5 5 5
          5 5 5 5 5 5
          5 5 5 5 5 5
          5 5 5 5 5 5
          5 5 5 5 5 5
          5 5 5 5 5 5
          5 5 5 5 5 5
          5 5 5
        </DataArray>
      </Cells>
    </Piece>
  </UnstructuredGrid>
</VTKFile>
