<?xml version="1.0"?>
<VTKFile type="UnstructuredGrid" version="0.1" byte_order="LittleEndian" header_type="UInt32" compressor="vtkZLibDataCompressor">
  <UnstructuredGrid>
    <Piece NumberOfPoints="44" NumberOfCells="60">
      <PointData>
        <DataArray type="Float64" Name="Velocity" NumberOfComponents="3" format="ascii" RangeMin="0" RangeMax="0.07146442297246237">
          -0.0183727993560299 0.05680397319578182 0 -0.0015156535413907526 0.017111199619400098 0
          -0.007158602595702796 0.0328168353295941 0 -0.016328574771237874 0.04630930190191526 0
          0 0 0 -0.0012796358974313047 0.013460586965439465 0
          -0.006173243034653766 0.026022217334300574 0 -0.014307900796547186 0.03691911763142311 0
          0 0 0 -0.00101331024961171 0.010400772177410558 0
          -0.0051316206366799275 0.02014980244157683 0 -0.012195989999098272 0.028534627397644195 0
          0 0 0 -0.0007385581189313212 0.007843220134173544 0
          -0.004131411850724115 0.015019686244696887 0 -0.010197641978794419 0.02102347644477858 0
          0 0 0 -0.000568303700394682 0.005576454429152211 0
          -0.0034810229100345554 0.01044423845177912 0 -0.00922365944042729 0.014308178452540612 0
          0 0 0 -0.0004079156318576915 0.003806570691659094 0
          -0.0028459793770590387 0.007095182862507298 0 -0.009199183401817655 0.008383037931740391 0
          0 0 0 0.000650932262886307 0.004131834879445902 0
          0.00045243936837071757 0.007301631347995618 0 -0.0034345103307930167 0.0027814538779858938 0
          0 0 0 0.0024030536457827164 0.008276045499893693 0
          0.007167267056708538 0.012422915342042748 0 0.014931958522180341 -0.007237060068289757 0
          0 0 0 -0.004116899868917643 0.01075147794827378 0
          -0.007902150911102348 0.013351326117077225 0 -0.02231603201681978 -0.045842731821720474 0
          0 0 0 0 0 0
          0 0 0 0 0 0
          -0.0017485593435703152 0.021341781676466266 0 0 0 0
          -0.008142204070615708 0.04056802116780889 0 -0.020521303153963225 0.06845465555862616 0
          <InformationKey name="L2_NORM_RANGE" location="vtkDataArray" length="2">
            <Value index="0">
              0
            </Value>
            <Value index="1">
              0.071464422972
            </Value>
          </InformationKey>
        </DataArray>
        <DataArray type="Float64" Name="Pressure" format="ascii" RangeMin="67.98356192636427" RangeMax="81.88888311606954">
          68.81267868463847 69.23493667562617 69.07165182385607 68.86694824204054 69.44888269598194 69.24149159988461
          69.09241827863221 68.89532283867463 69.4115188976157 69.2365730743688 69.10494244973339 68.92047057764104
          69.38232086543698 69.24863474567071 69.14563757679983 68.97021349352356 69.37865743700227 69.29026430007842
          69.20596910101466 68.96249929768126 69.34399837617987 69.26444662775532 69.10053415365714 68.61455956666124
          69.14718011989375 69.0031768295517 68.62089462673633 67.98356192636427 68.90515710252619 68.73886651116469
          68.45363915933953 68.90284741369209 69.26975726819109 69.44439171045009 70.72676327729751 74.30579261580074
          70.39414274794613 71.81685334424162 76.15449435592939 81.88888311606954 69.20633016221187 69.47327778566772
          69.02667239527776 68.72945722313798
        </DataArray>
      </PointData>
      <CellData>
        <DataArray type="UInt8" Name="vtkGhostType" format="ascii" RangeMin="0" RangeMax="1">
          1 1 1 0 1 1
          0 0 0 0 0 0
          0 0 0 0 0 0
          0 0 0 0 0 0
          0 0 0 0 0 0
          0 0 0 0 0 0
          0 0 0 0 0 0
          0 0 0 0 0 0
          0 0 0 0 0 0
          0 1 0 0 0 0
        </DataArray>
      </CellData>
      <Points>
        <DataArray type="Float32" Name="Points" NumberOfComponents="3" format="ascii" RangeMin="0" RangeMax="0.38005848309237544">
          0.10000000149011612 0.3333333432674408 0 0.03333333507180214 0.30000001192092896 0
          0.06666667014360428 0.30000001192092896 0 0.10000000149011612 0.30000001192092896 0
          0 0.2666666805744171 0 0.03333333507180214 0.2666666805744171 0
          0.06666667014360428 0.2666666805744171 0 0.10000000149011612 0.2666666805744171 0
          0 0.23333333432674408 0 0.03333333507180214 0.23333333432674408 0
          0.06666667014360428 0.23333333432674408 0 0.10000000149011612 0.23333333432674408 0
          0 0.20000000298023224 0 0.03333333507180214 0.20000000298023224 0
          0.06666667014360428 0.20000000298023224 0 0.10000000149011612 0.20000000298023224 0
          0 0.1666666716337204 0 0.03333333507180214 0.1666666716337204 0
          0.06666667014360428 0.1666666716337204 0 0.10000000149011612 0.1666666716337204 0
          0 0.13333334028720856 0 0.03333333507180214 0.13333334028720856 0
          0.06666667014360428 0.13333334028720856 0 0.10000000149011612 0.13333334028720856 0
          0 0.10000000149011612 0 0.03333333507180214 0.10000000149011612 0
          0.06666667014360428 0.10000000149011612 0 0.10000000149011612 0.10000000149011612 0
          0 0.06666667014360428 0 0.03333333507180214 0.06666667014360428 0
          0.06666667014360428 0.06666667014360428 0 0.10000000149011612 0.06666667014360428 0
          0 0.03333333507180214 0 0.03333333507180214 0.03333333507180214 0
          0.06666667014360428 0.03333333507180214 0 0.10000000149011612 0.03333333507180214 0
          0 0 0 0.03333333507180214 0 0
          0.06666667014360428 0 0 0.10000000149011612 0 0
          0.03333333507180214 0.3333333432674408 0 0 0.30000001192092896 0
          0.06666667014360428 0.3333333432674408 0 0.10000000149011612 0.36666667461395264 0
          <InformationKey name="L2_NORM_RANGE" location="vtkDataArray" length="2">
            <Value index="0">
              0
            </Value>
            <Value index="1">
              0.38005848309
            </Value>
          </InformationKey>
        </DataArray>
      </Points>
      <Cells>
        <DataArray type="Int64" Name="connectivity" format="ascii" RangeMin="0" RangeMax="43">
          1 40 41 2 42 1
          42 40 1 3 0 2
          0 42 2 0 43 42
          37 33 36 33 32 36
          38 34 37 34 33 37
          39 35 38 35 34 38
          33 29 32 29 28 32
          34 30 33 30 29 33
          35 31 34 31 30 34
          29 25 28 25 24 28
          30 26 29 26 25 29
          31 27 30 27 26 30
          25 21 24 21 20 24
          26 22 25 22 21 25
          27 23 26 23 22 26
          21 17 20 17 16 20
          22 18 21 18 17 21
          23 19 22 19 18 22
          17 13 16 13 12 16
          18 14 17 14 13 17
          19 15 18 15 14 18
          13 9 12 9 8 12
          14 10 13 10 9 13
          15 11 14 11 10 14
          9 5 8 5 4 8
          10 6 9 6 5 9
          11 7 10 7 6 10
          5 1 4 1 41 4
          6 2 5 2 1 5
          7 3 6 3 2 6
        </DataArray>
        <DataArray type="Int64" Name="offsets" format="ascii" RangeMin="3" RangeMax="180">
          3 6 9 12 15 18
          21 24 27 30 33 36
          39 42 45 48 51 54
          57 60 63 66 69 72
          75 78 81 84 87 90
          93 96 99 102 105 108
          111 114 117 120 123 126
          129 132 135 138 141 144
          147 150 153 156 159 162
          165 168 171 174 177 180
        </DataArray>
        <DataArray type="UInt8" Name="types" format="ascii" RangeMin="5" RangeMax="5">
          5 5 5 5 5 5
          5 5 5 5 5 5
          5 5 5 5 5 5
          5 5 5 5 5 5
          5 5 5 5 5 5
          5 5 5 5 5 5
          5 5 5 5 5 5
          5 5 5 5 5 5
          5 5 5 5 5 5
          5 5 5 5 5 5
        </DataArray>
      </Cells>
    </Piece>
  </UnstructuredGrid>
</VTKFile>
