<?xml version="1.0"?>
<VTKFile type="UnstructuredGrid" version="0.1" byte_order="LittleEndian" header_type="UInt32" compressor="vtkZLibDataCompressor">
  <UnstructuredGrid>
    <Piece NumberOfPoints="46" NumberOfCells="63">
      <PointData>
        <DataArray type="Float64" Name="Velocity" NumberOfComponents="3" format="ascii" RangeMin="0" RangeMax="1.0000000000000004">
          1.0000000000000004 0 0 0 0 0
          1.0000000000000002 0 0 0.1388044175686633 0.11073574822593873 0
          0 0 0 1.0000000000000002 0 0
          0.282571038529509 0.10458323337467847 0 -0.00021821961530111517 0.19960486702949898 0
          0.06868910659667349 0.2043072961270404 0 0 0 0
          1 0 0 -0.02590132325623896 0.2272690501897882 0
          0.39472878359843755 0.05353410472778034 0 0.17154560164200738 0.14734392554215792 0
          -0.0009851857043605926 0.2644369393446476 0 0 0 0
          -0.021869930139778587 0.2182206052262158 0 0.05822242498655061 0.227512559981629 0
          -0.02217733278425319 0.28256977941402295 0 0 0 0
          0.0011991509216975945 0.27158154241201654 0 -0.016143381301204532 0.1960531898223102 0
          -0.028877354752587382 0.27694508393509176 0 -0.027778384856368236 0.2870867120202564 0
          0 0 0 -0.012756133727438695 0.17337166318541614 0
          -0.030819393900783105 0.26097911633238713 0 -0.041613149958164446 0.28606872849354353 0
          0 0 0 -0.010639862627630736 0.1529647252692987 0
          -0.030294540530618908 0.24083019254913493 0 -0.047095056776392204 0.27561111193329735 0
          0 0 0 -0.008983608758620833 0.1346479334728102 0
          -0.028414710300072737 0.21914499101669843 0 -0.04814218469078782 0.25955094378836885 0
          0 0 0 -0.007599542450551836 0.11816924790797041 0
          -0.026012839931663867 0.19739552786477266 0 0 0 0
          -0.006466306688089609 0.10343837475112644 0 0 0 0
          -0.0055488626161100596 0.09033024238344126 0 -0.023555460576401076 0.17646218609277214 0
          -0.04691615692269077 0.24041292871139722 0 0 0 0
          <InformationKey name="L2_NORM_RANGE" location="vtkDataArray" length="2">
            <Value index="0">
              0
            </Value>
            <Value index="1">
              1
            </Value>
          </InformationKey>
        </DataArray>
        <DataArray type="Float64" Name="Pressure" format="ascii" RangeMin="0" RangeMax="68.1864612977926">
          0 3.9861328100013345 25.275671970859257 28.053608995213157 20.240469024547586 45.40702437474799
          43.59759444708283 38.246225581076374 47.387682730371345 40.19201771896878 54.00938062012388 48.90588245316149
          50.973456899602 52.88068478637221 52.67156904010691 52.63166424149816 55.1830747602836 56.20476544239331
          56.313253269250104 58.64484345890255 58.599019861302274 58.48484865507935 58.73713550006562 60.325704274880636
          61.73800964515515 60.733696773167374 60.727038619212905 61.821054435260784 63.7460857649182 62.587823880943915
          62.44545972624096 63.12890451587591 65.21533065144494 64.09925442986142 63.85472448094008 64.2171919329482
          66.30236116312692 65.28119489530476 64.97520224711278 67.1098796429941 66.19788151726887 67.71979068996158
          66.91502876881874 65.8670149632326 65.10953579306803 68.1864612977926
        </DataArray>
      </PointData>
      <CellData>
        <DataArray type="UInt8" Name="vtkGhostType" format="ascii" RangeMin="0" RangeMax="0">
          0 0 0 0 0 0
          0 0 0 0 0 0
          0 0 0 0 0 0
          0 0 0 0 0 0
          0 0 0 0 0 0
          0 0 0 0 0 0
          0 0 0 0 0 0
          0 0 0 0 0 0
          0 0 0 0 0 0
          0 0 0 0 0 0
          0 0 0
        </DataArray>
      </CellData>
      <Points>
        <DataArray type="Float32" Name="Points" NumberOfComponents="3" format="ascii" RangeMin="0.6000000238418579" RangeMax="1.004987562260361">
          0 1 0 0 0.9666666388511658 0
          0.03333333507180214 1 0 0.03333333507180214 0.9666666388511658 0
          0 0.9333333373069763 0 0.06666667014360428 1 0
          0.06666667014360428 0.9666666388511658 0 0.03333333507180214 0.9333333373069763 0
          0.06666667014360428 0.9333333373069763 0 0 0.8999999761581421 0
          0.10000000149011612 1 0 0.03333333507180214 0.8999999761581421 0
          0.10000000149011612 0.9666666388511658 0 0.10000000149011612 0.9333333373069763 0
          0.06666667014360428 0.8999999761581421 0 0 0.8666666746139526 0
          0.03333333507180214 0.8666666746139526 0 0.10000000149011612 0.8999999761581421 0
          0.06666667014360428 0.8666666746139526 0 0 0.8333333134651184 0
          0.10000000149011612 0.8666666746139526 0 0.03333333507180214 0.8333333134651184 0
          0.06666667014360428 0.8333333134651184 0 0.10000000149011612 0.8333333134651184 0
          0 0.800000011920929 0 0.03333333507180214 0.800000011920929 0
          0.06666667014360428 0.800000011920929 0 0.10000000149011612 0.800000011920929 0
          0 0.7666666507720947 0 0.03333333507180214 0.7666666507720947 0
          0.06666667014360428 0.7666666507720947 0 0.10000000149011612 0.7666666507720947 0
          0 0.7333333492279053 0 0.03333333507180214 0.7333333492279053 0
          0.06666667014360428 0.7333333492279053 0 0.10000000149011612 0.7333333492279053 0
          0 0.699999988079071 0 0.03333333507180214 0.699999988079071 0
          0.06666667014360428 0.699999988079071 0 0 0.6666666865348816 0
          0.03333333507180214 0.6666666865348816 0 0 0.6333333253860474 0
          0.03333333507180214 0.6333333253860474 0 0.06666667014360428 0.6666666865348816 0
          0.10000000149011612 0.699999988079071 0 0 0.6000000238418579 0
          <InformationKey name="L2_NORM_RANGE" location="vtkDataArray" length="2">
            <Value index="0">
              0.60000002384
            </Value>
            <Value index="1">
              1.0049875623
            </Value>
          </InformationKey>
        </DataArray>
      </Points>
      <Cells>
        <DataArray type="Int64" Name="connectivity" format="ascii" RangeMin="0" RangeMax="45">
          42 40 41 40 39 41
          43 40 42 40 37 39
          37 36 39 43 38 40
          38 37 40 44 38 43
          37 33 36 33 32 36
          38 34 37 34 33 37
          44 35 38 35 34 38
          33 29 32 29 28 32
          34 30 33 30 29 33
          35 31 34 31 30 34
          29 25 28 25 24 28
          30 26 29 26 25 29
          31 27 30 27 26 30
          25 21 24 21 19 24
          26 22 25 22 21 25
          27 23 26 23 22 26
          21 16 19 16 15 19
          22 18 21 18 16 21
          23 20 22 20 18 22
          16 11 15 11 9 15
          18 14 16 14 11 16
          20 17 18 17 14 18
          11 7 9 7 4 9
          14 8 11 8 7 11
          17 13 14 13 8 14
          7 3 4 3 1 4
          8 6 7 6 3 7
          13 12 8 12 6 8
          3 2 1 2 0 1
          6 5 3 5 2 3
          12 10 6 10 5 6
          42 41 45
        </DataArray>
        <DataArray type="Int64" Name="offsets" format="ascii" RangeMin="3" RangeMax="189">
          3 6 9 12 15 18
          21 24 27 30 33 36
          39 42 45 48 51 54
          57 60 63 66 69 72
          75 78 81 84 87 90
          93 96 99 102 105 108
          111 114 117 120 123 126
          129 132 135 138 141 144
          147 150 153 156 159 162
          165 168 171 174 177 180
          183 186 189
        </DataArray>
        <DataArray type="UInt8" Name="types" format="ascii" RangeMin="5" RangeMax="5">
          5 5 5 5 5 5
          5 5 5 5 5 5
          5 5 5 5 5 5
          5 5 5 5 5 5
          5 5 5 5 5 5
          5 5 5 5 5 5
          5 5 5 5 5 5
          5 5 5 5 5 5
          5 5 5 5 5 5
          5 5 5 5 5 5
          5 5 5
        </DataArray>
      </Cells>
    </Piece>
  </UnstructuredGrid>
</VTKFile>
