<?xml version="1.0"?>
<VTKFile type="UnstructuredGrid" version="0.1" byte_order="LittleEndian" header_type="UInt32" compressor="vtkZLibDataCompressor">
  <UnstructuredGrid>
    <Piece NumberOfPoints="44" NumberOfCells="60">
      <PointData>
        <DataArray type="Float64" Name="Velocity" NumberOfComponents="3" format="ascii" RangeMin="0" RangeMax="0.05939485317445681">
          -0.015138918028239728 0.047306833832635876 0 -0.0012355693315915437 0.015042318935512786 0
          -0.005848482374842006 0.028128960332983528 0 -0.013340896335809196 0.03871336185337647 0
          0 0 0 -0.0010334955729378733 0.012067831898068003 0
          -0.00501665669571155 0.022584966379177944 0 -0.011624955597257562 0.031038276594355076 0
          0 0 0 -0.0008446831294352414 0.009540680501010047 0
          -0.004247673842846795 0.017735499386168793 0 -0.01002264380399885 0.024196835977774268 0
          0 0 0 -0.0006910908199821851 0.007331997370875691 0
          -0.003613051584086356 0.013382721186263477 0 -0.00877231681797644 0.0180878124696776 0
          0 0 0 -0.0005361996083412721 0.005366495548558639 0
          -0.003022756232573721 0.009517092388097162 0 -0.00813394765378665 0.012540696501828848 0
          0 0 0 -0.00006721908286394023 0.004161218011051035 0
          -0.0016350498857490264 0.0070701442978616785 0 -0.0069040370046759775 0.0072425781605102504 0
          0 0 0 0.0012393280005741805 0.00526030961077588 0
          0.0021521404117066383 0.008142473227406083 0 -0.00015945353688535098 0.001594961852933954 0
          0 0 0 0.0021009840048313256 0.009434416386195755 0
          0.006229398658720569 0.013106892884568823 0 0.012946844541996523 -0.007988397679896321 0
          0 0 0 -0.004814895706788392 0.010839237788680846 0
          -0.009993760289072461 0.012990572791525256 0 -0.024011655429317366 -0.0403755384244047 0
          0 0 0 0 0 0
          0 0 0 0 0 0
          -0.0014451849691371817 0.018515494782840855 0 0 0 0
          -0.006720236428288488 0.034477408376555746 0 -0.01705437789162006 0.05689373232918634 0
          <InformationKey name="L2_NORM_RANGE" location="vtkDataArray" length="2">
            <Value index="0">
              0
            </Value>
            <Value index="1">
              0.059394853174
            </Value>
          </InformationKey>
        </DataArray>
        <DataArray type="Float64" Name="Pressure" format="ascii" RangeMin="67.66607144832855" RangeMax="80.52582162540665">
          68.30435489926406 68.6783230648758 68.54454133832479 68.37829255135036 68.882834696048 68.71339339334699
          68.59281373204519 68.43721113457124 68.88567112200847 68.74476925340545 68.64195541880119 68.49992432533543
          68.89498123963203 68.78861891475572 68.70954999577555 68.56087162626756 68.90357867850362 68.83153728500092
          68.7545023718902 68.50666539692261 68.85396013980647 68.78662061460543 68.61807980618356 68.1325301366721
          68.69400291986642 68.57986627675204 68.22445623200674 67.66607144832855 68.61029548772012 68.48578420675335
          68.2698703627063 68.78672489987277 69.08048178172697 69.24437780373012 70.46928621951328 73.78801985035096
          70.06718405005138 71.34459464776411 75.29611696372753 80.52582162540665 68.62697208204204 68.87473657428819
          68.47947231790221 68.20526797538919
        </DataArray>
      </PointData>
      <CellData>
        <DataArray type="UInt8" Name="vtkGhostType" format="ascii" RangeMin="0" RangeMax="1">
          1 1 1 0 1 1
          0 0 0 0 0 0
          0 0 0 0 0 0
          0 0 0 0 0 0
          0 0 0 0 0 0
          0 0 0 0 0 0
          0 0 0 0 0 0
          0 0 0 0 0 0
          0 0 0 0 0 0
          0 1 0 0 0 0
        </DataArray>
      </CellData>
      <Points>
        <DataArray type="Float32" Name="Points" NumberOfComponents="3" format="ascii" RangeMin="0" RangeMax="0.38005848309237544">
          0.10000000149011612 0.3333333432674408 0 0.03333333507180214 0.30000001192092896 0
          0.06666667014360428 0.30000001192092896 0 0.10000000149011612 0.30000001192092896 0
          0 0.2666666805744171 0 0.03333333507180214 0.2666666805744171 0
          0.06666667014360428 0.2666666805744171 0 0.10000000149011612 0.2666666805744171 0
          0 0.23333333432674408 0 0.03333333507180214 0.23333333432674408 0
          0.06666667014360428 0.23333333432674408 0 0.10000000149011612 0.23333333432674408 0
          0 0.20000000298023224 0 0.03333333507180214 0.20000000298023224 0
          0.06666667014360428 0.20000000298023224 0 0.10000000149011612 0.20000000298023224 0
          0 0.1666666716337204 0 0.03333333507180214 0.1666666716337204 0
          0.06666667014360428 0.1666666716337204 0 0.10000000149011612 0.1666666716337204 0
          0 0.13333334028720856 0 0.03333333507180214 0.13333334028720856 0
          0.06666667014360428 0.13333334028720856 0 0.10000000149011612 0.13333334028720856 0
          0 0.10000000149011612 0 0.03333333507180214 0.10000000149011612 0
          0.06666667014360428 0.10000000149011612 0 0.10000000149011612 0.10000000149011612 0
          0 0.06666667014360428 0 0.03333333507180214 0.06666667014360428 0
          0.06666667014360428 0.06666667014360428 0 0.10000000149011612 0.06666667014360428 0
          0 0.03333333507180214 0 0.03333333507180214 0.03333333507180214 0
          0.06666667014360428 0.03333333507180214 0 0.10000000149011612 0.03333333507180214 0
          0 0 0 0.03333333507180214 0 0
          0.06666667014360428 0 0 0.10000000149011612 0 0
          0.03333333507180214 0.3333333432674408 0 0 0.30000001192092896 0
          0.06666667014360428 0.3333333432674408 0 0.10000000149011612 0.36666667461395264 0
          <InformationKey name="L2_NORM_RANGE" location="vtkDataArray" length="2">
            <Value index="0">
              0
            </Value>
            <Value index="1">
              0.38005848309
            </Value>
          </InformationKey>
        </DataArray>
      </Points>
      <Cells>
        <DataArray type="Int64" Name="connectivity" format="ascii" RangeMin="0" RangeMax="43">
          1 40 41 2 42 1
          42 40 1 3 0 2
          0 42 2 0 43 42
          37 33 36 33 32 36
          38 34 37 34 33 37
          39 35 38 35 34 38
          33 29 32 29 28 32
          34 30 33 30 29 33
          35 31 34 31 30 34
          29 25 28 25 24 28
          30 26 29 26 25 29
          31 27 30 27 26 30
          25 21 24 21 20 24
          26 22 25 22 21 25
          27 23 26 23 22 26
          21 17 20 17 16 20
          22 18 21 18 17 21
          23 19 22 19 18 22
          17 13 16 13 12 16
          18 14 17 14 13 17
          19 15 18 15 14 18
          13 9 12 9 8 12
          14 10 13 10 9 13
          15 11 14 11 10 14
          9 5 8 5 4 8
          10 6 9 6 5 9
          11 7 10 7 6 10
          5 1 4 1 41 4
          6 2 5 2 1 5
          7 3 6 3 2 6
        </DataArray>
        <DataArray type="Int64" Name="offsets" format="ascii" RangeMin="3" RangeMax="180">
          3 6 9 12 15 18
          21 24 27 30 33 36
          39 42 45 48 51 54
          57 60 63 66 69 72
          75 78 81 84 87 90
          93 96 99 102 105 108
          111 114 117 120 123 126
          129 132 135 138 141 144
          147 150 153 156 159 162
          165 168 171 174 177 180
        </DataArray>
        <DataArray type="UInt8" Name="types" format="ascii" RangeMin="5" RangeMax="5">
          5 5 5 5 5 5
          5 5 5 5 5 5
          5 5 5 5 5 5
          5 5 5 5 5 5
          5 5 5 5 5 5
          5 5 5 5 5 5
          5 5 5 5 5 5
          5 5 5 5 5 5
          5 5 5 5 5 5
          5 5 5 5 5 5
        </DataArray>
      </Cells>
    </Piece>
  </UnstructuredGrid>
</VTKFile>
