<?xml version="1.0"?>
<VTKFile type="UnstructuredGrid" version="0.1" byte_order="LittleEndian" header_type="UInt32" compressor="vtkZLibDataCompressor">
  <UnstructuredGrid>
    <Piece NumberOfPoints="94" NumberOfCells="150">
      <PointData>
        <DataArray type="Float64" Name="Velocity" NumberOfComponents="3" format="ascii" RangeMin="0" RangeMax="4.751519748353923">
          1.0795139875010527 0 0 1.3339102738926543 -0.10657671653534105 0
          1.562142504054777 -0.3450294595836013 0 1.5861253516508467 0 0
          1.2684452885634214 -0.9217819745120023 0 1.305734139044699 -0.35832263311853146 0
          2.3202922825423227 -0.14023220602078493 0 2.7783150138932977 -1.2154661335830395 0
          2.376577463564611 -1.4473252767948583 0 1.6777924254820802 0 0
          2.561593981458729 -1.060821372796851 0 1.834820379440708 -0.14798008680346078 0
          1.9060792120728152 0.1614028611322411 0 2.0965115629627284 0.743961917177791 0
          4.044626074510676 0.5120422713551986 0 3.1828323794159195 1.0858460146042097 0
          1.074139334132851 3.3151006063019346 0 1.9504735801205506 -0.3773142224122805 0
          1.1845096076298576 0.4288119124709821 0 2.6021066386640066 1.0350024890041865 0
          0 0 0 2.9333624105455445 0.35046095006212236 0
          1.746113611122871 0.1896651068584114 0 0 0 0
          3.2364963620424825 1.134801050978853 0 1.9903741667516741 0.22273637268028226 0
          2.083801896489718 0.15735943348336323 0 0 0 0
          0 0 0 2.082457923866846 0.3506547208963139 0
          2.0846454452518146 1.9547713729218592 0 1.7822378812636357 0 0
          0 0 0 0 0 0
          2.4723272376980208 1.1330228340326716 0 0.25635513166804214 2.198788908841957 0
          1.7472320040942564 0.39332777708274425 0 0 0 0
          1.8832466965340608 0.5566308265188434 0 1.4070544503657376 0.6092184311392116 0
          0 0 0 1.030336002842362 1.3255677861632265 0
          0.2596513004296417 -0.5814247548514639 0 0 0 0
          1.1808433360299853 1.3495410586389223 0 2.061954481544189 1.0452670048159782 0
          0.7601802051319201 0.5143012878038453 0 2.059885307629154 0.79854393528171 0
          1.548336686744278 0.17888482023668975 0 -0.3095854243822788 -0.19293499705199024 0
          1.3752560637473843 1.4402793125057711 0 0.7010440529100991 1.3399007487167038 0
          1.5021371106484411 0.8820042373128371 0 0.8034164923622517 1.5557351274123294 0
          0.4730776563053126 0 0 0.8302824134835858 1.0680690366502972 0
          0.9932541133359808 1.128139683257588 0 -0.029229371925642518 0.024623794078232755 0
          0.8185687138514572 1.2182935902271392 0 -0.4664252970552129 0.1496121333985085 0
          1.237825833314775 0.8482298485896177 0 1.6007349886496194 1.398095473039623 0
          1.141168896510845 0 0 1.3672067555499454 1.3637654202972902 0
          0.4510209938641448 0 0 1.0116945822260095 0.697686626647604 0
          0.5603548691666183 0.5867057325922087 0 1.0467100630788646 0.23721167764408518 0
          0.16365586211888064 -0.007971922814116097 0 -0.7128758564545981 0 0
          1.035931373911561 0.2268082350156324 0 0.9831015293431784 0.5208633406391435 0
          1.1182269631245445 0.9628111374950353 0 1.0394000745330754 0.9868148847335687 0
          0.6823884224764118 0.8667709672643218 0 0.4368171377421347 0 0
          0.9999999999999998 0 0 1 0 0
          1 0 0 0.8053594361232744 0 0
          1 0 0 1 0 0
          1 0 0 1 0 0
          1.2551375664469893 -0.20229296630197235 0 1.0565203295285632 0 0
          1.645915247987398 -0.808436539505053 0 3.4261647594867912 -3.29216265695487 0
          2.572842114989321 -1.4710944612333463 0 1.304067204415659 -0.7518199110918223 0
          1.6582201119959235 -0.6896671139107224 0 1.247261048192744 -0.5885398781525166 0
          -1.525287348966607 1.022509544926531 0 0 0 0
          <InformationKey name="L2_NORM_RANGE" location="vtkDataArray" length="2">
            <Value index="0">
              0
            </Value>
            <Value index="1">
              4.7515197484
            </Value>
          </InformationKey>
        </DataArray>
        <DataArray type="Float64" Name="Pressure" format="ascii" RangeMin="-20.054254768484526" RangeMax="4.746608963017587">
          0.2713906049024283 -0.0842325329691822 0.03986788966050725 -0.38163059421715717 -0.6970875939379888 0.4894455154426348
          -0.661801344620813 -3.548598406860463 -1.247876418793302 0.36471223763745 -1.6542841646585988 -0.6657378738093809
          1.342773705394785 -9.597466677930017 -10.045702227042133 -1.8018120514965315 -14.919096867130833 -0.46285192487440147
          -6.243291613522499 -3.4461255891123477 -8.544318731847202 -2.731846546313497 0.4506128452335647 -5.986778672073721
          -8.996593019704399 -0.44032776581461286 -0.4943587059357599 -3.795220948493459 2.764681493805817 0.3833605516174926
          -3.4777202439630908 0.5792452911640785 2.845923696607244 2.733224839760407 -2.1225783049191875 0.0869934398361008
          0.8140723991761848 3.2131858139819225 1.0406048845466458 2.037180244075925 3.596470057927045 1.6056298643076052
          2.4209384986915143 3.7833746277806726 1.62726149814195 0.14477383632187585 2.5591988151072798 0.723342982016777
          1.3588173770892862 2.8299891426546653 0.7923724488290993 2.1737227958814556 2.1690347594562733 2.0324958496292034
          3.715059333196443 3.1903086362092257 2.49698988396442 3.6657956938272207 2.7964535733207923 3.464610041420711
          1.8449785601645967 1.285175756938393 2.0030118268127177 1.9413594190442414 3.63099314099166 3.1502463545200983
          3.9085232854372682 2.000574432841955 3.9599891447470443 4.00990327037034 2.1771108636462513 2.9022791865455453
          3.2637264878104464 3.7770280718078997 4.162325921077188 4.6006431743317755 2.0178810308748965 2.1072194072507022
          2.3960944010775336 4.746608963017587 2.875280052092834 3.6743427237872073 4.325269861202388 4.324310109278817
          -0.1076603120752489 -0.07729769295778949 -20.054254768484526 -12.998870489699081 -4.225341327149346 -0.162906206384829
          -1.0312304190352792 -0.2450013185720944 -13.356519688247026 -2.8660774830929228
        </DataArray>
        <DataArray type="Float64" Name="BTraction" NumberOfComponents="3" format="ascii" RangeMin="0" RangeMax="5.70915639251627">
          -0.005709993899182897 -0.08595248792329073 0 0 0 0
          0 0 0 0.02309479644261891 0.170566121199254 0
          0 0 0 0 0 0
          0 0 0 0 0 0
          0 0 0 0.012494063965244776 -0.2685524578012392 0
          0 0 0 0 0 0
          0 0 0 0 0 0
          0 0 0 0 0 0
          0 0 0 0 0 0
          0 0 0 0 0 0
          -4.763395875713601 -2.982418605268964 0 0 0 0
          0 0 0 -5.6866708561105455 -0.5062028135760883 0
          0 0 0 0 0 0
          0 0 0 0.9599801546245554 -2.4298718204003547 0
          -1.9253210403289207 -0.2779829584531125 0 0 0 0
          0 0 0 -0.004383829331443033 -0.8007088290822476 0
          -2.984738810356254 0.022673727785506186 0 -2.801874239575674 0.13860940349990625 0
          0 0 0 0 0 0
          0 0 0 -3.106516240782253 0.018746258183838977 0
          0 0 0 0 0 0
          -3.589723392869215 -0.06342042203967527 0 0 0 0
          0 0 0 -1.8334945833679226 1.8470420699580667 0
          0 0 0 0 0 0
          0 0 0 0 0 0
          0 0 0 0 0 0
          0 0 0 0 0 0
          0 0 0 0 0 0
          0.029226227487021767 3.717601048467244 0 0 0 0
          0 0 0 0 0 0
          0 0 0 0 0 0
          0 0 0 0 0 0
          -0.0113940346296505 -1.8051735711685244 0 0 0 0
          -0.0343098318678134 3.800846339474895 0 0 0 0
          0 0 0 0 0 0
          0 0 0 -0.15118420612218883 4.075464215709955 0
          0 0 0 0 0 0
          0 0 0 0 0 0
          0 0 0 -0.02740968043429981 4.382119064117195 0
          1.0185948004830947 -1.0199010130137458 0 2.1355294736791914 -0.00867078326892303 0
          2.427923282777861 -0.030162475454445954 0 -0.011990498053078958 4.555653418977128 0
          2.9119302186851317 -0.05110022138635956 0 3.6297823913030025 -0.07605275872557589 0
          4.215724735702097 -0.054888616282031594 0 2.491509574950998 1.8547158445991825 0
          0 0 0 -0.003948273699258191 0.02914205041607812 0
          0 0 0 0 0 0
          0 0 0 0 0 0
          0 0 0 0 0 0
          0 0 0 -2.827685693338343 -0.24513439271850265 0
          <InformationKey name="L2_NORM_RANGE" location="vtkDataArray" length="2">
            <Value index="0">
              0
            </Value>
            <Value index="1">
              5.7091563925
            </Value>
          </InformationKey>
        </DataArray>
        <DataArray type="Float64" Name="Sigma" NumberOfComponents="6" format="ascii" RangeMin="0.0038703094069176412" RangeMax="0.9354117882773648">
          -0.016786347442478488 0.018519664758824248 0 -0.01716838118348288 0 0
          -0.021446363433257724 0.021744693366692814 0 0.0024023985680710676 0 0
          -0.04755002428961142 0.045458216785193364 0 -0.014507051592085289 0 0
          -0.030114017544714537 0.02569770540662649 0 0.03603175383585402 0 0
          -0.3238128948035299 0.3296226174256481 0 0.06863796302869524 0 0
          -0.04117872863861042 0.04532698942204206 0 -0.014870315927875603 0 0
          0.008002524765980113 -0.009664390238485419 0 -0.027631470264038033 0 0
          0.04003041089343196 -0.041312210647266416 0 0.011873172494198968 0 0
          -0.2300019841074261 0.22930848218459096 0 -0.24705604166767733 0 0
          -0.012492594818124089 0.01332969672806708 0 0.011132394529115417 0 0
          -0.32006809007187076 0.3063386691291061 0 -0.4676461932829392 0 0
          -0.054239862636588906 0.05256891016975618 0 -0.07558035496565027 0 0
          -0.16871913057125282 0.17189838851312655 0 -0.20782627788342425 0 0
          0.5965206494502003 -0.585728796038768 0 -0.41961900090289533 0 0
          0.16374585551825038 -0.1598881858821323 0 0.05719584302429559 0 0
          0.2603746749307334 -0.23946453451617716 0 -0.22809523960012912 0 0
          0.01346159635601532 -0.0223477013246781 0 0.530320535092811 0 0
          0.061245545878747545 -0.05951679495499201 0 -0.03286177429437154 0 0
          -0.3300073324359508 0.35449282635790014 0 0.40711259697147884 0 0
          0.0382208586477073 -0.06936647733991644 0 0.10368458273762939 0 0
          0.38953936124988126 -0.39774189996404824 0 0.437856542044563 0 0
          0.13177696333676625 -0.14139178063765473 0 0.21366626645260614 0 0
          0.011103707147559743 -0.013328931136532563 0 0.001442962513156668 0 0
          -0.2437648889568936 0.24449842316678655 0 0.582731117753849 0 0
          -0.11270359745237704 0.12174471669222428 0 0.601187021491542 0 0
          0.10878652390827218 -0.10642961317537726 0 -0.2674351351769952 0 0
          0.2106825540431791 -0.18731877822708415 0 -0.5485808003895563 0 0
          -0.16238876159920668 0.11601788878800198 0 -0.5961087824445077 0 0
          -0.19787934195785914 0.20342851157902914 0 -0.28615559921986106 0 0
          0.028577138897396468 -0.03782049723014094 0 0.010285629961182943 0 0
          0.30251795849589164 -0.311491215980688 0 0.3729013377885605 0 0
          0.014433901460343523 -0.012332929986473024 0 -0.004718445776203811 0 0
          -0.2311711221777045 0.23363427130301848 0 0.04811824277416999 0 0
          0.07568250319592494 -0.07149069706331836 0 0.1979064544039647 0 0
          0.1790192771702302 -0.17938539604265472 0 0.03990953464974542 0 0
          -0.38590374569355873 0.4165705656280709 0 0.2781629873835551 0 0
          -0.026498538093894755 0.02610001320774776 0 -0.06866586508764565 0 0
          0.10963677635800742 -0.11535331487773251 0 -0.007184056573099444 0 0
          0.1385455379564375 -0.1271406365990035 0 -0.07893023397752774 0 0
          0.052050835552790435 -0.05451279087770213 0 0.04266735502896038 0 0
          -0.040005989011378536 0.04100501899690684 0 -0.0760341052185593 0 0
          -0.1439746707237346 0.13608923278401316 0 0.011477862823707302 0 0
          -0.05086910637840105 0.055845008098660186 0 -0.09008737529593404 0 0
          -0.14388069669882161 0.1526344941301736 0 -0.07223198358240962 0 0
          -0.03376485305850281 0.02531677133473589 0 0.1214695001227667 0 0
          0.23481067070409237 -0.22699331349253649 0 0.10688140747902046 0 0
          -0.019683632297013788 0.011501664977936338 0 -0.15960910085403585 0 0
          0.21844956474192395 -0.22327376634872084 0 0.0302281210595588 0 0
          0.08498823553752455 -0.08469486630820831 0 -0.0064203125067730515 0 0
          -0.06353582524612743 0.060140216991441474 0 -0.049333417674013884 0 0
          0.010933816651572283 -0.019969741531129653 0 -0.08703727713812287 0 0
          -0.04625713249439806 0.041394890655641926 0 -0.030226679739422297 0 0
          0.09007182447076564 -0.07335288486894498 0 -0.04993996086888017 0 0
          -0.17332857051373748 0.17261012310678436 0 0.06205548850518144 0 0
          0.019269275496831422 -0.01798662684603772 0 -0.025086854378326938 0 0
          -0.08253639248032497 0.07891236198211653 0 -0.003951839760400388 0 0
          -0.0669917756537597 0.05708185962852534 0 -0.13714970130685777 0 0
          -0.03485654523454732 0.03478381143760055 0 -0.019418988236442763 0 0
          -0.04988693413559773 0.06005315475973397 0 0.08168174902728709 0 0
          -0.03852973790005769 0.04415372237372137 0 -0.0073044666340582685 0 0
          0.07185324244762331 -0.0691455338176678 0 0.007367921329785645 0 0
          0.04796032612600706 -0.04459502422797863 0 0.09645881513959666 0 0
          0.036434193074714065 -0.03884388393051706 0 -0.017796606606261037 0 0
          -0.03525891673839857 0.03675876760817343 0 0.04531889005166063 0 0
          0.10179946653621859 -0.11044060361798844 0 -0.0035526348905906818 0 0
          0.0007416534200088603 -0.0041831081957959156 0 -0.028674816996480987 0 0
          -0.12149025862667182 0.1223877030982775 0 0.02814040186887701 0 0
          0.013407443443023496 -0.012861021192077285 0 0.028939527009501833 0 0
          -0.07690463081668539 0.07806350688919782 0 -0.08435357583302813 0 0
          0.07976135419895536 -0.07936835432972676 0 0.23282951273881447 0 0
          0.026830156139531706 -0.028960978778395027 0 0.03826354715734984 0 0
          0.051397125690686205 -0.05408215024917456 0 0.04958861556863503 0 0
          0.02550964925051555 -0.02630314707466578 0 0.06520885899951179 0 0
          -0.023941308921492675 0.02795392332988735 0 0.057384452499634336 0 0
          -0.06888172379876627 0.06538999280613263 0 0.047386972703114254 0 0
          -0.20853958589018542 0.21556970596879535 0 -0.021520214330391117 0 0
          0.010290663831919188 -0.008816447989139014 0 0.007165198279132269 0 0
          0.0008469745272372638 -0.0017291766251082423 0 0.0033573616508600418 0 0
          -0.01086386268664283 0.013432209186227334 0 0.03317979905180719 0 0
          -0.08966827449141615 0.08532830180746274 0 0.0184097385999133 0 0
          -0.0020836033131674224 0.005008752243230201 0 0.04741427900617394 0 0
          0.007931925875173718 -0.011110821242027877 0 0.08866521677894612 0 0
          -0.005916398350573461 0.006161338281926038 0 0.0547213964623551 0 0
          -0.009521152517650391 0.018103620186060196 0 0.018562763449773128 0 0
          -0.020708450508038205 0.020211072918511975 0 0.011428087124747854 0 0
          -0.007758971930247293 0.007152063963650946 0 -0.0020893693077159835 0 0
          0.02554312080228849 -0.034292783839915346 0 -0.2441268155489287 0 0
          -0.07184928718854477 0.0633920614120757 0 -0.2857551670120353 0 0
          -0.34788531261393885 0.35174729864098364 0 0.19817837443376723 0 0
          0.034500429596699286 -0.03614043694136605 0 -0.06738159808543354 0 0
          0.10842539368153944 -0.11451492482651858 0 0.0194371787239502 0 0
          -0.0412894345869272 0.042244898697504814 0 0.029199472512329277 0 0
          -0.1193384498198499 0.10771676591137072 0 -0.3130355083727115 0 0
          -0.35289104636223423 0.37255797889184594 0 0.2759762436177706 0 0
          <InformationKey name="L2_NORM_RANGE" location="vtkDataArray" length="2">
            <Value index="0">
              0.0038703094069
            </Value>
            <Value index="1">
              0.93541178828
            </Value>
          </InformationKey>
        </DataArray>
        <DataArray type="Float64" Name="ALEdispl" NumberOfComponents="3" format="ascii" RangeMin="0" RangeMax="0">
          0 0 0 0 0 0
          0 0 0 0 0 0
          0 0 0 0 0 0
          0 0 0 0 0 0
          0 0 0 0 0 0
          0 0 0 0 0 0
          0 0 0 0 0 0
          0 0 0 0 0 0
          0 0 0 0 0 0
          0 0 0 0 0 0
          0 0 0 0 0 0
          0 0 0 0 0 0
          0 0 0 0 0 0
          0 0 0 0 0 0
          0 0 0 0 0 0
          0 0 0 0 0 0
          0 0 0 0 0 0
          0 0 0 0 0 0
          0 0 0 0 0 0
          0 0 0 0 0 0
          0 0 0 0 0 0
          0 0 0 0 0 0
          0 0 0 0 0 0
          0 0 0 0 0 0
          0 0 0 0 0 0
          0 0 0 0 0 0
          0 0 0 0 0 0
          0 0 0 0 0 0
          0 0 0 0 0 0
          0 0 0 0 0 0
          0 0 0 0 0 0
          0 0 0 0 0 0
          0 0 0 0 0 0
          0 0 0 0 0 0
          0 0 0 0 0 0
          0 0 0 0 0 0
          0 0 0 0 0 0
          0 0 0 0 0 0
          0 0 0 0 0 0
          0 0 0 0 0 0
          0 0 0 0 0 0
          0 0 0 0 0 0
          0 0 0 0 0 0
          0 0 0 0 0 0
          0 0 0 0 0 0
          0 0 0 0 0 0
          0 0 0 0 0 0
          <InformationKey name="L2_NORM_RANGE" location="vtkDataArray" length="2">
            <Value index="0">
              0
            </Value>
            <Value index="1">
              0
            </Value>
          </InformationKey>
        </DataArray>
        <DataArray type="Float64" Name="ALEveloc" NumberOfComponents="3" format="ascii" RangeMin="0" RangeMax="0">
          0 0 0 0 0 0
          0 0 0 0 0 0
          0 0 0 0 0 0
          0 0 0 0 0 0
          0 0 0 0 0 0
          0 0 0 0 0 0
          0 0 0 0 0 0
          0 0 0 0 0 0
          0 0 0 0 0 0
          0 0 0 0 0 0
          0 0 0 0 0 0
          0 0 0 0 0 0
          0 0 0 0 0 0
          0 0 0 0 0 0
          0 0 0 0 0 0
          0 0 0 0 0 0
          0 0 0 0 0 0
          0 0 0 0 0 0
          0 0 0 0 0 0
          0 0 0 0 0 0
          0 0 0 0 0 0
          0 0 0 0 0 0
          0 0 0 0 0 0
          0 0 0 0 0 0
          0 0 0 0 0 0
          0 0 0 0 0 0
          0 0 0 0 0 0
          0 0 0 0 0 0
          0 0 0 0 0 0
          0 0 0 0 0 0
          0 0 0 0 0 0
          0 0 0 0 0 0
          0 0 0 0 0 0
          0 0 0 0 0 0
          0 0 0 0 0 0
          0 0 0 0 0 0
          0 0 0 0 0 0
          0 0 0 0 0 0
          0 0 0 0 0 0
          0 0 0 0 0 0
          0 0 0 0 0 0
          0 0 0 0 0 0
          0 0 0 0 0 0
          0 0 0 0 0 0
          0 0 0 0 0 0
          0 0 0 0 0 0
          0 0 0 0 0 0
          <InformationKey name="L2_NORM_RANGE" location="vtkDataArray" length="2">
            <Value index="0">
              0
            </Value>
            <Value index="1">
              0
            </Value>
          </InformationKey>
        </DataArray>
      </PointData>
      <CellData>
        <DataArray type="UInt8" Name="vtkGhostType" format="ascii" RangeMin="0" RangeMax="1">
          0 0 0 0 0 0
          0 0 1 0 0 1
          0 1 0 0 1 1
          1 0 0 0 0 0
          1 1 0 1 1 0
          1 1 0 1 0 0
          0 0 0 0 0 0
          0 0 0 0 0 0
          0 0 0 0 0 0
          0 0 0 0 0 0
          0 0 0 0 0 0
          0 0 0 0 0 0
          0 0 0 0 0 0
          0 0 0 0 0 0
          0 1 0 0 0 0
          0 0 0 1 0 0
          0 0 0 0 0 1
          0 0 0 0 0 0
          0 0 0 0 0 0
          0 0 0 0 0 0
          0 0 0 0 0 0
          0 0 0 0 0 0
          0 1 0 0 0 0
          0 0 0 0 0 0
          0 0 0 0 0 0
        </DataArray>
        <DataArray type="Float64" Name="PStrain" NumberOfComponents="6" format="ascii" RangeMin="0.1732050807568877" RangeMax="0.1732050807568877">
          0.09999999999999999 0.09999999999999999 0 0.09999999999999999 0 0
          0.09999999999999999 0.09999999999999999 0 0.09999999999999999 0 0
          0.09999999999999999 0.09999999999999999 0 0.09999999999999999 0 0
          0.09999999999999999 0.09999999999999999 0 0.09999999999999999 0 0
          0.09999999999999999 0.09999999999999999 0 0.09999999999999999 0 0
          0.09999999999999999 0.09999999999999999 0 0.09999999999999999 0 0
          0.09999999999999999 0.09999999999999999 0 0.09999999999999999 0 0
          0.09999999999999999 0.09999999999999999 0 0.09999999999999999 0 0
          0.09999999999999999 0.09999999999999999 0 0.09999999999999999 0 0
          0.09999999999999999 0.09999999999999999 0 0.09999999999999999 0 0
          0.09999999999999999 0.09999999999999999 0 0.09999999999999999 0 0
          0.09999999999999999 0.09999999999999999 0 0.09999999999999999 0 0
          0.09999999999999999 0.09999999999999999 0 0.09999999999999999 0 0
          0.09999999999999999 0.09999999999999999 0 0.09999999999999999 0 0
          0.09999999999999999 0.09999999999999999 0 0.09999999999999999 0 0
          0.09999999999999999 0.09999999999999999 0 0.09999999999999999 0 0
          0.09999999999999999 0.09999999999999999 0 0.09999999999999999 0 0
          0.09999999999999999 0.09999999999999999 0 0.09999999999999999 0 0
          0.09999999999999999 0.09999999999999999 0 0.09999999999999999 0 0
          0.09999999999999999 0.09999999999999999 0 0.09999999999999999 0 0
          0.09999999999999999 0.09999999999999999 0 0.09999999999999999 0 0
          0.09999999999999999 0.09999999999999999 0 0.09999999999999999 0 0
          0.09999999999999999 0.09999999999999999 0 0.09999999999999999 0 0
          0.09999999999999999 0.09999999999999999 0 0.09999999999999999 0 0
          0.09999999999999999 0.09999999999999999 0 0.09999999999999999 0 0
          0.09999999999999999 0.09999999999999999 0 0.09999999999999999 0 0
          0.09999999999999999 0.09999999999999999 0 0.09999999999999999 0 0
          0.09999999999999999 0.09999999999999999 0 0.09999999999999999 0 0
          0.09999999999999999 0.09999999999999999 0 0.09999999999999999 0 0
          0.09999999999999999 0.09999999999999999 0 0.09999999999999999 0 0
          0.09999999999999999 0.09999999999999999 0 0.09999999999999999 0 0
          0.09999999999999999 0.09999999999999999 0 0.09999999999999999 0 0
          0.09999999999999999 0.09999999999999999 0 0.09999999999999999 0 0
          0.09999999999999999 0.09999999999999999 0 0.09999999999999999 0 0
          0.09999999999999999 0.09999999999999999 0 0.09999999999999999 0 0
          0.09999999999999999 0.09999999999999999 0 0.09999999999999999 0 0
          0.09999999999999999 0.09999999999999999 0 0.09999999999999999 0 0
          0.09999999999999999 0.09999999999999999 0 0.09999999999999999 0 0
          0.09999999999999999 0.09999999999999999 0 0.09999999999999999 0 0
          0.09999999999999999 0.09999999999999999 0 0.09999999999999999 0 0
          0.09999999999999999 0.09999999999999999 0 0.09999999999999999 0 0
          0.09999999999999999 0.09999999999999999 0 0.09999999999999999 0 0
          0.09999999999999999 0.09999999999999999 0 0.09999999999999999 0 0
          0.09999999999999999 0.09999999999999999 0 0.09999999999999999 0 0
          0.09999999999999999 0.09999999999999999 0 0.09999999999999999 0 0
          0.09999999999999999 0.09999999999999999 0 0.09999999999999999 0 0
          0.09999999999999999 0.09999999999999999 0 0.09999999999999999 0 0
          0.09999999999999999 0.09999999999999999 0 0.09999999999999999 0 0
          0.09999999999999999 0.09999999999999999 0 0.09999999999999999 0 0
          0.09999999999999999 0.09999999999999999 0 0.09999999999999999 0 0
          0.09999999999999999 0.09999999999999999 0 0.09999999999999999 0 0
          0.09999999999999999 0.09999999999999999 0 0.09999999999999999 0 0
          0.09999999999999999 0.09999999999999999 0 0.09999999999999999 0 0
          0.09999999999999999 0.09999999999999999 0 0.09999999999999999 0 0
          0.09999999999999999 0.09999999999999999 0 0.09999999999999999 0 0
          0.09999999999999999 0.09999999999999999 0 0.09999999999999999 0 0
          0.09999999999999999 0.09999999999999999 0 0.09999999999999999 0 0
          0.09999999999999999 0.09999999999999999 0 0.09999999999999999 0 0
          0.09999999999999999 0.09999999999999999 0 0.09999999999999999 0 0
          0.09999999999999999 0.09999999999999999 0 0.09999999999999999 0 0
          0.09999999999999999 0.09999999999999999 0 0.09999999999999999 0 0
          0.09999999999999999 0.09999999999999999 0 0.09999999999999999 0 0
          0.09999999999999999 0.09999999999999999 0 0.09999999999999999 0 0
          0.09999999999999999 0.09999999999999999 0 0.09999999999999999 0 0
          0.09999999999999999 0.09999999999999999 0 0.09999999999999999 0 0
          0.09999999999999999 0.09999999999999999 0 0.09999999999999999 0 0
          0.09999999999999999 0.09999999999999999 0 0.09999999999999999 0 0
          0.09999999999999999 0.09999999999999999 0 0.09999999999999999 0 0
          0.09999999999999999 0.09999999999999999 0 0.09999999999999999 0 0
          0.09999999999999999 0.09999999999999999 0 0.09999999999999999 0 0
          0.09999999999999999 0.09999999999999999 0 0.09999999999999999 0 0
          0.09999999999999999 0.09999999999999999 0 0.09999999999999999 0 0
          0.09999999999999999 0.09999999999999999 0 0.09999999999999999 0 0
          0.09999999999999999 0.09999999999999999 0 0.09999999999999999 0 0
          0.09999999999999999 0.09999999999999999 0 0.09999999999999999 0 0
          0.09999999999999999 0.09999999999999999 0 0.09999999999999999 0 0
          0.09999999999999999 0.09999999999999999 0 0.09999999999999999 0 0
          0.09999999999999999 0.09999999999999999 0 0.09999999999999999 0 0
          0.09999999999999999 0.09999999999999999 0 0.09999999999999999 0 0
          0.09999999999999999 0.09999999999999999 0 0.09999999999999999 0 0
          0.09999999999999999 0.09999999999999999 0 0.09999999999999999 0 0
          0.09999999999999999 0.09999999999999999 0 0.09999999999999999 0 0
          0.09999999999999999 0.09999999999999999 0 0.09999999999999999 0 0
          0.09999999999999999 0.09999999999999999 0 0.09999999999999999 0 0
          0.09999999999999999 0.09999999999999999 0 0.09999999999999999 0 0
          0.09999999999999999 0.09999999999999999 0 0.09999999999999999 0 0
          0.09999999999999999 0.09999999999999999 0 0.09999999999999999 0 0
          0.09999999999999999 0.09999999999999999 0 0.09999999999999999 0 0
          0.09999999999999999 0.09999999999999999 0 0.09999999999999999 0 0
          0.09999999999999999 0.09999999999999999 0 0.09999999999999999 0 0
          0.09999999999999999 0.09999999999999999 0 0.09999999999999999 0 0
          0.09999999999999999 0.09999999999999999 0 0.09999999999999999 0 0
          0.09999999999999999 0.09999999999999999 0 0.09999999999999999 0 0
          0.09999999999999999 0.09999999999999999 0 0.09999999999999999 0 0
          0.09999999999999999 0.09999999999999999 0 0.09999999999999999 0 0
          0.09999999999999999 0.09999999999999999 0 0.09999999999999999 0 0
          0.09999999999999999 0.09999999999999999 0 0.09999999999999999 0 0
          0.09999999999999999 0.09999999999999999 0 0.09999999999999999 0 0
          0.09999999999999999 0.09999999999999999 0 0.09999999999999999 0 0
          0.09999999999999999 0.09999999999999999 0 0.09999999999999999 0 0
          0.09999999999999999 0.09999999999999999 0 0.09999999999999999 0 0
          0.09999999999999999 0.09999999999999999 0 0.09999999999999999 0 0
          0.09999999999999999 0.09999999999999999 0 0.09999999999999999 0 0
          0.09999999999999999 0.09999999999999999 0 0.09999999999999999 0 0
          0.09999999999999999 0.09999999999999999 0 0.09999999999999999 0 0
          0.09999999999999999 0.09999999999999999 0 0.09999999999999999 0 0
          0.09999999999999999 0.09999999999999999 0 0.09999999999999999 0 0
          0.09999999999999999 0.09999999999999999 0 0.09999999999999999 0 0
          0.09999999999999999 0.09999999999999999 0 0.09999999999999999 0 0
          0.09999999999999999 0.09999999999999999 0 0.09999999999999999 0 0
          0.09999999999999999 0.09999999999999999 0 0.09999999999999999 0 0
          0.09999999999999999 0.09999999999999999 0 0.09999999999999999 0 0
          0.09999999999999999 0.09999999999999999 0 0.09999999999999999 0 0
          0.09999999999999999 0.09999999999999999 0 0.09999999999999999 0 0
          0.09999999999999999 0.09999999999999999 0 0.09999999999999999 0 0
          0.09999999999999999 0.09999999999999999 0 0.09999999999999999 0 0
          0.09999999999999999 0.09999999999999999 0 0.09999999999999999 0 0
          0.09999999999999999 0.09999999999999999 0 0.09999999999999999 0 0
          0.09999999999999999 0.09999999999999999 0 0.09999999999999999 0 0
          0.09999999999999999 0.09999999999999999 0 0.09999999999999999 0 0
          0.09999999999999999 0.09999999999999999 0 0.09999999999999999 0 0
          0.09999999999999999 0.09999999999999999 0 0.09999999999999999 0 0
          0.09999999999999999 0.09999999999999999 0 0.09999999999999999 0 0
          0.09999999999999999 0.09999999999999999 0 0.09999999999999999 0 0
          0.09999999999999999 0.09999999999999999 0 0.09999999999999999 0 0
          0.09999999999999999 0.09999999999999999 0 0.09999999999999999 0 0
          0.09999999999999999 0.09999999999999999 0 0.09999999999999999 0 0
          0.09999999999999999 0.09999999999999999 0 0.09999999999999999 0 0
          0.09999999999999999 0.09999999999999999 0 0.09999999999999999 0 0