<?xml version="1.0"?>
<VTKFile type="UnstructuredGrid" version="0.1" byte_order="LittleEndian" header_type="UInt32" compressor="vtkZLibDataCompressor">
  <UnstructuredGrid>
    <Piece NumberOfPoints="97" NumberOfCells="154">
      <PointData>
        <DataArray type="Float64" Name="Velocity" NumberOfComponents="3" format="ascii" RangeMin="0" RangeMax="4.192339818879681">
          0.6936352054925671 0.48246390482113116 0 1.1457416831310892 0 0
          0.8682695916865277 -0.007909216268425745 0 0.9533956010754941 0.02998316267274555 0
          1.054616644454867 0.05527843901395204 0 0.9959234727099386 0 0
          0.751019705705606 -0.45331427281175085 0 1.0619889371088773 0 0
          1.001431972575988 -0.04155674857103475 0 1.0043913470901615 0.003708424274513066 0
          0.9982633002933908 0 0 0.9642430083715983 0 0
          1.0080804523047489 0 0 0.997775733579714 0 0
          0.9969363019116392 0.002276194417548296 0 0.9978442911201084 0.002448760927379729 0
          1.0040353697474629 0 0 0.9935482060025158 0 0
          1.0020992963583795 0.004388635440413843 0 0.9962420891758912 -0.0018639226637443783 0
          0.999732427200107 -0.0018935015391660617 0 1.0152069767988792 0 0
          0.9922963595244465 0 0 1.0007442228983365 0.01189329591463444 0
          0.9975789576912796 -0.021806102317943124 0 1.0038172885898493 -0.011085757217682167 0
          1.0272279168826788 0 0 1.0305596775789208 0 0
          0.9748824319486784 -0.008302051338310329 0 1.0221203868695259 -0.07867338791709275 0
          0.9679952083530424 -0.04716646439710917 0 1.0228595909739344 -0.0427755696180603 0
          1.087665707458684 0 0 1.0669145870122818 0 0
          1.0505034235654604 -0.1675578365470653 0 0.9378722594869862 -0.20085815850095748 0
          0.9160368175556108 -0.011085147311485744 0 1.016967376242975 0 0
          1.2676955416176299 -0.2192300575652859 0 1.0553620364783025 -0.4216034401086893 0
          0.7397067472078565 -0.3663040610448978 0 1.275752688248083 -0.5995301100742974 0
          0.7902734599214892 -0.07380717598792802 0 1.0401539148219856 -0.8016830330223299 0
          1.0113450214221225 -0.5884263675372716 0 0.652334024539228 -0.5256869620642084 0
          1.1598232002490054 0 0 1.3510489856036954 -0.6678032362609024 0
          0.48842924377054503 -0.2653138987400338 0 1.5942968815521033 -0.7417289126297534 0
          0.9047992367232477 -1.0495084301413802 0 0.7334381800680404 0.0013120491034202021 0
          0.46358959393740645 -0.8128425367726064 0 1.6001872388889515 -1.3192806311733387 0
          0.6040571783679582 -0.33539018238470863 0 0.5401428959878685 -1.1554843652535247 0
          1.2959890125384823 -0.7844240281957926 0 0.22241448176973072 -0.6475811991472652 0
          1.0625108635833718 -1.83666044545334 0 1.3205209352849943 0 0
          0.21277508551635355 -1.2306637008851262 0 0.3807495067360316 -0.2751297621459174 0
          1.5977425469635291 -1.8544641809727629 0 -0.1368055421555089 -0.5734747861632192 0
          0.3175161376632023 -2.1061648611928776 0 2.6604440112915553 -1.717343246300881 0
          0.02735277149714603 -0.7444611143956698 0 1.1597734133155566 -2.8701932617323007 0
          -0.9428411517296602 -1.0104644101047549 0 3.1298652948311094 -2.789203541008775 0
          0.7788171240315355 -0.36978438799194935 0 -0.804851835561778 -2.4656979094441827 0
          0.9015982041707986 0 0 -0.04530383618463054 -0.3546851336851392 0
          1.6848924454409806 0.10400237985078897 0 -0.692485562781606 -0.8569524188982016 0
          -1.1442663770966812 0.19853872692290953 0 -1.2113738542276329 1.2004071117448016 0
          0.1376142739859909 0 0 0.16572528585628007 -0.30345887148499134 0
          -0.30115012414385045 0.1300818931256929 0 -0.008896397151940832 -0.5636092230720164 0
          0 0 0 0.16487027132171617 0 0
          0 0 0 0 0 0
          0 0 0 0 0 0
          1.3477510452442887 -0.11517030042477508 0 1.6170925538799332 -0.35939777516966553 0
          1.086817515457936 0 0 1.9594163329394276 0.9040747156088724 0
          2.6872735435859676 -0.8859228587614718 0 2.736474227387908 -1.1747918705872153 0
          1.5042093811812214 -0.9756298450049599 0 0.7438075412864861 2.6353694542286217 0
          0 0 0
          <InformationKey name="L2_NORM_RANGE" location="vtkDataArray" length="2">
            <Value index="0">
              0
            </Value>
            <Value index="1">
              4.1923398189
            </Value>
          </InformationKey>
        </DataArray>
        <DataArray type="Float64" Name="Pressure" format="ascii" RangeMin="-18.10132664560598" RangeMax="0.34887870880238486">
          0.050896318665067844 -0.15932940688737018 0.11793504631972002 -0.15970202059811456 -0.14608646760017013 -0.05654604577055041
          0.08370893113012967 -0.36922531007978804 -0.08572586505768749 -0.1224673791971155 -0.1027478949260116 -0.04413899162606244
          -0.1449201379939985 -0.10473687249649252 -0.11065163440723844 -0.1055904986595429 -0.11445167380106512 -0.09807586483884877
          -0.12191842288175213 -0.10665296993486593 -0.09379719348120515 -0.128784661510837 -0.06805702049149409 -0.13992072101712985
          -0.10931788255935385 -0.06846983389687407 -0.105341338992161 -0.04935900606877377 -0.16007741053535182 -0.09665470517966378
          -0.1107579357479663 0.04990148505152697 -0.20793657164752935 -0.04675881666833595 -0.00747491287827988 -0.12896157321816865
          -0.197484754681596 -0.19024869189899238 -0.023291782066423683 -0.23330233508369225 -0.21985017823976252 -0.2445610744392943
          -0.38783021571626225 -0.5864197251625981 -0.05947917644931719 -0.42583042084775186 -0.40385905711708653 -0.7838361325123124
          -0.3570008845011535 -0.682319567339453 -0.4759995721289938 -0.47848959806940927 -0.688050290317606 -2.1899695897830984
          -0.6489584566626622 -0.786122607074877 -0.03455077186733163 -0.6216737714949286 -2.8369014326212407 -0.7793523085323439
          -1.0682726650216683 -0.5532628671572346 -2.276773502504853 -0.9246104896585099 -3.5016579710387963 -3.996563041970397
          -1.647413544821465 -7.3365176964267755 -3.1151005546831496 -12.00173401859211 -1.1443919174275883 -12.159685614131137
          -0.664842645481118 -1.2999676501491635 -18.10132664560598 -2.49936379731834 -4.9980358108698315 -12.261317368040725
          -0.294993939592827 -1.4913059615445865 -2.645997757141535 -1.0596423444868968 -3.6191360242455963 -0.5574778824775513
          -2.1678188694637384 -1.3509058450275302 -0.8848646276529453 -0.6188205004085132 0.023188601135212428 0.034154599484494064
          0.34887870880238486 -9.026120426585651 -2.978436650772847 -2.36279648540129 -0.9498024347998322 -11.904453408545418
          -6.202547471423639
        </DataArray>
        <DataArray type="Float64" Name="BTraction" NumberOfComponents="3" format="ascii" RangeMin="0" RangeMax="5.812971433191784">
          -0.04889282985039888 0.025251309096308093 0 0.006887200879029782 0.11372656279783853 0
          -0.11662233958866892 0.0012609359123816305 0 0 0 0
          0 0 0 0.0021563070438351453 0.08029215758936178 0
          -0.05488189247824523 -0.040992613835599274 0 0.005584316912802533 -0.2435641934697892 0
          0 0 0 0 0 0
          0.00011926118841393633 0.09492094126922745 0 -0.0025337524050638906 -0.11348497625116435 0
          -0.0005848890239101091 -0.1224177047103736 0 -0.00009946303311770264 0.10335738115709867 0
          0 0 0 0 0 0
          0.00043545115170749965 -0.12264228209549857 0 -0.000164453031184273 0.09520335224433109 0
          0 0 0 0 0 0
          0 0 0 0.0010694638296076353 -0.12417662870681213 0
          -0.00024293273086995552 0.07151686720408128 0 0 0 0
          0 0 0 0 0 0
          0.003007522248727311 -0.12680896729986924 0 0.00022870131257386582 0.05320542845540184 0
          0 0 0 0 0 0
          0 0 0 0 0 0
          0.008962070153361559 -0.18880321445617015 0 -0.0034410923398783 -0.008178095732355227 0
          0 0 0 0 0 0
          0 0 0 0.013095477274822057 -0.2335006126208672 0
          0 0 0 0 0 0
          0 0 0 0 0 0
          0 0 0 0 0 0
          0 0 0 0 0 0
          0.04018182629430702 -0.4155666104437718 0 0 0 0
          0 0 0 0 0 0
          0 0 0 0 0 0
          0 0 0 0 0 0
          0 0 0 0 0 0
          0 0 0 0 0 0
          0 0 0 0.059345774084620065 -0.6418876503734948 0
          0 0 0 0 0 0
          0 0 0 0 0 0
          0 0 0 0 0 0
          0 0 0 0 0 0
          0 0 0 0 0 0
          0 0 0 0 0 0
          0.02025452478648792 -0.5660470079452234 0 0 0 0
          0 0 0 0 0 0
          0 0 0 0 0 0
          -0.03212182034785488 -0.3149244423815111 0 0 0 0
          0 0 0 0 0 0
          -3.499113387551857 -0.2668416964251749 0 -0.00021814639361827305 -0.468465922765635 0
          -2.236371402978783 0.044456914448098496 0 -1.4438501963430723 0.05460808608504835 0
          -0.929564612472446 0.023958480047961642 0 -0.332476587325909 -0.2784603107982807 0
          0 0 0 0 0 0
          -0.005854102535120529 -0.16829370647978023 0 0 0 0
          0 0 0 0 0 0
          0 0 0 0 0 0
          -5.798891342380013 -0.4043464880197146 0
          <InformationKey name="L2_NORM_RANGE" location="vtkDataArray" length="2">
            <Value index="0">
              0
            </Value>
            <Value index="1">
              5.8129714332
            </Value>
          </InformationKey>
        </DataArray>
        <DataArray type="Float64" Name="Sigma" NumberOfComponents="6" format="ascii" RangeMin="0.00007320093448049836" RangeMax="0.692091547728729">
          -0.036757726381134385 0.03697756407888965 0 0.012348839680575907 0 0
          -0.001225245453000331 0.001062047702416706 0 0.006850842222734697 0 0
          -0.009383987882269965 0.009391933029790552 0 0.0013562320653295855 0 0
          0.0020316700955178924 -0.001870212788988337 0 0.0007431619958876446 0 0
          -0.0020256770394231844 0.0019157329069727812 0 -0.003461315059025965 0 0
          0.0017510895053538568 -0.0018337327564887347 0 0.0015709967026640004 0 0
          -0.01909492454772167 0.01897322196432193 0 -0.010208152467604465 0 0
          -0.0014634185990236679 0.0019871139151036808 0 -0.007259238342006207 0 0
          -0.0008960146764252141 0.0008668999029187248 0 -0.00034158309254722033 0 0
          -0.001090384132420717 0.0010758945187833904 0 -0.00042867823921403675 0 0
          0.00028045952234633035 -0.00023565603587445097 0 -0.0001969867703798259 0 0
          0.00265157040310643 -0.0028678176210865333 0 0.0057392043588141 0 0
          0.0004140007389782001 -0.00030740050180771516 0 -0.0004950646628668576 0 0
          -0.0000069195582055280375 0.000027506544261975387 0 -0.00006748249066107824 0 0
          0.00015354770700430737 -0.00021095517070154223 0 0.00014115557311812326 0 0
          0.00011336241419351178 -0.00010038140882396219 0 -0.0002006305598830773 0 0
          -0.000356884481428982 0.00033243048743727613 0 -0.00024961156388601265 0 0
          -0.00002002963602297142 0.000007388525670208981 0 -0.00012148673879896663 0 0
          0.00024950246279775874 -0.0001976147042747428 0 -0.0003825659202797358 0 0
          -0.0002397945020589755 0.00028178234256304256 0 0.00032424870476175066 0 0
          0.0002691845220952705 -0.0003296783147849447 0 0.00026108320980667296 0 0
          -0.001794608981697735 0.0017391820785931907 0 -0.0011980691224001457 0 0
          -0.0013119245602307812 0.0014408605399811026 0 -0.0004885010066024733 0 0
          0.001684720333353987 -0.0017665043746242556 0 -0.00011853520453975665 0 0
          -0.00009108108005686944 0.00017154672948012115 0 0.0015747694076753888 0 0
          -0.002567302628159804 0.0024920591270321925 0 0.0006912781319392092 0 0
          -0.0015660923125054452 0.0017779096444672585 0 -0.0015556960238749628 0 0
          0.0006767307404795444 -0.0007601455131426166 0 0.0006905505847710036 0 0
          0.0006182842311078683 -0.0007166508683853076 0 -0.000986717294585753 0 0
          -0.00034159662228516144 -0.000010704185857120165 0 0.007705163261619059 0 0
          0.004761547187224242 -0.004433323238455716 0 0.004695569936622297 0 0
          -0.008419381283749323 0.0089569021378223 0 0.002088988646906453 0 0
          -0.0007311131222078927 0.0008134072586396646 0 -0.011535727117715652 0 0
          -0.008265235448197234 0.007579412078208695 0 -0.0009306921206986778 0 0
          -0.010323597865435234 0.01060152278643401 0 0.007569510676796145 0 0
          0.00481347444082272 -0.0049659435158933 0 0.01718785445586491 0 0
          0.011502062632340593 -0.01173559114515502 0 0.0026472587690744343 0 0
          -0.007436140606287612 0.00701333434680517 0 -0.006428532402124398 0 0
          -0.021348170018831946 0.021046137401427804 0 0.01124007934165793 0 0
          -0.011769505164201005 0.011629091032736644 0 0.040277991499211636 0 0
          0.025110398984431462 -0.024422739417750024 0 0.02348399619968933 0 0
          -0.04656182735012742 0.046964002914205286 0 0.0321605456320731 0 0
          0.02656653828903931 -0.026304239756036202 0 -0.01378506190024064 0 0
          0.020516293466314072 -0.022448734886193023 0 0.01309663739563998 0 0
          -0.01779879057101505 0.018468179817778516 0 0.06753722150509087 0 0
          0.05601435560276283 -0.05882862058714439 0 0.12385391616233718 0 0
          -0.00761596976192178 0.009338602962758107 0 -0.04285362117514684 0 0
          -0.13361207898228714 0.13830356689154222 0 0.08927171172072375 0 0
          0.043616897728637374 -0.04221937782586616 0 0.029708378189343784 0 0
          0.09906711221547548 -0.10149880798140543 0 0.006043271109902054 0 0
          -0.02291888343048788 0.02920809692849672 0 0.13946344234376984 0 0
          -0.0029805358072060337 0.003051841733492899 0 -0.002299090031321876 0 0
          0.032977786647138345 -0.0337951839623307 0 0.06385225047033961 0 0
          -0.04948213448121347 0.04169381480682902 0 0.007651675360704355 0 0
          0.09388707866574886 -0.09965489403927129 0 0.00509670219921473 0 0
          0.03686913126074613 -0.035305531752740794 0 0.06936192053139553 0 0
          -0.026555462247416416 0.02558675790958987 0 -0.008916539445711875 0 0
          0.07130909335558826 -0.06924027108971172 0 0.03422199149949901 0 0
          0.012299470253249616 -0.015532035599647378 0 0.23608173878370042 0 0
          0.06569691478523006 -0.06883575619812742 0 -0.07180356279000075 0 0
          0.10048340570440098 -0.100994946775914 0 0.05780959052572798 0 0
          0.009717207473656949 -0.005717087306691066 0 -0.032982635696369104 0 0
          -0.3310419688364819 0.3329306169234987 0 0.3688132546215213 0 0
          0.025564010580917604 -0.023610004477868842 0 -0.00420898593854885 0 0
          0.34508391518660847 -0.34730406158310234 0 0.33586353141323316 0 0
          -0.3242360296140516 0.32810546924605966 0 0.11449552443806849 0 0
          0.13150486770244485 -0.13476216352834455 0 -0.0391302735487348 0 0
          -0.03964128938546575 0.048296778303531185 0 0.21234631502913445 0 0
          0.30455747453428844 -0.30063079156165173 0 -0.0740191710500081 0 0
          -0.007900239991856656 0.008885065849995502 0 -0.3527677844438599 0 0
          0.05998926989188653 -0.059580267440374944 0 -0.04109098914115901 0 0
          0.08923306215028129 -0.08904608835187602 0 0.044634206048365044 0 0
          0.04903068973120978 -0.04976777142433411 0 -0.02425516544597201 0 0
          0.0016862931510761713 0.0001464638201430636 0 -0.04383180979420854 0 0
          0.08925341792774973 -0.09874933213208495 0 -0.2370514403791726 0 0
          -0.007985763688747639 0.003349011006392722 0 -0.12154982546854319 0 0
          -0.05088263147335312 0.05506336238372005 0 -0.517651927171041 0 0
          -0.09977240741305657 0.08427830674075987 0 -0.20005345284068204 0 0
          0.1026455170540859 -0.10462474280692799 0 0.055914840628981985 0 0
          -0.0280591381093873 0.032853102397771915 0 -0.05146523769861122 0 0
          -0.06262095765243994 0.06141045676720643 0 -0.05595285023340492 0 0
          0.03264264369297983 -0.03669236805171432 0 -0.03610359227033141 0 0
          -0.3819355077852688 0.39913208940680256 0 0.335350775915512 0 0
          0.06300967646823058 -0.052359826768719475 0 -0.005316578159865603 0 0
          0.02672599508900871 -0.0338093450318635 0 -0.141996278514683 0 0
          0.021473331243255872 -0.02518535633687635 0 -0.04024398142719775 0 0
          0.00865556034750144 -0.005756071679209424 0 -0.01642202011889136 0 0
          -0.017472672590345517 0.0012443386699590815 0 -0.03772206744104127 0 0
          -0.022834811842420033 0.023527542264109323 0 0.003785503699604639 0 0
          -0.05176522039305532 0.049252830251824344 0 -0.015697427206168922 0 0
          -0.018764091748319247 0.020177346145950018 0 -0.018303049446044495 0 0
          0.45598338171141933 -0.44966753122789294 0 -0.2624289949681201 0 0
          -0.15951618623126354 0.15164793554569211 0 -0.2615970362993883 0 0
          -0.04120598116432526 0.043789772752913125 0 -0.09357696732960928 0 0
          -0.32640090041341313 0.32841004777056343 0 0.092481305481895 0 0
          -0.0010201223536739773 -0.00737493526200704 0 0.5713662120114248 0 0
          -0.07341460178830583 0.08151768908641854 0 0.4429426527558119 0 0
          <InformationKey name="L2_NORM_RANGE" location="vtkDataArray" length="2">
            <Value index="0">
              7.320093448e-05
            </Value>
            <Value index="1">
              0.69209154773
            </Value>
          </InformationKey>
        </DataArray>
        <DataArray type="Float64" Name="ALEdispl" NumberOfComponents="3" format="ascii" RangeMin="0" RangeMax="0">
          0 0 0 0 0 0
          0 0 0 0 0 0
          0 0 0 0 0 0
          0 0 0 0 0 0
          0 0 0 0 0 0
          0 0 0 0 0 0
          0 0 0 0 0 0
          0 0 0 0 0 0
          0 0 0 0 0 0
          0 0 0 0 0 0
          0 0 0 0 0 0
          0 0 0 0 0 0
          0 0 0 0 0 0
          0 0 0 0 0 0
          0 0 0 0 0 0
          0 0 0 0 0 0
          0 0 0 0 0 0
          0 0 0 0 0 0
          0 0 0 0 0 0
          0 0 0 0 0 0
          0 0 0 0 0 0
          0 0 0 0 0 0
          0 0 0 0 0 0
          0 0 0 0 0 0
          0 0 0 0 0 0
          0 0 0 0 0 0
          0 0 0 0 0 0
          0 0 0 0 0 0
          0 0 0 0 0 0
          0 0 0 0 0 0
          0 0 0 0 0 0
          0 0 0 0 0 0
          0 0 0 0 0 0
          0 0 0 0 0 0
          0 0 0 0 0 0
          0 0 0 0 0 0
          0 0 0 0 0 0
          0 0 0 0 0 0
          0 0 0 0 0 0
          0 0 0 0 0 0
          0 0 0 0 0 0
          0 0 0 0 0 0
          0 0 0 0 0 0
          0 0 0 0 0 0
          0 0 0 0 0 0
          0 0 0 0 0 0
          0 0 0 0 0 0
          0 0 0 0 0 0
          0 0 0
          <InformationKey name="L2_NORM_RANGE" location="vtkDataArray" length="2">
            <Value index="0">
              0
            </Value>
            <Value index="1">
              0
            </Value>
          </InformationKey>
        </DataArray>
        <DataArray type="Float64" Name="ALEveloc" NumberOfComponents="3" format="ascii" RangeMin="0" RangeMax="0">
          0 0 0 0 0 0
          0 0 0 0 0 0
          0 0 0 0 0 0
          0 0 0 0 0 0
          0 0 0 0 0 0
          0 0 0 0 0 0
          0 0 0 0 0 0
          0 0 0 0 0 0
          0 0 0 0 0 0
          0 0 0 0 0 0
          0 0 0 0 0 0
          0 0 0 0 0 0
          0 0 0 0 0 0
          0 0 0 0 0 0
          0 0 0 0 0 0
          0 0 0 0 0 0
          0 0 0 0 0 0
          0 0 0 0 0 0
          0 0 0 0 0 0
          0 0 0 0 0 0
          0 0 0 0 0 0
          0 0 0 0 0 0
          0 0 0 0 0 0
          0 0 0 0 0 0
          0 0 0 0 0 0
          0 0 0 0 0 0
          0 0 0 0 0 0
          0 0 0 0 0 0
          0 0 0 0 0 0
          0 0 0 0 0 0
          0 0 0 0 0 0
          0 0 0 0 0 0
          0 0 0 0 0 0
          0 0 0 0 0 0
          0 0 0 0 0 0
          0 0 0 0 0 0
          0 0 0 0 0 0
          0 0 0 0 0 0
          0 0 0 0 0 0
          0 0 0 0 0 0
          0 0 0 0 0 0
          0 0 0 0 0 0
          0 0 0 0 0 0
          0 0 0 0 0 0
          0 0 0 0 0 0
          0 0 0 0 0 0
          0 0 0 0 0 0
          0 0 0 0 0 0
          0 0 0
          <InformationKey name="L2_NORM_RANGE" location="vtkDataArray" length="2">
            <Value index="0">
              0
            </Value>
            <Value index="1">
              0
            </Value>
          </InformationKey>
        </DataArray>
      </PointData>
      <CellData>
        <DataArray type="UInt8" Name="vtkGhostType" format="ascii" RangeMin="0" RangeMax="0">
          0 0 0 0 0 0
          0 0 0 0 0 0
          0 0 0 0 0 0
          0 0 0 0 0 0
          0 0 0 0 0 0
          0 0 0 0 0 0
          0 0 0 0 0 0
          0 0 0 0 0 0
          0 0 0 0 0 0
          0 0 0 0 0 0
          0 0 0 0 0 0
          0 0 0 0 0 0
          0 0 0 0 0 0
          0 0 0 0 0 0
          0 0 0 0 0 0
          0 0 0 0 0 0
          0 0 0 0 0 0
          0 0 0 0 0 0
          0 0 0 0 0 0
          0 0 0 0 0 0
          0 0 0 0 0 0
          0 0 0 0 0 0
          0 0 0 0 0 0
          0 0 0 0 0 0
          0 0 0 0 0 0
          0 0 0 0
        </DataArray>
        <DataArray type="Float64" Name="PStrain" NumberOfComponents="6" format="ascii" RangeMin="0.1732050807568877" RangeMax="0.1732050807568877">
          0.09999999999999999 0.09999999999999999 0 0.09999999999999999 0 0
          0.09999999999999999 0.09999999999999999 0 0.09999999999999999 0 0
          0.09999999999999999 0.09999999999999999 0 0.09999999999999999 0 0
          0.09999999999999999 0.09999999999999999 0 0.09999999999999999 0 0
          0.09999999999999999 0.09999999999999999 0 0.09999999999999999 0 0
          0.09999999999999999 0.09999999999999999 0 0.09999999999999999 0 0
          0.09999999999999999 0.09999999999999999 0 0.09999999999999999 0 0
          0.09999999999999999 0.09999999999999999 0 0.09999999999999999 0 0
          0.09999999999999999 0.09999999999999999 0 0.09999999999999999 0 0
          0.09999999999999999 0.09999999999999999 0 0.09999999999999999 0 0
          0.09999999999999999 0.09999999999999999 0 0.09999999999999999 0 0
          0.09999999999999999 0.09999999999999999 0 0.09999999999999999 0 0
          0.09999999999999999 0.09999999999999999 0 0.09999999999999999 0 0
          0.09999999999999999 0.09999999999999999 0 0.09999999999999999 0 0
          0.09999999999999999 0.09999999999999999 0 0.09999999999999999 0 0
          0.09999999999999999 0.09999999999999999 0 0.09999999999999999 0 0
          0.09999999999999999 0.09999999999999999 0 0.09999999999999999 0 0
          0.09999999999999999 0.09999999999999999 0 0.09999999999999999 0 0
          0.09999999999999999 0.09999999999999999 0 0.09999999999999999 0 0
          0.09999999999999999 0.09999999999999999 0 0.09999999999999999 0 0
          0.09999999999999999 0.09999999999999999 0 0.09999999999999999 0 0
          0.09999999999999999 0.09999999999999999 0 0.09999999999999999 0 0
          0.09999999999999999 0.09999999999999999 0 0.09999999999999999 0 0
          0.09999999999999999 0.09999999999999999 0 0.09999999999999999 0 0
          0.09999999999999999 0.09999999999999999 0 0.09999999999999999 0 0
          0.09999999999999999 0.09999999999999999 0 0.09999999999999999 0 0
          0.09999999999999999 0.09999999999999999 0 0.09999999999999999 0 0
          0.09999999999999999 0.09999999999999999 0 0.09999999999999999 0 0
          0.09999999999999999 0.09999999999999999 0 0.09999999999999999 0 0
          0.09999999999999999 0.09999999999999999 0 0.09999999999999999 0 0
          0.09999999999999999 0.09999999999999999 0 0.09999999999999999 0 0
          0.09999999999999999 0.09999999999999999 0 0.09999999999999999 0 0
          0.09999999999999999 0.09999999999999999 0 0.09999999999999999 0 0
          0.09999999999999999 0.09999999999999999 0 0.09999999999999999 0 0
          0.09999999999999999 0.09999999999999999 0 0.09999999999999999 0 0
          0.09999999999999999 0.09999999999999999 0 0.09999999999999999 0 0
          0.09999999999999999 0.09999999999999999 0 0.09999999999999999 0 0
          0.09999999999999999 0.09999999999999999 0 0.09999999999999999 0 0
          0.09999999999999999 0.09999999999999999 0 0.09999999999999999 0 0
          0.09999999999999999 0.09999999999999999 0 0.09999999999999999 0 0
          0.09999999999999999 0.09999999999999999 0 0.09999999999999999 0 0
          0.09999999999999999 0.09999999999999999 0 0.09999999999999999 0 0
          0.09999999999999999 0.09999999999999999 0 0.09999999999999999 0 0
          0.09999999999999999 0.09999999999999999 0 0.09999999999999999 0 0
          0.09999999999999999 0.09999999999999999 0 0.09999999999999999 0 0
          0.09999999999999999 0.09999999999999999 0 0.09999999999999999 0 0
          0.09999999999999999 0.09999999999999999 0 0.09999999999999999 0 0
          0.09999999999999999 0.09999999999999999 0 0.09999999999999999 0 0
          0.09999999999999999 0.09999999999999999 0 0.09999999999999999 0 0
          0.09999999999999999 0.09999999999999999 0 0.09999999999999999 0 0
          0.09999999999999999 0.09999999999999999 0 0.09999999999999999 0 0
          0.09999999999999999 0.09999999999999999 0 0.09999999999999999 0 0
          0.09999999999999999 0.09999999999999999 0 0.09999999999999999 0 0
          0.09999999999999999 0.09999999999999999 0 0.09999999999999999 0 0
          0.09999999999999999 0.09999999999999999 0 0.09999999999999999 0 0
          0.09999999999999999 0.09999999999999999 0 0.09999999999999999 0 0
          0.09999999999999999 0.09999999999999999 0 0.09999999999999999 0 0
          0.09999999999999999 0.09999999999999999 0 0.09999999999999999 0 0
          0.09999999999999999 0.09999999999999999 0 0.09999999999999999 0 0
          0.09999999999999999 0.09999999999999999 0 0.09999999999999999 0 0
          0.09999999999999999 0.09999999999999999 0 0.09999999999999999 0 0
          0.09999999999999999 0.09999999999999999 0 0.09999999999999999 0 0
          0.09999999999999999 0.09999999999999999 0 0.09999999999999999 0 0
          0.09999999999999999 0.09999999999999999 0 0.09999999999999999 0 0
          0.09999999999999999 0.09999999999999999 0 0.09999999999999999 0 0
          0.09999999999999999 0.09999999999999999 0 0.09999999999999999 0 0
          0.09999999999999999 0.09999999999999999 0 0.09999999999999999 0 0
          0.09999999999999999 0.09999999999999999 0 0.09999999999999999 0 0
          0.09999999999999999 0.09999999999999999 0 0.09999999999999999 0 0
          0.09999999999999999 0.09999999999999999 0 0.09999999999999999 0 0
          0.09999999999999999 0.09999999999999999 0 0.09999999999999999 0 0
          0.09999999999999999 0.09999999999999999 0 0.09999999999999999 0 0
          0.09999999999999999 0.09999999999999999 0 0.09999999999999999 0 0
          0.09999999999999999 0.09999999999999999 0 0.09999999999999999 0 0
          0.09999999999999999 0.09999999999999999 0 0.09999999999999999 0 0
          0.09999999999999999 0.09999999999999999 0 0.09999999999999999 0 0
          0.09999999999999999 0.09999999999999999 0 0.09999999999999999 0 0
          0.09999999999999999 0.09999999999999999 0 0.09999999999999999 0 0
          0.09999999999999999 0.09999999999999999 0 0.09999999999999999 0 0
          0.09999999999999999 0.09999999999999999 0 0.09999999999999999 0 0
          0.09999999999999999 0.09999999999999999 0 0.09999999999999999 0 0
          0.09999999999999999 0.09999999999999999 0 0.09999999999999999 0 0
          0.09999999999999999 0.09999999999999999 0 0.09999999999999999 0 0
          0.09999999999999999 0.09999999999999999 0 0.09999999999999999 0 0
          0.09999999999999999 0.09999999999999999 0 0.09999999999999999 0 0
          0.09999999999999999 0.09999999999999999 0 0.09999999999999999 0 0
          0.09999999999999999 0.09999999999999999 0 0.09999999999999999 0 0
          0.09999999999999999 0.09999999999999999 0 0.09999999999999999 0 0
          0.09999999999999999 0.09999999999999999 0 0.09999999999999999 0 0
          0.09999999999999999 0.09999999999999999 0 0.09999999999999999 0 0
          0.09999999999999999 0.09999999999999999 0 0.09999999999999999 0 0
          0.09999999999999999 0.09999999999999999 0 0.09999999999999999 0 0
          0.09999999999999999 0.09999999999999999 0 0.09999999999999999 0 0
          0.09999999999999999 0.09999999999999999 0 0.09999999999999999 0 0
          0.09999999999999999 0.09999999999999999 0 0.09999999999999999 0 0
          0.09999999999999999 0.09999999999999999 0 0.09999999999999999 0 0
          0.09999999999999999 0.09999999999999999 0 0.09999999999999999 0 0
          0.09999999999999999 0.09999999999999999 0 0.09999999999999999 0 0
          0.09999999999999999 0.09999999999999999 0 0.09999999999999999 0 0
          0.09999999999999999 0.09999999999999999 0 0.09999999999999999 0 0
          0.09999999999999999 0.09999999999999999 0 0.09999999999999999 0 0
          0.09999999999999999 0.09999999999999999 0 0.09999999999999999 0 0
          0.09999999999999999 0.09999999999999999 0 0.09999999999999999 0 0
          0.09999999999999999 0.09999999999999999 0 0.09999999999999999 0 0
          0.09999999999999999 0.09999999999999999 0 0.09999999999999999 0 0
          0.09999999999999999 0.09999999999999999 0 0.09999999999999999 0 0
          0.09999999999999999 0.09999999999999999 0 0.09999999999999999 0 0
          0.09999999999999999 0.09999999999999999 0 0.09999999999999999 0 0
          0.09999999999999999 0.09999999999999999 0 0.09999999999999999 0 0
          0.09999999999999999 0.09999999999999999 0 0.09999999999999999 0 0
          0.09999999999999999 0.09999999999999999 0 0.09999999999999999 0 0
          0.09999999999999999 0.09999999999999999 0 0.09999999999999999 0 0