<?xml version="1.0"?>
<VTKFile type="UnstructuredGrid" version="0.1" byte_order="LittleEndian" header_type="UInt32" compressor="vtkZLibDataCompressor">
  <UnstructuredGrid>
    <Piece NumberOfPoints="94" NumberOfCells="150">
      <PointData>
        <DataArray type="Float64" Name="Velocity" NumberOfComponents="3" format="ascii" RangeMin="0" RangeMax="3.8783068709381543">
          1.0913374231003539 0 0 1.3535777074937156 -0.12060446121835322 0
          1.6441655343098898 -0.3666248631958416 0 1.6440980865117278 0 0
          1.631883832423111 -1.0046146508875193 0 1.350558581541144 -0.346259897258986 0
          2.240372556272612 -0.1771435143868178 0 2.7256516066988548 -1.1163153759047897 0
          2.8305234999740554 -0.5371378905167495 0 1.707106893534435 0 0
          2.9688190812674238 -0.2853103493847303 0 1.8782014418579296 -0.12450169167928551 0
          2.2014737860047493 0.23046099822166255 0 1.9658769344712737 0.8719873770903946 0
          3.3190555191150573 0.6652492487057661 0 2.798942202769823 0.42004048558746304 0
          0.6471221295582156 2.3343678930659095 0 1.9117444247509745 -0.33519271483826274 0
          1.5977606535241473 0.35690237776067935 0 2.97392238934373 0.3273585489565692 0
          0 0 0 2.7510480380781637 0.31901517428097365 0
          1.7832335944659456 0.18795267015240955 0 0 0 0
          2.7256771912049307 0.895464929502791 0 2.0863308897215687 0.3007597254008203 0
          2.123013864725804 0.744906605357215 0 0 0 0
          0 0 0 2.115888032652256 0.41178859542566837 0
          1.675167071481121 2.2223232445510206 0 1.7783616113571494 0 0
          0 0 0 0 0 0
          2.3275219648477785 0.9256491463746688 0 0.8857588794969555 1.8805096252067872 0
          1.8337368919084593 0.4345604434914424 0 0 0 0
          1.7453282939952937 0.8429598541215132 0 1.4425412540568816 0.8511924178350031 0
          0 0 0 0.8516115304970658 1.4113053909148043 0
          0.21366631467205252 -0.4149237126884213 0 0 0 0
          1.349084505640359 1.3143156186727194 0 1.6436715473033021 1.242309615756923 0
          0.8034666124471107 0.7687910825396109 0 1.7937618214422664 1.0764042182890332 0
          1.481729772456645 0.23576782788136214 0 -0.2715581492170366 -0.1300790450141876 0
          1.413536465416786 1.4987155672562236 0 0.8377596341436251 1.3749084140559267 0
          1.4526937247192016 0.9598258527144581 0 0.7850224317530572 1.3759616859138997 0
          0.43864545200520116 0 0 0.9847391322371282 1.2175409619224082 0
          1.2406532494134204 1.1892890716658062 0 0.005710704195522668 0.047393272700438166 0
          0.8735438514198387 1.0664244742828588 0 -0.41285685659202687 0.15348771126977878 0
          1.219137667406025 0.8052559356528067 0 1.518330253534427 1.2542523309956035 0
          1.1376220321765254 0 0 1.3435665580939526 1.3061816190348683 0
          0.4266726045179446 0 0 1.0427555032224851 0.8448282982284222 0
          0.5615118642469711 0.6480059128727125 0 1.0363491905005984 0.20132135527728529 0
          0.1902019826023761 0.0409392501367972 0 -0.5375802370684507 0 0
          1.0402380087409415 0.18585227716146868 0 1.0029561447716 0.48256637624528387 0
          1.1084427595661794 0.8739976064098939 0 1.023523999724359 0.8931982707189503 0
          0.7191821447200283 0.8006097897051352 0 0.4501009978641761 0 0
          0.9999999999999998 0 0 1 0 0
          1 0 0 0.8593472070576557 0 0
          1 0 0 1 0 0
          1 0 0 1 0 0
          1.2732738440044031 -0.22710565011653638 0 1.0718473769102235 0 0
          1.595052748301945 0.4663530642588495 0 2.9889865394207984 -2.471279760028673 0
          2.6959130632247734 -1.8151686464552939 0 1.299182178859002 -0.8144009286048418 0
          1.5575085865156029 -0.75647366357315 0 1.2906392639054705 -0.6045024600269611 0
          -1.0619008494518154 1.2827549578024466 0 0 0 0
          <InformationKey name="L2_NORM_RANGE" location="vtkDataArray" length="2">
            <Value index="0">
              0
            </Value>
            <Value index="1">
              3.8783068709
            </Value>
          </InformationKey>
        </DataArray>
        <DataArray type="Float64" Name="Pressure" format="ascii" RangeMin="-16.951387957253253" RangeMax="4.751808614885829">
          0.3622805980782186 0.029464054011323404 -0.017849965858215744 -0.22532189587228113 -1.0384765643128007 0.6323440485448789
          -0.08775651672835649 -1.925608578100165 -3.76865931103824 0.669219804216777 -2.5977832941788304 -0.3655977639556518
          -0.4397666957448987 -8.578828459758578 -5.620789139272476 -1.7430724219259692 -10.460889818567852 -0.3636589979870334
          -5.107346089909269 -3.896874841377146 -6.663164346680817 -1.9199335548931642 0.7525482419539773 -6.054587460440069
          -8.167784545638025 -0.2879782902598931 -0.20053665658981235 -2.409225409485945 2.439084205298211 -0.12513675602005525
          -2.862961778113074 1.0047415453125828 3.009560648570175 2.877333485867097 -1.1974681325238157 -0.060636908650386234
          1.126665859052808 3.344259365603908 0.686186729437949 1.1051189223159659 3.6352281707997705 1.8105164002383358
          2.691909998400784 3.720188974637524 1.264021679645537 0.5287553270620668 2.615430468429843 1.1026505698813445
          1.647891768646672 3.0554510703318045 0.9966346065452503 1.9583662166274645 2.0935893946670254 2.446058529254993
          3.771613439105854 2.794532982663859 2.050376904879611 3.82265663195636 3.004865981816633 3.6213144284550367
          2.03057505579742 1.5047083592993253 2.2014887547791306 2.1017371178618607 3.7988166047694687 3.165543164311119
          3.9701858882518897 2.1221958446419578 4.11257854669367 4.222669739533941 2.261619782453413 2.8479930365839348
          3.2613711358529995 3.8469083576923833 4.247185026556041 4.6661634231577 2.076301755125323 2.1821298930566444
          2.4424318045529687 4.751808614885829 2.9438095600751635 3.756879896998663 4.34072698764046 4.407784425170991
          -0.02045728123821311 -0.05136960389977238 -16.951387957253253 -11.622993747116027 -3.911056276619626 -0.0040076099813508015
          -0.5392451630279973 -0.2653487318561082 -11.594036242240355 -3.448077993064613
        </DataArray>
        <DataArray type="Float64" Name="BTraction" NumberOfComponents="3" format="ascii" RangeMin="0" RangeMax="5.67447593285659">
          -0.005844984050167524 -0.17586141264322813 0 0 0 0
          0 0 0 0.023948968808105923 -0.000914041139881181 0
          0 0 0 0 0 0
          0 0 0 0 0 0
          0 0 0 0.008993267470332493 -0.5705522879773228 0
          0 0 0 0 0 0
          0 0 0 0 0 0
          0 0 0 0 0 0
          0 0 0 0 0 0
          0 0 0 0 0 0
          -3.9564591705401395 -2.2721100069273255 0 0 0 0
          0 0 0 -5.661930910812589 -0.37711466923682646 0
          0 0 0 0 0 0
          0 0 0 0.4083517014505931 -1.8374706356828068 0
          -2.0048327252881233 -0.23387657653905 0 0 0 0
          0 0 0 -0.0021816330815413554 -1.1729175110099048 0
          -3.05726606827814 -0.0005841686191776428 0 -2.9472485595549376 0.1076727399196831 0
          0 0 0 0 0 0
          0 0 0 -3.2370501589123335 0.010305219492042623 0
          0 0 0 0 0 0
          -3.628724297775824 -0.06102256823279964 0 0 0 0
          0 0 0 -1.815872612784229 1.842762994456309 0
          0 0 0 0 0 0
          0 0 0 0 0 0
          0 0 0 0 0 0
          0 0 0 0 0 0
          0 0 0 0 0 0
          0.024323195402875874 3.770386032248091 0 0 0 0
          0 0 0 0 0 0
          0 0 0 0 0 0
          0 0 0 0 0 0
          -0.006880328721863856 -2.0165230098823086 0 0 0 0
          -0.030516579868319234 3.946078612965205 0 0 0 0
          0 0 0 0 0 0
          0 0 0 -0.11814199858570248 4.241881540359474 0
          0 0 0 0 0 0
          0 0 0 0 0 0
          0 0 0 -0.02646961801618346 4.465874155293871 0
          1.0516820703933711 -1.0715779376755805 0 2.2025331088839586 -0.009666235000393455 0
          2.4829210525571592 -0.03150902520151257 0 -0.012464508931543685 4.596288502342763 0
          2.9822361763187546 -0.043764425173162855 0 3.7019806447987835 -0.0566477516951889 0
          4.252484185633429 -0.0404291026102249 0 2.5311897015084663 1.8821100482031219 0
          0 0 0 -0.0031804395012369367 -0.0077583883864587285 0
          0 0 0 0 0 0
          0 0 0 0 0 0
          0 0 0 0 0 0
          0 0 0 -3.383705047603663 -0.2732012004987679 0
          <InformationKey name="L2_NORM_RANGE" location="vtkDataArray" length="2">
            <Value index="0">
              0
            </Value>
            <Value index="1">
              5.6744759329
            </Value>
          </InformationKey>
        </DataArray>
        <DataArray type="Float64" Name="Sigma" NumberOfComponents="6" format="ascii" RangeMin="0.005682962946510277" RangeMax="0.6649449112829816">
          -0.019622970002942004 0.020861196306282286 0 -0.018653958007328365 0 0
          -0.02387584656242144 0.024742446392876295 0 0.0044184113529558335 0 0
          -0.05302897288649405 0.050382954079484774 0 -0.01626707004142769 0 0
          -0.02759148383141839 0.023702199001207225 0 0.03944570508616475 0 0
          -0.3220510183144309 0.3228045768120775 0 0.1012933669582635 0 0
          -0.04403549408313221 0.047007153492102445 0 -0.018907683163233685 0 0
          0.019562540394669894 -0.019103478599807017 0 -0.0621617771262689 0 0
          -0.07519155855742468 0.07873882546699303 0 -0.15545355011037518 0 0
          -0.12664333307679643 0.11661314585986367 0 -0.25781598978039216 0 0
          -0.013301527178869026 0.014349986759138832 0 0.004179495297427696 0 0
          -0.07580077579622915 0.0691155979428146 0 -0.35038305045970586 0 0
          -0.04596224613223622 0.04431057422121998 0 -0.04308207552957668 0 0
          -0.035953349673104526 0.035958747690645346 0 -0.1592444057322318 0 0
          0.3821702281045613 -0.3773709894733411 0 -0.1685705117046915 0 0
          0.10526118117819318 -0.10098754796969533 0 0.23140020377555276 0 0
          0.12615137249786967 -0.1170627324047052 0 -0.07469956858903709 0 0
          0.011316599142588799 -0.016798656978373044 0 0.5517782454767891 0 0
          0.01636154977627112 -0.015390498276975594 0 -0.050687324530215 0 0
          -0.1669364694926765 0.19273942142813028 0 0.50507376350014 0 0
          0.022858031137864568 -0.03493488063638382 0 -0.027314073782844173 0 0
          0.1818004901713939 -0.19155276650269576 0 0.27067401842682204 0 0
          0.16321002793508496 -0.17068685609671116 0 -0.032109732956549564 0 0
          0.015324698343330787 -0.01730517667377569 0 -0.00776066578126235 0 0
          0.0069720670959304565 0.003420541168439928 0 0.4098874789048059 0 0
          0.06357137505803534 -0.07567895825715099 0 0.2966833022099781 0 0
          0.04688505173566561 -0.043040950665223676 0 -0.14757523561751923 0 0
          0.2244970435375847 -0.20930543604905302 0 -0.3279587822781965 0 0
          -0.3047654282986889 0.2802563203241287 0 -0.5203135243998837 0 0
          -0.2400710501783695 0.2530852864617784 0 -0.22812331619487253 0 0
          0.06685135611809868 -0.07345914223561083 0 -0.02318009050447745 0 0
          0.08347187010933294 -0.08769206105141131 0 0.38117324325837715 0 0
          0.022761050353980374 -0.020643006346513743 0 -0.001325134116098831 0 0
          -0.20328119795036706 0.20386347315660844 0 0.00923180347372144 0 0
          0.07251955861544049 -0.06886571860140521 0 0.16204444353737157 0 0
          0.19541583612847369 -0.18860916050300525 0 0.06199307108585894 0 0
          -0.22160043023700096 0.23686446298541353 0 0.2601837486041025 0 0
          0.01728004236043376 -0.01689050672013615 0 -0.06895633665402466 0 0
          0.09348533673324602 -0.09877582855388128 0 -0.011041886811668386 0 0
          0.10696548520096794 -0.10588569893617086 0 -0.0852873587553553 0 0
          0.07054637297934006 -0.0697058812828993 0 -0.04841410794403245 0 0
          -0.04066480900667331 0.04185055072351371 0 -0.0726134758118418 0 0
          -0.12729273194852792 0.12128224703195067 0 -0.02385790477532084 0 0
          -0.07047839846660475 0.07304580107900208 0 -0.0971022789335686 0 0
          -0.12552304202345893 0.1336661954659396 0 -0.06725817068765463 0 0
          -0.04615987133221889 0.035021131484895975 0 0.09968656725738848 0 0
          0.16926975612474732 -0.16685427806618858 0 0.11483076294893839 0 0
          -0.042127514416204416 0.035688045344608614 0 -0.12231241417023911 0 0
          0.18571050636968256 -0.1842631926503304 0 0.02478224847686294 0 0
          0.08183313720638845 -0.08232567372997313 0 -0.005668610013816354 0 0
          -0.05223138140370361 0.05016429364033631 0 -0.040581227081085844 0 0
          0.032304388428868194 -0.03520489084283854 0 -0.02184860893911643 0 0
          -0.08642885735259373 0.08349686411911039 0 -0.009925623568319893 0 0
          0.07379438202325617 -0.06339843997556083 0 -0.07161274726997878 0 0
          -0.1762579733682032 0.17610677644079298 0 0.08140931567895066 0 0
          0.012917651872598902 -0.012226412011518174 0 -0.02088434450064994 0 0
          -0.06579589613713124 0.06482541786157639 0 -0.010316827815295634 0 0
          -0.07560664834539735 0.06731559796395116 0 -0.05680892729994859 0 0
          -0.035511341804149325 0.03571158429247855 0 -0.018324905657156252 0 0
          -0.03440609716082077 0.04161414021010883 0 0.07206416825069883 0 0
          -0.04132167759320204 0.04592645671043837 0 -0.008100021134798525 0 0
          0.06470066453526521 -0.06283688089390017 0 0.022803626745093453 0 0
          0.052091082156047165 -0.05091439811886755 0 0.1079549876864098 0 0
          0.036129265658535616 -0.03771317805258062 0 -0.011552743621596147 0 0
          -0.026706590926162555 0.02710188636455912 0 0.04979107308837945 0 0
          0.09045621703333555 -0.09811612541155647 0 0.004052030418965836 0 0
          0.0007969180848204352 -0.0027655226298632517 0 -0.032432486461062185 0 0
          -0.11821245560281934 0.11863555627442085 0 0.011657510223886239 0 0
          0.0101925552211225 -0.009556521278380263 0 0.026563881746790297 0 0
          -0.0729385321061876 0.07386942113010576 0 -0.07661707891539649 0 0
          0.058311956371293536 -0.058463492703203244 0 0.1782578847714146 0 0
          0.02556630371482939 -0.02699994350436447 0 0.02379870329853718 0 0
          0.04868032443562941 -0.049924650933287934 0 0.0399127112324029 0 0
          0.030674246653653568 -0.03134109874863328 0 0.0734911499176245 0 0
          -0.023840685589317213 0.02682107662475081 0 0.07606532407255304 0 0
          -0.07222208429363465 0.06970354649991878 0 0.04999290800772196 0 0
          -0.2031882312359495 0.2095502102335151 0 -0.00884910280121933 0 0
          0.008168648736561916 -0.007212207819323253 0 0.006022002015063076 0 0
          0.002073731027044161 -0.0029478562939438107 0 0.004393842367352179 0 0
          -0.010275594787442801 0.011998206017085004 0 0.036446385188268635 0 0
          -0.06941024972070874 0.06547318846960974 0 0.016484598478802976 0 0
          -0.006837585717578037 0.008746272491896336 0 0.04096315309698253 0 0
          0.003912051886290879 -0.006286540898101959 0 0.06479113070490529 0 0
          0.00005354044982831211 0.00007291880466432296 0 0.039674163021646974 0 0
          -0.022554534210111683 0.029541861679955306 0 0.016887775721794226 0 0
          -0.021711043270091827 0.021503939142085662 0 0.011087593503865697 0 0
          -0.008482605105719453 0.007768442244492854 0 -0.00039217325051901894 0 0
          0.11562464809291838 -0.1244099723503835 0 -0.20452506431176812 0 0
          0.0044802083371511675 -0.0011110961517413337 0 -0.3645085172013853 0 0
          -0.3085976183333687 0.31246411591525336 0 0.05379932183769006 0 0
          -0.06344204019633125 0.06232003876926094 0 0.027709931518665794 0 0
          0.08616684780438652 -0.08696229916125743 0 0.0010979600939585478 0 0
          -0.048848750834002086 0.048967532048575665 0 0.03381009533201497 0 0
          -0.09840536227735738 0.08135386533343003 0 -0.15932843818804374 0 0
          -0.3912445283397821 0.40755345947297916 0 0.34882386586452263 0 0
          <InformationKey name="L2_NORM_RANGE" location="vtkDataArray" length="2">
            <Value index="0">
              0.0056829629465
            </Value>
            <Value index="1">
              0.66494491128
            </Value>
          </InformationKey>
        </DataArray>
        <DataArray type="Float64" Name="ALEdispl" NumberOfComponents="3" format="ascii" RangeMin="0" RangeMax="0">
          0 0 0 0 0 0
          0 0 0 0 0 0
          0 0 0 0 0 0
          0 0 0 0 0 0
          0 0 0 0 0 0
          0 0 0 0 0 0
          0 0 0 0 0 0
          0 0 0 0 0 0
          0 0 0 0 0 0
          0 0 0 0 0 0
          0 0 0 0 0 0
          0 0 0 0 0 0
          0 0 0 0 0 0
          0 0 0 0 0 0
          0 0 0 0 0 0
          0 0 0 0 0 0
          0 0 0 0 0 0
          0 0 0 0 0 0
          0 0 0 0 0 0
          0 0 0 0 0 0
          0 0 0 0 0 0
          0 0 0 0 0 0
          0 0 0 0 0 0
          0 0 0 0 0 0
          0 0 0 0 0 0
          0 0 0 0 0 0
          0 0 0 0 0 0
          0 0 0 0 0 0
          0 0 0 0 0 0
          0 0 0 0 0 0
          0 0 0 0 0 0
          0 0 0 0 0 0
          0 0 0 0 0 0
          0 0 0 0 0 0
          0 0 0 0 0 0
          0 0 0 0 0 0
          0 0 0 0 0 0
          0 0 0 0 0 0
          0 0 0 0 0 0
          0 0 0 0 0 0
          0 0 0 0 0 0
          0 0 0 0 0 0
          0 0 0 0 0 0
          0 0 0 0 0 0
          0 0 0 0 0 0
          0 0 0 0 0 0
          0 0 0 0 0 0
          <InformationKey name="L2_NORM_RANGE" location="vtkDataArray" length="2">
            <Value index="0">
              0
            </Value>
            <Value index="1">
              0
            </Value>
          </InformationKey>
        </DataArray>
        <DataArray type="Float64" Name="ALEveloc" NumberOfComponents="3" format="ascii" RangeMin="0" RangeMax="0">
          0 0 0 0 0 0
          0 0 0 0 0 0
          0 0 0 0 0 0
          0 0 0 0 0 0
          0 0 0 0 0 0
          0 0 0 0 0 0
          0 0 0 0 0 0
          0 0 0 0 0 0
          0 0 0 0 0 0
          0 0 0 0 0 0
          0 0 0 0 0 0
          0 0 0 0 0 0
          0 0 0 0 0 0
          0 0 0 0 0 0
          0 0 0 0 0 0
          0 0 0 0 0 0
          0 0 0 0 0 0
          0 0 0 0 0 0
          0 0 0 0 0 0
          0 0 0 0 0 0
          0 0 0 0 0 0
          0 0 0 0 0 0
          0 0 0 0 0 0
          0 0 0 0 0 0
          0 0 0 0 0 0
          0 0 0 0 0 0
          0 0 0 0 0 0
          0 0 0 0 0 0
          0 0 0 0 0 0
          0 0 0 0 0 0
          0 0 0 0 0 0
          0 0 0 0 0 0
          0 0 0 0 0 0
          0 0 0 0 0 0
          0 0 0 0 0 0
          0 0 0 0 0 0
          0 0 0 0 0 0
          0 0 0 0 0 0
          0 0 0 0 0 0
          0 0 0 0 0 0
          0 0 0 0 0 0
          0 0 0 0 0 0
          0 0 0 0 0 0
          0 0 0 0 0 0
          0 0 0 0 0 0
          0 0 0 0 0 0
          0 0 0 0 0 0
          <InformationKey name="L2_NORM_RANGE" location="vtkDataArray" length="2">
            <Value index="0">
              0
            </Value>
            <Value index="1">
              0
            </Value>
          </InformationKey>
        </DataArray>
      </PointData>
      <CellData>
        <DataArray type="UInt8" Name="vtkGhostType" format="ascii" RangeMin="0" RangeMax="1">
          0 0 0 0 0 0
          0 0 1 0 0 1
          0 1 0 0 1 1
          1 0 0 0 0 0
          1 1 0 1 1 0
          1 1 0 1 0 0
          0 0 0 0 0 0
          0 0 0 0 0 0
          0 0 0 0 0 0
          0 0 0 0 0 0
          0 0 0 0 0 0
          0 0 0 0 0 0
          0 0 0 0 0 0
          0 0 0 0 0 0
          0 1 0 0 0 0
          0 0 0 1 0 0
          0 0 0 0 0 1
          0 0 0 0 0 0
          0 0 0 0 0 0
          0 0 0 0 0 0
          0 0 0 0 0 0
          0 0 0 0 0 0
          0 1 0 0 0 0
          0 0 0 0 0 0
          0 0 0 0 0 0
        </DataArray>
        <DataArray type="Float64" Name="PStrain" NumberOfComponents="6" format="ascii" RangeMin="0.1732050807568877" RangeMax="0.1732050807568877">
          0.09999999999999999 0.09999999999999999 0 0.09999999999999999 0 0
          0.09999999999999999 0.09999999999999999 0 0.09999999999999999 0 0
          0.09999999999999999 0.09999999999999999 0 0.09999999999999999 0 0
          0.09999999999999999 0.09999999999999999 0 0.09999999999999999 0 0
          0.09999999999999999 0.09999999999999999 0 0.09999999999999999 0 0
          0.09999999999999999 0.09999999999999999 0 0.09999999999999999 0 0
          0.09999999999999999 0.09999999999999999 0 0.09999999999999999 0 0
          0.09999999999999999 0.09999999999999999 0 0.09999999999999999 0 0
          0.09999999999999999 0.09999999999999999 0 0.09999999999999999 0 0
          0.09999999999999999 0.09999999999999999 0 0.09999999999999999 0 0
          0.09999999999999999 0.09999999999999999 0 0.09999999999999999 0 0
          0.09999999999999999 0.09999999999999999 0 0.09999999999999999 0 0
          0.09999999999999999 0.09999999999999999 0 0.09999999999999999 0 0
          0.09999999999999999 0.09999999999999999 0 0.09999999999999999 0 0
          0.09999999999999999 0.09999999999999999 0 0.09999999999999999 0 0
          0.09999999999999999 0.09999999999999999 0 0.09999999999999999 0 0
          0.09999999999999999 0.09999999999999999 0 0.09999999999999999 0 0
          0.09999999999999999 0.09999999999999999 0 0.09999999999999999 0 0
          0.09999999999999999 0.09999999999999999 0 0.09999999999999999 0 0
          0.09999999999999999 0.09999999999999999 0 0.09999999999999999 0 0
          0.09999999999999999 0.09999999999999999 0 0.09999999999999999 0 0
          0.09999999999999999 0.09999999999999999 0 0.09999999999999999 0 0
          0.09999999999999999 0.09999999999999999 0 0.09999999999999999 0 0
          0.09999999999999999 0.09999999999999999 0 0.09999999999999999 0 0
          0.09999999999999999 0.09999999999999999 0 0.09999999999999999 0 0
          0.09999999999999999 0.09999999999999999 0 0.09999999999999999 0 0
          0.09999999999999999 0.09999999999999999 0 0.09999999999999999 0 0
          0.09999999999999999 0.09999999999999999 0 0.09999999999999999 0 0
          0.09999999999999999 0.09999999999999999 0 0.09999999999999999 0 0
          0.09999999999999999 0.09999999999999999 0 0.09999999999999999 0 0
          0.09999999999999999 0.09999999999999999 0 0.09999999999999999 0 0
          0.09999999999999999 0.09999999999999999 0 0.09999999999999999 0 0
          0.09999999999999999 0.09999999999999999 0 0.09999999999999999 0 0
          0.09999999999999999 0.09999999999999999 0 0.09999999999999999 0 0
          0.09999999999999999 0.09999999999999999 0 0.09999999999999999 0 0
          0.09999999999999999 0.09999999999999999 0 0.09999999999999999 0 0
          0.09999999999999999 0.09999999999999999 0 0.09999999999999999 0 0
          0.09999999999999999 0.09999999999999999 0 0.09999999999999999 0 0
          0.09999999999999999 0.09999999999999999 0 0.09999999999999999 0 0
          0.09999999999999999 0.09999999999999999 0 0.09999999999999999 0 0
          0.09999999999999999 0.09999999999999999 0 0.09999999999999999 0 0
          0.09999999999999999 0.09999999999999999 0 0.09999999999999999 0 0
          0.09999999999999999 0.09999999999999999 0 0.09999999999999999 0 0
          0.09999999999999999 0.09999999999999999 0 0.09999999999999999 0 0
          0.09999999999999999 0.09999999999999999 0 0.09999999999999999 0 0
          0.09999999999999999 0.09999999999999999 0 0.09999999999999999 0 0
          0.09999999999999999 0.09999999999999999 0 0.09999999999999999 0 0
          0.09999999999999999 0.09999999999999999 0 0.09999999999999999 0 0
          0.09999999999999999 0.09999999999999999 0 0.09999999999999999 0 0
          0.09999999999999999 0.09999999999999999 0 0.09999999999999999 0 0
          0.09999999999999999 0.09999999999999999 0 0.09999999999999999 0 0
          0.09999999999999999 0.09999999999999999 0 0.09999999999999999 0 0
          0.09999999999999999 0.09999999999999999 0 0.09999999999999999 0 0
          0.09999999999999999 0.09999999999999999 0 0.09999999999999999 0 0
          0.09999999999999999 0.09999999999999999 0 0.09999999999999999 0 0
          0.09999999999999999 0.09999999999999999 0 0.09999999999999999 0 0
          0.09999999999999999 0.09999999999999999 0 0.09999999999999999 0 0
          0.09999999999999999 0.09999999999999999 0 0.09999999999999999 0 0
          0.09999999999999999 0.09999999999999999 0 0.09999999999999999 0 0
          0.09999999999999999 0.09999999999999999 0 0.09999999999999999 0 0
          0.09999999999999999 0.09999999999999999 0 0.09999999999999999 0 0
          0.09999999999999999 0.09999999999999999 0 0.09999999999999999 0 0
          0.09999999999999999 0.09999999999999999 0 0.09999999999999999 0 0
          0.09999999999999999 0.09999999999999999 0 0.09999999999999999 0 0
          0.09999999999999999 0.09999999999999999 0 0.09999999999999999 0 0
          0.09999999999999999 0.09999999999999999 0 0.09999999999999999 0 0
          0.09999999999999999 0.09999999999999999 0 0.09999999999999999 0 0
          0.09999999999999999 0.09999999999999999 0 0.09999999999999999 0 0
          0.09999999999999999 0.09999999999999999 0 0.09999999999999999 0 0
          0.09999999999999999 0.09999999999999999 0 0.09999999999999999 0 0
          0.09999999999999999 0.09999999999999999 0 0.09999999999999999 0 0
          0.09999999999999999 0.09999999999999999 0 0.09999999999999999 0 0
          0.09999999999999999 0.09999999999999999 0 0.09999999999999999 0 0
          0.09999999999999999 0.09999999999999999 0 0.09999999999999999 0 0
          0.09999999999999999 0.09999999999999999 0 0.09999999999999999 0 0
          0.09999999999999999 0.09999999999999999 0 0.09999999999999999 0 0
          0.09999999999999999 0.09999999999999999 0 0.09999999999999999 0 0
          0.09999999999999999 0.09999999999999999 0 0.09999999999999999 0 0
          0.09999999999999999 0.09999999999999999 0 0.09999999999999999 0 0
          0.09999999999999999 0.09999999999999999 0 0.09999999999999999 0 0
          0.09999999999999999 0.09999999999999999 0 0.09999999999999999 0 0
          0.09999999999999999 0.09999999999999999 0 0.09999999999999999 0 0
          0.09999999999999999 0.09999999999999999 0 0.09999999999999999 0 0
          0.09999999999999999 0.09999999999999999 0 0.09999999999999999 0 0
          0.09999999999999999 0.09999999999999999 0 0.09999999999999999 0 0
          0.09999999999999999 0.09999999999999999 0 0.09999999999999999 0 0
          0.09999999999999999 0.09999999999999999 0 0.09999999999999999 0 0
          0.09999999999999999 0.09999999999999999 0 0.09999999999999999 0 0
          0.09999999999999999 0.09999999999999999 0 0.09999999999999999 0 0
          0.09999999999999999 0.09999999999999999 0 0.09999999999999999 0 0
          0.09999999999999999 0.09999999999999999 0 0.09999999999999999 0 0
          0.09999999999999999 0.09999999999999999 0 0.09999999999999999 0 0
          0.09999999999999999 0.09999999999999999 0 0.09999999999999999 0 0
          0.09999999999999999 0.09999999999999999 0 0.09999999999999999 0 0
          0.09999999999999999 0.09999999999999999 0 0.09999999999999999 0 0
          0.09999999999999999 0.09999999999999999 0 0.09999999999999999 0 0
          0.09999999999999999 0.09999999999999999 0 0.09999999999999999 0 0
          0.09999999999999999 0.09999999999999999 0 0.09999999999999999 0 0
          0.09999999999999999 0.09999999999999999 0 0.09999999999999999 0 0
          0.09999999999999999 0.09999999999999999 0 0.09999999999999999 0 0
          0.09999999999999999 0.09999999999999999 0 0.09999999999999999 0 0
          0.09999999999999999 0.09999999999999999 0 0.09999999999999999 0 0
          0.09999999999999999 0.09999999999999999 0 0.09999999999999999 0 0
          0.09999999999999999 0.09999999999999999 0 0.09999999999999999 0 0
          0.09999999999999999 0.09999999999999999 0 0.09999999999999999 0 0
          0.09999999999999999 0.09999999999999999 0 0.09999999999999999 0 0
          0.09999999999999999 0.09999999999999999 0 0.09999999999999999 0 0
          0.09999999999999999 0.09999999999999999 0 0.09999999999999999 0 0
          0.09999999999999999 0.09999999999999999 0 0.09999999999999999 0 0
          0.09999999999999999 0.09999999999999999 0 0.09999999999999999 0 0
          0.09999999999999999 0.09999999999999999 0 0.09999999999999999 0 0
          0.09999999999999999 0.09999999999999999 0 0.09999999999999999 0 0
          0.09999999999999999 0.09999999999999999 0 0.09999999999999999 0 0
          0.09999999999999999 0.09999999999999999 0 0.09999999999999999 0 0
          0.09999999999999999 0.09999999999999999 0 0.09999999999999999 0 0
          0.09999999999999999 0.09999999999999999 0 0.09999999999999999 0 0
          0.09999999999999999 0.09999999999999999 0 0.09999999999999999 0 0
          0.09999999999999999 0.09999999999999999 0 0.09999999999999999 0 0
          0.09999999999999999 0.09999999999999999 0 0.09999999999999999 0 0
          0.09999999999999999 0.09999999999999999 0 0.09999999999999999 0 0
          0.09999999999999999 0.09999999999999999 0 0.09999999999999999 0 0
          0.09999999999999999 0.09999999999999999 0 0.09999999999999999 0 0
          0.09999999999999999 0.09999999999999999 0 0.09999999999999999 0 0
          0.09999999999999999 0.09999999999999999 0 0.09999999999999999 0 0
          0.09999999999999999 0.09999999999999999 0 0.09999999999999999 0 0
          0.09999999999999999 0.09999999999999999 0 0.09999999999999999 0 0
          0.09999999999999999 0.09999999999999999 0 0.09999999999999999 0 0
          0.09999999999999999 0.09999999999999999 0 0.09999999999999999 0 0
          0.09999999999999999 0.09999999999999999 0 0.09999999999999999 0 0