<?xml version="1.0"?>
<VTKFile type="UnstructuredGrid" version="0.1" byte_order="LittleEndian" header_type="UInt32" compressor="vtkZLibDataCompressor">
  <UnstructuredGrid>
    <Piece NumberOfPoints="94" NumberOfCells="150">
      <PointData>
        <DataArray type="Float64" Name="Velocity" NumberOfComponents="3" format="ascii" RangeMin="0" RangeMax="4.4927500238847635">
          1.0827407189122982 0 0 1.3411578766340908 -0.11032550383879224 0
          1.5892869793862539 -0.35206634562359157 0 1.6068091193500371 0 0
          1.380147194112535 -0.9473697938254251 0 1.318864329179308 -0.3566834993132935 0
          2.2975773935709536 -0.1518260394825672 0 2.7536051053526185 -1.211246479693859 0
          2.534110247423639 -1.1998527369756107 0 1.6881857559796325 0 0
          2.748377176576268 -0.8107948628704631 0 1.851436742722183 -0.13976911323936395 0
          2.0317862153759974 0.21644414824309197 0 1.9982035217883571 0.8689461630836218 0
          3.7442331804617828 0.6743727898458367 0 3.017590382696108 0.8959891938801674 0
          0.8836266805656287 2.9653226928950494 0 1.9322111898724104 -0.364726236447401 0
          1.387677297129232 0.4311182927589793 0 2.7803960122015208 0.8276129866187872 0
          0 0 0 2.8584127233320165 0.26760618297145977 0
          1.7597766599795044 0.18942743524256178 0 0 0 0
          3.0600767828835913 0.8620129176402318 0 2.0185683527331775 0.26784235468776824 0
          2.084000944613943 0.3531919295190719 0 0 0 0
          0 0 0 2.108518424252876 0.36661178241378856 0
          1.9230072947278756 2.1299512072014055 0 1.781908308417914 0 0
          0 0 0 0 0 0
          2.456405708529865 1.0495234272867293 0 0.49472990347128043 2.0586913895700873 0
          1.7808945270896266 0.4058222870336726 0 0 0 0
          1.8206194955154198 0.6448018274018522 0 1.4022676154376215 0.6986642892686099 0
          0 0 0 0.9650351449260667 1.3516461225483063 0
          0.23801798785582673 -0.5256074719056748 0 0 0 0
          1.2320492714544897 1.3505288232095187 0 1.9013397581109546 1.1111827820800608 0
          0.7734519253191107 0.6091087159950709 0 1.9690255491260138 0.9010708866246278 0
          1.5254206203952616 0.1989388146253579 0 -0.29795055266766396 -0.1720716062457132 0
          1.3938327557585637 1.4613244439803244 0 0.7458613329709978 1.3655796032078533 0
          1.4895639068643303 0.8923208497607599 0 0.7962764425287214 1.4946649647052093 0
          0.4575828272070838 0 0 0.8920216556088585 1.1283993997777624 0
          1.0773830287188402 1.1736176581049473 0 -0.017447439265928115 0.03271471582612661 0
          0.8378093944841362 1.1572622148645515 0 -0.44670156194710464 0.15146136462273013 0
          1.230983462794833 0.8356615193024036 0 1.570703938642332 1.3497205869651132 0
          1.1402012373926746 0 0 1.3562133429515615 1.344492092242079 0
          0.4422276870428299 0 0 1.024851188601844 0.749366760575351 0
          0.5613138127616645 0.6074359388514792 0 1.042783300192822 0.2247164299900941 0
          0.17270825106973203 0.008408093374448065 0 -0.6477505903481638 0 0
          1.0377958934024154 0.21098455614609388 0 0.9911372665225937 0.5068572882558262 0
          1.1155376418365022 0.9322737063281745 0 1.0331034573107234 0.9550789532479297 0
          0.6939716699484297 0.8440479779010325 0 0.43941924052683 0 0
          0.9999999999999998 0 0 1 0 0
          1 0 0 0.8269279690409034 0 0
          1 0 0 1 0 0
          1 0 0 1 0 0
          1.261592779664864 -0.21085371245570286 0 1.0617328462248394 0 0
          1.710264129683388 -0.3216721616729688 0 3.2777061354716874 -3.07269348725313 0
          2.6192929238973335 -1.6024414508135154 0 1.2971155049754926 -0.7621778338240929 0
          1.628833582734733 -0.719891198982766 0 1.260984813764969 -0.5941513032980051 0
          -1.3680858968501575 1.1125780036956872 0 0 0 0
          <InformationKey name="L2_NORM_RANGE" location="vtkDataArray" length="2">
            <Value index="0">
              0
            </Value>
            <Value index="1">
              4.4927500239
            </Value>
          </InformationKey>
        </DataArray>
        <DataArray type="Float64" Name="Pressure" format="ascii" RangeMin="-19.16794627046771" RangeMax="4.923329342465745">
          0.3201388404036367 -0.01153525816817913 0.05773240399139523 -0.2702983898362409 -0.8365657354092777 0.5750094643361419
          -0.34714403684255646 -2.901400569677884 -2.127965467696612 0.5150608303620827 -2.0380033426811384 -0.49622599716300375
          0.7007980194462681 -9.38395763440167 -7.9909672311118065 -1.4375230377161596 -13.410130209946852 -0.40410743730569526
          -5.790911346399026 -3.668465113287574 -7.542875958293384 -2.2462801326165005 0.6482900922804031 -6.194004324665869
          -8.573423732659814 -0.2716389905788055 -0.08366574892106038 -3.3043038267636526 2.7502746688942854 0.32052199115628477
          -3.1535771265820145 0.7991900373678033 2.9660141759541707 2.8969011797304898 -1.538962848936818 -0.013411848616342592
          1.0545768556383024 3.5345677854368938 1.0769467777581991 1.8908866597320442 3.804282414883575 1.8360298468434502
          2.59920129522368 3.8244980746186448 1.765263503512859 0.4948856963612781 2.7140596336744673 1.0514707299102377
          1.550499574142461 3.088806424058126 1.1835455277623637 2.2379949295548274 2.284443263848086 2.324328947560138
          3.8400208836548004 3.2634198826803926 2.449981859429683 3.8861594105163473 2.9741304949306606 3.6529083691112434
          2.0383592549709855 1.4699513983459263 2.2281494383745044 2.1325979723024466 3.868885835113281 3.3079195944181397
          4.048529657166231 2.165446930185669 4.117582402042412 4.20217252147184 2.359176111911532 3.057270068263189
          3.431198950771493 3.9361312798394072 4.369943052122167 4.7233573718965065 2.13412904398192 2.2612470504199793
          2.51399317959725 4.923329342465745 3.0102795113722154 3.8777452441084774 4.513323913642851 4.460472467373076
          -0.04981979374630513 -0.05398651442103247 -19.16794627046771 -12.458734830651807 -4.1005207631929865 -0.08593351038369088
          -0.8466746243372285 -0.23602138090894487 -12.86816389388834 -3.463673316317171
        </DataArray>
        <DataArray type="Float64" Name="BTraction" NumberOfComponents="3" format="ascii" RangeMin="0" RangeMax="5.83485758627009">
          -0.005814304283928305 -0.1405490604208588 0 0 0 0
          0 0 0 0.023498262207280143 0.06269068206399235 0
          0 0 0 0 0 0
          0 0 0 0 0 0
          0 0 0 0.011335228061769075 -0.42474544274968884 0
          0 0 0 0 0 0
          0 0 0 0 0 0
          0 0 0 0 0 0
          0 0 0 0 0 0
          0 0 0 0 0 0
          -4.38917359474605 -2.6267657630043026 0 0 0 0
          0 0 0 -5.817757160505159 -0.44639071836740357 0
          0 0 0 0 0 0
          0 0 0 0.7528732246985717 -2.1742935360768882 0
          -2.029747403723398 -0.2552128847825841 0 0 0 0
          0 0 0 -0.0036104384173446333 -1.0118871428147076 0
          -3.088568769753733 0.016078786514457863 0 -2.9848848702267214 0.12885160767891127 0
          0 0 0 0 0 0
          0 0 0 -3.386167509316087 0.01593737342875402 0
          0 0 0 0 0 0
          -3.7906605343530315 -0.062002627351857506 0 0 0 0
          0 0 0 -1.8790541423672646 1.8858578902434329 0
          0 0 0 0 0 0
          0 0 0 0 0 0
          0 0 0 0 0 0
          0 0 0 0 0 0
          0 0 0 0 0 0
          0.027408751171907733 3.846585606628493 0 0 0 0
          0 0 0 0 0 0
          0 0 0 0 0 0
          0 0 0 0 0 0
          -0.00974873654327334 -2.010852053241395 0 0 0 0
          -0.033036337933019355 4.007914141757793 0 0 0 0
          0 0 0 0 0 0
          0 0 0 -0.13854373721669846 4.259678522188403 0
          0 0 0 0 0 0
          0 0 0 0 0 0
          0 0 0 -0.02698386350852299 4.526870642186401 0
          1.083331254262979 -1.0959176535184114 0 2.2769734461286117 -0.0090857505506164 0
          2.554941093510848 -0.03101173337842032 0 -0.012118608709120895 4.7210382719864326 0
          3.055629135402733 -0.04844307454980454 0 3.8194809239602736 -0.06846467921942406 0
          4.397629645126537 -0.04938680314575304 0 2.581859893774465 1.9192026887835087 0
          0 0 0 -0.0037021801704191742 0.0028299031972971993 0
          0 0 0 0 0 0
          0 0 0 0 0 0
          0 0 0 0 0 0
          0 0 0 -3.3447237558946257 -0.25764886032715956 0
          <InformationKey name="L2_NORM_RANGE" location="vtkDataArray" length="2">
            <Value index="0">
              0
            </Value>
            <Value index="1">
              5.8348575863
            </Value>
          </InformationKey>
        </DataArray>
        <DataArray type="Float64" Name="Sigma" NumberOfComponents="6" format="ascii" RangeMin="0.004539388601883746" RangeMax="0.8201348407110264">
          -0.017811072398352598 0.01939345151145187 0 -0.017814955835852103 0 0
          -0.021984711664569747 0.022486320338696346 0 0.0031056851258194937 0 0
          -0.049968171888528076 0.04763816359231841 0 -0.015102144359915528 0 0
          -0.029407149717903244 0.025137052257269022 0 0.03739680246729711 0 0
          -0.3274181620467112 0.3310956464155677 0 0.0816284564269476 0 0
          -0.04229260940726475 0.046026222383070296 0 -0.01613935824022347 0 0
          0.012682162685601942 -0.013277882570017514 0 -0.03958327851196596 0 0
          -0.0025865032081650655 0.003603084193071142 0 -0.03611873295440527 0 0
          -0.19441756888322573 0.18961259543279424 0 -0.2587517028737847 0 0
          -0.012654035983362448 0.013596905298450255 0 0.008768558608563567 0 0
          -0.24551577205280123 0.23308193597344734 0 -0.44587533394227796 0 0
          -0.05215771849475336 0.050396691891722904 0 -0.06506454786539738 0 0
          -0.12048448698094073 0.12170614949830352 0 -0.20658998339843954 0 0
          0.5290080444723284 -0.5207119013655738 0 -0.34875602017443746 0 0
          0.15725602260311783 -0.15140047113159355 0 0.10329873496398703 0 0
          0.23505863474804908 -0.21732715995986757 0 -0.14904959884591495 0 0
          -0.0017440759700806524 -0.008004357848857696 0 0.5670662139037915 0 0
          0.04692306662320955 -0.045457148774283834 0 -0.035990879687217585 0 0
          -0.31982514056649397 0.34502245311043755 0 0.4605994930585768 0 0
          0.011232193344890368 -0.03686216914903084 0 0.09429868988558067 0 0
          0.3493854131685076 -0.35414398688256443 0 0.3739656947698331 0 0
          0.13944947395479837 -0.1478587334721943 0 0.12109018250418449 0 0
          0.012660373904365958 -0.014818699599618576 0 -0.0016208498504383952 0 0
          -0.1581548900510215 0.16308342477513843 0 0.49886032886791287 0 0
          -0.010854690790121552 0.009240061626792528 0 0.4974367217729392 0 0
          0.07833455378478874 -0.07608789688463928 0 -0.22970409666444533 0 0
          0.20474946591502194 -0.1840579062706576 0 -0.5096315392884208 0 0
          -0.2061813935144378 0.16997529212812568 0 -0.5873249026024411 0 0
          -0.2112025524455574 0.21991140771505996 0 -0.25006963041557145 0 0
          0.04047706256277292 -0.04894337026618759 0 0.0028195092530102946 0 0
          0.2229575374056083 -0.22964370984074395 0 0.3804006040542469 0 0
          0.017072679748823677 -0.014942043423466158 0 -0.0035763594720185994 0 0
          -0.2234656339260162 0.22498889182584272 0 0.03254535504653199 0 0
          0.07566654602503531 -0.07166437058139256 0 0.18759237357933659 0 0
          0.20059826952935966 -0.19718401120175227 0 0.062483321977056624 0 0
          -0.3470817003508657 0.3704880071309849 0 0.2665705769967802 0 0
          -0.012490388096937971 0.012486235846970582 0 -0.06926498977233408 0 0
          0.10362221155867898 -0.10919096370367934 0 -0.00912436286320646 0 0
          0.128507420882251 -0.12154126230750888 0 -0.08908408506080726 0 0
          0.05411967242110329 -0.056242900670623305 0 0.011357438223004609 0 0
          -0.03993269969432605 0.040990156900972005 0 -0.07393573319117315 0 0
          -0.130139216939932 0.12330734426046427 0 -0.003222986068452737 0 0
          -0.05703527286839374 0.0611361537847368 0 -0.09542270915150357 0 0
          -0.13634153371399013 0.1448059368769631 0 -0.0699832731090514 0 0
          -0.043784809029190574 0.034355768724784914 0 0.11342396232625594 0 0
          0.22295868865284474 -0.2165653226604345 0 0.10892007578429712 0 0
          -0.026267326678416393 0.01864339611496605 0 -0.14663333530130737 0 0
          0.21355872824728883 -0.2157682407521268 0 0.030128178959654847 0 0
          0.08438501915116786 -0.08441368038844174 0 -0.006388854069688407 0 0
          -0.05918864272072091 0.05627118951295737 0 -0.04724397439697687 0 0
          0.017638090650002422 -0.0238957012999888 0 -0.06519567229675627 0 0
          -0.06703790668688815 0.06274852486230538 0 -0.02330255146080932 0 0
          0.08468646105083806 -0.0706225893507766 0 -0.05941824009614498 0 0
          -0.1769775797143795 0.1765680364253894 0 0.0716624126481363 0 0
          0.016631308521788825 -0.015543564259641741 0 -0.023739850430124314 0 0
          -0.07617606029172279 0.07342474991247229 0 -0.007879714419274729 0 0
          -0.08075874745479492 0.0710552622224351 0 -0.11415371137106195 0 0
          -0.03486441448023251 0.03487302590259292 0 -0.019310368114505733 0 0
          -0.04505272443112822 0.05412455570212376 0 0.08063568637309007 0 0
          -0.03964045611639773 0.044941395846133124 0 -0.0067198983467108815 0 0
          0.06982940634653652 -0.06739040946311989 0 0.013337844634023452 0 0
          0.050346709537021715 -0.047810383308399575 0 0.10328469317003176 0 0
          0.03639076129262792 -0.0385035896241069 0 -0.015484420289033947 0 0
          -0.03291052564981921 0.03395781519663488 0 0.04718813187397293 0 0
          0.09714118561106251 -0.1053554975331047 0 -0.00029587360966058015 0 0
          0.0018449204985791431 -0.004722822241041399 0 -0.03265551071712115 0 0
          -0.11992003151468564 0.1205983226920034 0 0.02165887074694092 0 0
          0.012105698775948491 -0.011528826604233407 0 0.028259711701928442 0 0
          -0.07541208432416148 0.07646158735575057 0 -0.0815751564691984 0 0
          0.07292735841476536 -0.07274019106656726 0 0.2118801348495868 0 0
          0.026264541422885698 -0.02815082716517951 0 0.03253468375485974 0 0
          0.05053287839212278 -0.05264503818784858 0 0.04536727278608155 0 0
          0.02752125856343272 -0.02825617011997255 0 0.06908208495827593 0 0
          -0.024297840014187933 0.027924438340141376 0 0.06533191496459817 0 0
          -0.07049233620267129 0.06736496792092866 0 0.048161066681253056 0 0
          -0.20676024731043713 0.21354270277806725 0 -0.01674982632832206 0 0
          0.00956764880957646 -0.008272150625297415 0 0.0066970314971563465 0 0
          0.001362945737922065 -0.0022446894940980375 0 0.0037026742861718267 0 0
          -0.01065988383676198 0.012904789742992846 0 0.03490397622892809 0 0
          -0.08230447359897664 0.07813944733298472 0 0.01765670013418587 0 0
          -0.003949507311560578 0.006472795148692076 0 0.04511688671066491 0 0
          0.006610241771291381 -0.00948973693288959 0 0.07919935684269103 0 0
          -0.0034947738147053605 0.0036980811841168582 0 0.04913789327935322 0 0
          -0.014621042774330652 0.02255436823063165 0 0.01774893866155037 0 0
          -0.021004790718030575 0.0206044573776621 0 0.01135996256699248 0 0
          -0.008022299222159003 0.007372047962058205 0 -0.0015036136943103343 0 0
          0.05908291587479751 -0.06864755156075829 0 -0.25263542847251363 0 0
          -0.032357759494811345 0.029502443835689687 0 -0.3276549671889327 0 0
          -0.3378533483249734 0.34172151493905 0 0.164885193932018 0 0
          0.007154734082992723 -0.008263117042199584 0 -0.0417333343627347 0 0
          0.10722891666626275 -0.11144301424426616 0 0.012138055107521103 0 0
          -0.04402221505486949 0.04470882875086775 0 0.03058327895467418 0 0
          -0.10625019743010569 0.09257075835422011 0 -0.2510488525852035 0 0
          -0.3693039239258908 0.38761437474218174 0 0.3118315069467615 0 0
          <InformationKey name="L2_NORM_RANGE" location="vtkDataArray" length="2">
            <Value index="0">
              0.0045393886019
            </Value>
            <Value index="1">
              0.82013484071
            </Value>
          </InformationKey>
        </DataArray>
        <DataArray type="Float64" Name="ALEdispl" NumberOfComponents="3" format="ascii" RangeMin="0" RangeMax="0">
          0 0 0 0 0 0
          0 0 0 0 0 0
          0 0 0 0 0 0
          0 0 0 0 0 0
          0 0 0 0 0 0
          0 0 0 0 0 0
          0 0 0 0 0 0
          0 0 0 0 0 0
          0 0 0 0 0 0
          0 0 0 0 0 0
          0 0 0 0 0 0
          0 0 0 0 0 0
          0 0 0 0 0 0
          0 0 0 0 0 0
          0 0 0 0 0 0
          0 0 0 0 0 0
          0 0 0 0 0 0
          0 0 0 0 0 0
          0 0 0 0 0 0
          0 0 0 0 0 0
          0 0 0 0 0 0
          0 0 0 0 0 0
          0 0 0 0 0 0
          0 0 0 0 0 0
          0 0 0 0 0 0
          0 0 0 0 0 0
          0 0 0 0 0 0
          0 0 0 0 0 0
          0 0 0 0 0 0
          0 0 0 0 0 0
          0 0 0 0 0 0
          0 0 0 0 0 0
          0 0 0 0 0 0
          0 0 0 0 0 0
          0 0 0 0 0 0
          0 0 0 0 0 0
          0 0 0 0 0 0
          0 0 0 0 0 0
          0 0 0 0 0 0
          0 0 0 0 0 0
          0 0 0 0 0 0
          0 0 0 0 0 0
          0 0 0 0 0 0
          0 0 0 0 0 0
          0 0 0 0 0 0
          0 0 0 0 0 0
          0 0 0 0 0 0
          <InformationKey name="L2_NORM_RANGE" location="vtkDataArray" length="2">
            <Value index="0">
              0
            </Value>
            <Value index="1">
              0
            </Value>
          </InformationKey>
        </DataArray>
        <DataArray type="Float64" Name="ALEveloc" NumberOfComponents="3" format="ascii" RangeMin="0" RangeMax="0">
          0 0 0 0 0 0
          0 0 0 0 0 0
          0 0 0 0 0 0
          0 0 0 0 0 0
          0 0 0 0 0 0
          0 0 0 0 0 0
          0 0 0 0 0 0
          0 0 0 0 0 0
          0 0 0 0 0 0
          0 0 0 0 0 0
          0 0 0 0 0 0
          0 0 0 0 0 0
          0 0 0 0 0 0
          0 0 0 0 0 0
          0 0 0 0 0 0
          0 0 0 0 0 0
          0 0 0 0 0 0
          0 0 0 0 0 0
          0 0 0 0 0 0
          0 0 0 0 0 0
          0 0 0 0 0 0
          0 0 0 0 0 0
          0 0 0 0 0 0
          0 0 0 0 0 0
          0 0 0 0 0 0
          0 0 0 0 0 0
          0 0 0 0 0 0
          0 0 0 0 0 0
          0 0 0 0 0 0
          0 0 0 0 0 0
          0 0 0 0 0 0
          0 0 0 0 0 0
          0 0 0 0 0 0
          0 0 0 0 0 0
          0 0 0 0 0 0
          0 0 0 0 0 0
          0 0 0 0 0 0
          0 0 0 0 0 0
          0 0 0 0 0 0
          0 0 0 0 0 0
          0 0 0 0 0 0
          0 0 0 0 0 0
          0 0 0 0 0 0
          0 0 0 0 0 0
          0 0 0 0 0 0
          0 0 0 0 0 0
          0 0 0 0 0 0
          <InformationKey name="L2_NORM_RANGE" location="vtkDataArray" length="2">
            <Value index="0">
              0
            </Value>
            <Value index="1">
              0
            </Value>
          </InformationKey>
        </DataArray>
      </PointData>
      <CellData>
        <DataArray type="UInt8" Name="vtkGhostType" format="ascii" RangeMin="0" RangeMax="1">
          0 0 0 0 0 0
          0 0 1 0 0 1
          0 1 0 0 1 1
          1 0 0 0 0 0
          1 1 0 1 1 0
          1 1 0 1 0 0
          0 0 0 0 0 0
          0 0 0 0 0 0
          0 0 0 0 0 0
          0 0 0 0 0 0
          0 0 0 0 0 0
          0 0 0 0 0 0
          0 0 0 0 0 0
          0 0 0 0 0 0
          0 1 0 0 0 0
          0 0 0 1 0 0
          0 0 0 0 0 1
          0 0 0 0 0 0
          0 0 0 0 0 0
          0 0 0 0 0 0
          0 0 0 0 0 0
          0 0 0 0 0 0
          0 1 0 0 0 0
          0 0 0 0 0 0
          0 0 0 0 0 0
        </DataArray>
        <DataArray type="Float64" Name="PStrain" NumberOfComponents="6" format="ascii" RangeMin="0.1732050807568877" RangeMax="0.1732050807568877">
          0.09999999999999999 0.09999999999999999 0 0.09999999999999999 0 0
          0.09999999999999999 0.09999999999999999 0 0.09999999999999999 0 0
          0.09999999999999999 0.09999999999999999 0 0.09999999999999999 0 0
          0.09999999999999999 0.09999999999999999 0 0.09999999999999999 0 0
          0.09999999999999999 0.09999999999999999 0 0.09999999999999999 0 0
          0.09999999999999999 0.09999999999999999 0 0.09999999999999999 0 0
          0.09999999999999999 0.09999999999999999 0 0.09999999999999999 0 0
          0.09999999999999999 0.09999999999999999 0 0.09999999999999999 0 0
          0.09999999999999999 0.09999999999999999 0 0.09999999999999999 0 0
          0.09999999999999999 0.09999999999999999 0 0.09999999999999999 0 0
          0.09999999999999999 0.09999999999999999 0 0.09999999999999999 0 0
          0.09999999999999999 0.09999999999999999 0 0.09999999999999999 0 0
          0.09999999999999999 0.09999999999999999 0 0.09999999999999999 0 0
          0.09999999999999999 0.09999999999999999 0 0.09999999999999999 0 0
          0.09999999999999999 0.09999999999999999 0 0.09999999999999999 0 0
          0.09999999999999999 0.09999999999999999 0 0.09999999999999999 0 0
          0.09999999999999999 0.09999999999999999 0 0.09999999999999999 0 0
          0.09999999999999999 0.09999999999999999 0 0.09999999999999999 0 0
          0.09999999999999999 0.09999999999999999 0 0.09999999999999999 0 0
          0.09999999999999999 0.09999999999999999 0 0.09999999999999999 0 0
          0.09999999999999999 0.09999999999999999 0 0.09999999999999999 0 0
          0.09999999999999999 0.09999999999999999 0 0.09999999999999999 0 0
          0.09999999999999999 0.09999999999999999 0 0.09999999999999999 0 0
          0.09999999999999999 0.09999999999999999 0 0.09999999999999999 0 0
          0.09999999999999999 0.09999999999999999 0 0.09999999999999999 0 0
          0.09999999999999999 0.09999999999999999 0 0.09999999999999999 0 0
          0.09999999999999999 0.09999999999999999 0 0.09999999999999999 0 0
          0.09999999999999999 0.09999999999999999 0 0.09999999999999999 0 0
          0.09999999999999999 0.09999999999999999 0 0.09999999999999999 0 0
          0.09999999999999999 0.09999999999999999 0 0.09999999999999999 0 0
          0.09999999999999999 0.09999999999999999 0 0.09999999999999999 0 0
          0.09999999999999999 0.09999999999999999 0 0.09999999999999999 0 0
          0.09999999999999999 0.09999999999999999 0 0.09999999999999999 0 0
          0.09999999999999999 0.09999999999999999 0 0.09999999999999999 0 0
          0.09999999999999999 0.09999999999999999 0 0.09999999999999999 0 0
          0.09999999999999999 0.09999999999999999 0 0.09999999999999999 0 0
          0.09999999999999999 0.09999999999999999 0 0.09999999999999999 0 0
          0.09999999999999999 0.09999999999999999 0 0.09999999999999999 0 0
          0.09999999999999999 0.09999999999999999 0 0.09999999999999999 0 0
          0.09999999999999999 0.09999999999999999 0 0.09999999999999999 0 0
          0.09999999999999999 0.09999999999999999 0 0.09999999999999999 0 0
          0.09999999999999999 0.09999999999999999 0 0.09999999999999999 0 0
          0.09999999999999999 0.09999999999999999 0 0.09999999999999999 0 0
          0.09999999999999999 0.09999999999999999 0 0.09999999999999999 0 0
          0.09999999999999999 0.09999999999999999 0 0.09999999999999999 0 0
          0.09999999999999999 0.09999999999999999 0 0.09999999999999999 0 0
          0.09999999999999999 0.09999999999999999 0 0.09999999999999999 0 0
          0.09999999999999999 0.09999999999999999 0 0.09999999999999999 0 0
          0.09999999999999999 0.09999999999999999 0 0.09999999999999999 0 0
          0.09999999999999999 0.09999999999999999 0 0.09999999999999999 0 0
          0.09999999999999999 0.09999999999999999 0 0.09999999999999999 0 0
          0.09999999999999999 0.09999999999999999 0 0.09999999999999999 0 0
          0.09999999999999999 0.09999999999999999 0 0.09999999999999999 0 0
          0.09999999999999999 0.09999999999999999 0 0.09999999999999999 0 0
          0.09999999999999999 0.09999999999999999 0 0.09999999999999999 0 0
          0.09999999999999999 0.09999999999999999 0 0.09999999999999999 0 0
          0.09999999999999999 0.09999999999999999 0 0.09999999999999999 0 0
          0.09999999999999999 0.09999999999999999 0 0.09999999999999999 0 0
          0.09999999999999999 0.09999999999999999 0 0.09999999999999999 0 0
          0.09999999999999999 0.09999999999999999 0 0.09999999999999999 0 0
          0.09999999999999999 0.09999999999999999 0 0.09999999999999999 0 0
          0.09999999999999999 0.09999999999999999 0 0.09999999999999999 0 0
          0.09999999999999999 0.09999999999999999 0 0.09999999999999999 0 0
          0.09999999999999999 0.09999999999999999 0 0.09999999999999999 0 0
          0.09999999999999999 0.09999999999999999 0 0.09999999999999999 0 0
          0.09999999999999999 0.09999999999999999 0 0.09999999999999999 0 0
          0.09999999999999999 0.09999999999999999 0 0.09999999999999999 0 0
          0.09999999999999999 0.09999999999999999 0 0.09999999999999999 0 0
          0.09999999999999999 0.09999999999999999 0 0.09999999999999999 0 0
          0.09999999999999999 0.09999999999999999 0 0.09999999999999999 0 0
          0.09999999999999999 0.09999999999999999 0 0.09999999999999999 0 0
          0.09999999999999999 0.09999999999999999 0 0.09999999999999999 0 0
          0.09999999999999999 0.09999999999999999 0 0.09999999999999999 0 0
          0.09999999999999999 0.09999999999999999 0 0.09999999999999999 0 0
          0.09999999999999999 0.09999999999999999 0 0.09999999999999999 0 0
          0.09999999999999999 0.09999999999999999 0 0.09999999999999999 0 0
          0.09999999999999999 0.09999999999999999 0 0.09999999999999999 0 0
          0.09999999999999999 0.09999999999999999 0 0.09999999999999999 0 0
          0.09999999999999999 0.09999999999999999 0 0.09999999999999999 0 0
          0.09999999999999999 0.09999999999999999 0 0.09999999999999999 0 0
          0.09999999999999999 0.09999999999999999 0 0.09999999999999999 0 0
          0.09999999999999999 0.09999999999999999 0 0.09999999999999999 0 0
          0.09999999999999999 0.09999999999999999 0 0.09999999999999999 0 0
          0.09999999999999999 0.09999999999999999 0 0.09999999999999999 0 0
          0.09999999999999999 0.09999999999999999 0 0.09999999999999999 0 0
          0.09999999999999999 0.09999999999999999 0 0.09999999999999999 0 0
          0.09999999999999999 0.09999999999999999 0 0.09999999999999999 0 0
          0.09999999999999999 0.09999999999999999 0 0.09999999999999999 0 0
          0.09999999999999999 0.09999999999999999 0 0.09999999999999999 0 0
          0.09999999999999999 0.09999999999999999 0 0.09999999999999999 0 0
          0.09999999999999999 0.09999999999999999 0 0.09999999999999999 0 0
          0.09999999999999999 0.09999999999999999 0 0.09999999999999999 0 0
          0.09999999999999999 0.09999999999999999 0 0.09999999999999999 0 0
          0.09999999999999999 0.09999999999999999 0 0.09999999999999999 0 0
          0.09999999999999999 0.09999999999999999 0 0.09999999999999999 0 0
          0.09999999999999999 0.09999999999999999 0 0.09999999999999999 0 0
          0.09999999999999999 0.09999999999999999 0 0.09999999999999999 0 0
          0.09999999999999999 0.09999999999999999 0 0.09999999999999999 0 0
          0.09999999999999999 0.09999999999999999 0 0.09999999999999999 0 0
          0.09999999999999999 0.09999999999999999 0 0.09999999999999999 0 0
          0.09999999999999999 0.09999999999999999 0 0.09999999999999999 0 0
          0.09999999999999999 0.09999999999999999 0 0.09999999999999999 0 0
          0.09999999999999999 0.09999999999999999 0 0.09999999999999999 0 0
          0.09999999999999999 0.09999999999999999 0 0.09999999999999999 0 0
          0.09999999999999999 0.09999999999999999 0 0.09999999999999999 0 0
          0.09999999999999999 0.09999999999999999 0 0.09999999999999999 0 0
          0.09999999999999999 0.09999999999999999 0 0.09999999999999999 0 0
          0.09999999999999999 0.09999999999999999 0 0.09999999999999999 0 0
          0.09999999999999999 0.09999999999999999 0 0.09999999999999999 0 0
          0.09999999999999999 0.09999999999999999 0 0.09999999999999999 0 0
          0.09999999999999999 0.09999999999999999 0 0.09999999999999999 0 0
          0.09999999999999999 0.09999999999999999 0 0.09999999999999999 0 0
          0.09999999999999999 0.09999999999999999 0 0.09999999999999999 0 0
          0.09999999999999999 0.09999999999999999 0 0.09999999999999999 0 0
          0.09999999999999999 0.09999999999999999 0 0.09999999999999999 0 0
          0.09999999999999999 0.09999999999999999 0 0.09999999999999999 0 0
          0.09999999999999999 0.09999999999999999 0 0.09999999999999999 0 0
          0.09999999999999999 0.09999999999999999 0 0.09999999999999999 0 0
          0.09999999999999999 0.09999999999999999 0 0.09999999999999999 0 0
          0.09999999999999999 0.09999999999999999 0 0.09999999999999999 0 0
          0.09999999999999999 0.09999999999999999 0 0.09999999999999999 0 0
          0.09999999999999999 0.09999999999999999 0 0.09999999999999999 0 0
          0.09999999999999999 0.09999999999999999 0 0.09999999999999999 0 0
          0.09999999999999999 0.09999999999999999 0 0.09999999999999999 0 0
          0.09999999999999999 0.09999999999999999 0 0.09999999999999999 0 0
          0.09999999999999999 0.09999999999999999 0 0.09999999999999999 0 0
          0.09999999999999999 0.09999999999999999 0 0.09999999999999999 0 0
          0.09999999999999999 0.09999999999999999 0 0.09999999999999999 0 0
          0.09999999999999999 0.09999999999999999 0 0.09999999999999999 0 0