<?xml version="1.0"?>
<VTKFile type="UnstructuredGrid" version="0.1" byte_order="LittleEndian" header_type="UInt32" compressor="vtkZLibDataCompressor">
  <UnstructuredGrid>
    <Piece NumberOfPoints="97" NumberOfCells="154">
      <PointData>
        <DataArray type="Float64" Name="Velocity" NumberOfComponents="3" format="ascii" RangeMin="0" RangeMax="3.8783068709381543">
          0.7030245312299275 0.46964661998949164 0 1.144312252132638 0 0
          0.8706981473837242 -0.007634126523404346 0 0.952828655153155 0.029730643539026456 0
          1.0540732023712254 0.054643224019223544 0 0.9960927016425466 0 0
          0.7544698333856387 -0.44590691214420697 0 1.0615381527616132 0 0
          1.0016036259221734 -0.04115728668765315 0 1.0046259191804054 0.0035684517323915266 0
          0.9979877876716281 0 0 0.9650519484845816 0 0
          1.0076854814520082 0 0 0.9977889638602542 0 0
          0.9970581832708179 0.002193725246078689 0 0.9978229604026528 0.0024366486922080544 0
          1.0041969833503184 0 0 0.9937351991153859 0 0
          1.0018125503302417 0.004422789639004472 0 0.9963175286499569 -0.002253145088936325 0
          0.9997819333750539 -0.0021937832268034995 0 1.0156686646463842 0 0
          0.9927115566411308 0 0 1.0003810896346603 0.011637927282733069 0
          0.9974754026498907 -0.022505407292599432 0 1.0050973580413547 -0.01185310923300096 0
          1.0269821750857977 0 0 1.0306998876088311 0 0
          0.9743198717371493 -0.008667390464450355 0 1.0229377673152023 -0.08267669223843385 0
          0.9665568413104605 -0.048905500792748954 0 1.0249358426733037 -0.043791317732484195 0
          1.0869870243813846 0 0 1.0718473769102235 0 0
          1.0527674877264972 -0.16984552423986962 0 0.9368139699066645 -0.2063671387654375 0
          0.912887044593697 -0.014765916992407611 0 1.0173459115544823 0 0
          1.2732738440044031 -0.22710565011653638 0 1.0585701610923113 -0.43547851410894894 0
          0.7326501331541755 -0.37298600990349157 0 1.2906392639054705 -0.6045024600269611 0
          0.7821274248698029 -0.07508803117678364 0 1.0399970438069448 -0.8140952653031389 0
          0.9999387391499325 -0.6111897522913159 0 0.661614974173486 -0.5672804156957337 0
          1.1540011936137715 0 0 1.393303401455735 -0.6848539489537504 0
          0.47536567736391583 -0.2822579798894199 0 1.5575085865156029 -0.75647366357315 0
          0.9104485195799598 -1.0560433128810884 0 0.7341629302101764 -0.01059297312742273 0
          0.46407878289757404 -0.8233605661010243 0 1.5850694572306714 -1.3569996703513016 0
          0.5847798051030793 -0.34685809600651224 0 0.506916988743739 -1.1619450626487091 0
          1.299182178859002 -0.8144009286048418 0 0.20553798830832895 -0.6667532872684111 0
          1.0421834777276502 -1.898579304359133 0 1.2960574127187865 0 0
          0.20187928994391582 -1.2523064775973576 0 0.3714272853664129 -0.2800432836416591 0
          1.6780541024114097 -2.026154614556267 0 -0.14352574005400454 -0.56818853679819 0
          0.2910372222907402 -2.2572060243151424 0 2.6959130632247734 -1.8151686464552939 0
          -0.020757649622662674 -0.7562702628507735 0 1.1726175649787827 -2.803739162949289 0
          -1.0363168031287495 -0.9719777362217461 0 2.9889865394207984 -2.471279760028673 0
          0.743363333132133 -0.36842459797188015 0 -0.6816055928332267 -2.304207689067119 0
          0.8936602972020599 0 0 -0.05361651242982571 -0.34297539002175187 0
          1.595052748301945 0.4663530642588495 0 -0.7192527100483291 -0.8277167752649939 0
          -1.178669679476417 0.22304425911792314 0 -1.0619008494518154 1.2827549578024466 0
          0.14297185286948177 0 0 0.14714568138036366 -0.28204151301322083 0
          -0.2933750692039653 0.20456376789992284 0 -0.009010010481244633 -0.5475009822211667 0
          0 0 0 0.1542596222805457 0 0
          0 0 0 0 0 0
          0 0 0 0 0 0
          1.3535777074937156 -0.12060446121835322 0 1.6441655343098898 -0.3666248631958416 0
          1.0913374231003539 0 0 1.9658769344712737 0.8719873770903946 0
          2.8305234999740554 -0.5371378905167495 0 2.7256516066988548 -1.1163153759047897 0
          1.631883832423111 -1.0046146508875193 0 0.6471221295582156 2.3343678930659095 0
          0 0 0
          <InformationKey name="L2_NORM_RANGE" location="vtkDataArray" length="2">
            <Value index="0">
              0
            </Value>
            <Value index="1">
              3.8783068709
            </Value>
          </InformationKey>
        </DataArray>
        <DataArray type="Float64" Name="Pressure" format="ascii" RangeMin="-16.951387957253253" RangeMax="0.3622805980782186">
          0.05513813370312873 -0.1574818301066183 0.11037586335748512 -0.1412276008899615 -0.1384865120597515 -0.05968490285264205
          0.07351548363492091 -0.33460655347393664 -0.08617961076005579 -0.11641305055050183 -0.09692041612870561 -0.051202634316064616
          -0.13230644772838368 -0.0978846370413293 -0.10831895309703758 -0.10003694401661314 -0.11134999209494621 -0.09127675529769648
          -0.11847065961950534 -0.10013587561991436 -0.08970793672603056 -0.12729297898304842 -0.06271040558931419 -0.13669810678865876
          -0.10400472533336758 -0.06925093298575283 -0.10226518518659047 -0.04517283456098989 -0.16017718849101387 -0.10388834604090144
          -0.10786076657132998 0.05227931343672989 -0.2281074317704097 -0.05136960389977238 -0.014993069919398583 -0.13993548415759727
          -0.2173976114447041 -0.22908106152394717 -0.02045728123821311 -0.2635767135193262 -0.2312276523861381 -0.2653487318561082
          -0.423268837267139 -0.6433248590714107 -0.07410719231325226 -0.5123657271344794 -0.44061095601284656 -0.8421248094881165
          -0.39992371068855004 -0.5392451630279973 -0.5582475918915762 -0.5284402237364401 -0.7630937388999841 -2.2203608854129615
          -0.7005487400001214 -0.9201056754393938 -0.0040076099813508015 -0.7055471184567684 -2.799183363227694 -0.8213165284028173
          -1.1601631371846657 -0.5839721134851674 -2.69592261486373 -0.9910263503095272 -4.007663951729737 -3.911056276619626
          -1.8302608366339195 -8.451682832707373 -3.4146506185678422 -11.622993747116027 -1.209744865914097 -12.573561081205828
          -0.7445408292617709 -1.4300098855058914 -16.951387957253253 -2.702442369752316 -5.306533346698364 -11.594036242240355
          -0.4425686092052354 -1.6762599155689972 -2.736781614683881 -1.2763182530969237 -3.448077993064613 -0.7224116908890548
          -2.2545004387848575 -1.573120819113944 -1.1438473154921207 -0.8942783931939409 0.029464054011323404 -0.017849965858215744
          0.3622805980782186 -8.578828459758578 -3.76865931103824 -1.925608578100165 -1.0384765643128007 -10.460889818567852
          -6.054587460440069
        </DataArray>
        <DataArray type="Float64" Name="BTraction" NumberOfComponents="3" format="ascii" RangeMin="0" RangeMax="5.67447593285659">
          -0.04889936246116466 0.02336757423481449 0 0.006784654688440024 0.11201061382097267 0
          -0.1102860927469889 0.001214016189079336 0 0 0 0
          0 0 0 0.002127814569401067 0.08110607386179591 0
          -0.049870180776281914 -0.03870165657006789 0 0.005398626246324643 -0.22333299306121815 0
          0 0 0 0 0 0
          0.00011492937440033461 0.09044718479185189 0 -0.0024564315828707268 -0.11032162003364764 0
          -0.0005823451590150192 -0.11468802100272661 0 -0.00009746422090989997 0.09670175436597955 0
          0 0 0 0 0 0
          0.00044632674040401456 -0.11801157608605153 0 -0.00015199953567766105 0.08862358563765371 0
          0 0 0 0 0 0
          0 0 0 0.0011232269051438999 -0.12216888686540257 0
          -0.0002782743202983201 0.0661233091229087 0 0 0 0
          0 0 0 0 0 0
          0.00300529998959574 -0.12755335383663222 0 0.00014989461437045222 0.050169854082183885 0
          0 0 0 0 0 0
          0 0 0 0 0 0
          0.00902466775226963 -0.20764932306260125 0 -0.0031804395012369367 -0.0077583883864587285 0
          0 0 0 0 0 0
          0 0 0 0.013429554570358349 -0.2686979786995101 0
          0 0 0 0 0 0
          0 0 0 0 0 0
          0 0 0 0 0 0
          0 0 0 0 0 0
          0.03915774884248335 -0.45297125474792216 0 0 0 0
          0 0 0 0 0 0
          0 0 0 0 0 0
          0 0 0 0 0 0
          0 0 0 0 0 0
          0 0 0 0 0 0
          0 0 0 0.05767561643395703 -0.6871365089716692 0
          0 0 0 0 0 0
          0 0 0 0 0 0
          0 0 0 0 0 0
          0 0 0 0 0 0
          0 0 0 0 0 0
          0 0 0 0 0 0
          0.020613411148852505 -0.6494857668751715 0 0 0 0
          0 0 0 0 0 0
          0 0 0 0 0 0
          -0.030792841298521462 -0.4544706884130496 0 0 0 0
          0 0 0 0 0 0
          -3.383705047603663 -0.2732012004987679 0 -0.0007035051381240785 -0.6495766285379271 0
          -2.2993124900509976 0.032796787121258546 0 -1.6471686580548934 0.051801080979563145 0
          -1.1848057334146198 0.02298143769503488 0 -0.46665409530710383 -0.4007555951362174 0
          0 0 0 0 0 0
          -0.005844984050167524 -0.17586141264322813 0 0 0 0
          0 0 0 0 0 0
          0 0 0 0 0 0
          -5.661930910812589 -0.37711466923682646 0
          <InformationKey name="L2_NORM_RANGE" location="vtkDataArray" length="2">
            <Value index="0">
              0
            </Value>
            <Value index="1">
              5.6744759329
            </Value>
          </InformationKey>
        </DataArray>
        <DataArray type="Float64" Name="Sigma" NumberOfComponents="6" format="ascii" RangeMin="0.00007012105744876302" RangeMax="0.6639655056408295">
          -0.03626049898404789 0.036485083458482004 0 0.012178115977620443 0 0
          -0.0008779202332125876 0.0007144025685449299 0 0.006743523741778575 0 0
          -0.009098071347104952 0.009104386319222453 0 0.0013075074529546092 0 0
          0.0018204762161651712 -0.0016615997641547153 0 0.0007685029001006317 0 0
          -0.001966497899835198 0.0018576444602405884 0 -0.0033937804935480296 0 0
          0.0016739752710639834 -0.0017531003828122978 0 0.0015557171859054014 0 0
          -0.018906701341475735 0.01879052986899226 0 -0.010124048654962864 0 0
          -0.0014784929322980954 0.0019933293146760264 0 -0.00695023159384293 0 0
          -0.0008878126591365051 0.0008597359281445837 0 -0.0003782746476068857 0 0
          -0.0009997891400168252 0.0009864800093568134 0 -0.0004233590578064258 0 0
          0.00024923211221251977 -0.0002074155124123597 0 -0.00019950506899377594 0 0
          0.002665713378716104 -0.002879253337277936 0 0.005533217552386726 0 0
          0.00037453585958437054 -0.00027013423025715313 0 -0.00044404911847961817 0 0
          0.000007837321977094312 0.000014666774779263199 0 -0.00006812066352828962 0 0
          0.00014096317570406244 -0.00019764858099206335 0 0.00012719636238774773 0 0
          0.00010481593073875665 -0.00009387862774172405 0 -0.00018883547956405805 0 0
          -0.00033235895755191465 0.00030949895012060417 0 -0.0002629501243781365 0 0
          -0.00003597367771046245 0.000023111309576634912 0 -0.0001019797542232526 0 0
          0.00026093207276043024 -0.00020963182819508873 0 -0.00037237151188567255 0 0
          -0.00025273539134896276 0.00029278884746668406 0 0.0003468179449038729 0 0
          0.0002699051209606513 -0.00032637639023734485 0 0.0002494016356857786 0 0
          -0.0018248783693636571 0.0017684326664099662 0 -0.001275381641011053 0 0
          -0.0013930560678804434 0.001516555143354939 0 -0.0004914762866652766 0 0
          0.0017598056227345735 -0.0018389459254373724 0 -0.00007914291632989946 0 0
          -0.00009145941837409563 0.0001756318379197274 0 0.0016301521716092634 0 0
          -0.0027144411217543945 0.002633058268970931 0 0.0008188655515791263 0 0
          -0.0015819886987884745 0.0017903891787948874 0 -0.0015535410781296673 0 0
          0.0007792997035856961 -0.0008433126713041123 0 0.0004473935947589989 0 0
          0.0006291480774495859 -0.0007369960964164407 0 -0.0010576618148667029 0 0
          -0.0002892057578352367 -0.00006480484863921357 0 0.007882924657410787 0 0
          0.00488843130544219 -0.004549487392550523 0 0.005030104149367058 0 0
          -0.008747725411902635 0.009276269354989673 0 0.001982171097298274 0 0
          -0.0006127889748694135 0.0007256107398914433 0 -0.01143829391012107 0 0
          -0.008482605105719453 0.007768442244492854 0 -0.00039217325051901894 0 0
          -0.010834694500908152 0.01110303615928866 0 0.008323988044038803 0 0
          0.004636472266960651 -0.004796313172010366 0 0.017279705256885457 0 0
          0.011921144940305944 -0.01218179119029983 0 0.002720601197897276 0 0
          -0.007457792456505407 0.007040842727405171 0 -0.007256429008638984 0 0
          -0.021711043270091827 0.021503939142085662 0 0.011087593503865697 0 0
          -0.011057407796463633 0.01085845477663043 0 0.04088765471189887 0 0
          0.025525520509735312 -0.024735549014861306 0 0.025061890625524205 0 0
          -0.048848750834002086 0.048967532048575665 0 0.03381009533201497 0 0
          0.0271997059167345 -0.02696243496757864 0 -0.013664414064956365 0 0
          0.01947568250888736 -0.021419923177527184 0 0.01313092529235833 0 0
          -0.021090113300750325 0.022232988724560372 0 0.07130212471770865 0 0
          0.05780790139371102 -0.06053601727085735 0 0.1239424049433283 0 0
          -0.0073136968256913145 0.00904882639844057 0 -0.04158677863432294 0 0
          -0.11361528520314328 0.11712733744682813 0 0.08496347787498107 0 0
          0.04456138276430173 -0.04335581091563005 0 0.03126073239940221 0 0
          0.08616684780438652 -0.08696229916125743 0 0.0010979600939585478 0 0
          -0.02224892751605691 0.027893408521876814 0 0.13550128483023488 0 0
          -0.0013914984881411414 0.0013795603344590652 0 -0.0019984554930373988 0 0
          0.029525132347610387 -0.030126917532708332 0 0.05983784310512866 0 0
          -0.05955018732100699 0.05218199042363757 0 0.01196337461319133 0 0
          0.09386362181075415 -0.09940725476289616 0 0.0025188925466739787 0 0
          0.044624215670196456 -0.044011225787941824 0 0.08245273665786342 0 0
          -0.06344204019633125 0.06232003876926094 0 0.027709931518665794 0 0
          0.07518796022326985 -0.07310820769273646 0 0.039307351525782866 0 0
          0.027144727290798868 -0.029031181561989833 0 0.26375525690749196 0 0
          0.06801474519556149 -0.07095103961899543 0 -0.0694870651504487 0 0
          0.11459346872988407 -0.11538838820952256 0 0.06841726299693969 0 0
          0.009803074036613395 -0.006059951021852085 0 -0.03412946176368626 0 0
          -0.3070183098240445 0.3089924492448374 0 0.3620726780652888 0 0
          0.026607329935076637 -0.024447462736158377 0 -0.0037628495268787806 0 0
          0.3287907991996139 -0.32871977586759893 0 0.3186068938698808 0 0
          -0.3085976183333687 0.31246411591525336 0 0.05379932183769006 0 0
          0.13038873028985798 -0.13427365289358376 0 -0.05879711212056863 0 0
          -0.05918628210570954 0.06446623321842866 0 0.12486898567434351 0 0
          0.3194979880772206 -0.31531076632380856 0 -0.07612117788799132 0 0
          0.0044802083371511675 -0.0011110961517413337 0 -0.3645085172013853 0 0
          0.059633154272798375 -0.05935062510017358 0 -0.04426375364085554 0 0
          0.03847350128146551 -0.03952551807393012 0 0.015261757902741549 0 0
          0.04916545547241702 -0.04975774555509693 0 -0.024951991377622256 0 0
          0.001821644142478809 0.0002537606908540762 0 -0.0409924092091457 0 0
          0.11562464809291838 -0.1244099723503835 0 -0.20452506431176812 0 0
          -0.01587054443691526 0.011454804293144421 0 -0.1341148068059902 0 0
          -0.057198417105987276 0.062316588883058154 0 -0.48914991108769634 0 0
          -0.09840536227735738 0.08135386533343003 0 -0.15932843818804374 0 0
          0.10102619922341687 -0.10286085101830758 0 0.053942972199629534 0 0
          -0.028573152481783458 0.03271096701539532 0 -0.053342915792841415 0 0
          -0.0706328875400283 0.07015606529524011 0 -0.06170415179316498 0 0
          0.029743259829988142 -0.0337197737781627 0 -0.035461998567731204 0 0
          -0.3912445283397821 0.40755345947297916 0 0.34882386586452263 0 0
          0.0610484372973434 -0.05086635081823413 0 -0.0046052794866989375 0 0
          0.025809554660245496 -0.03329255979956602 0 -0.12799858263589844 0 0
          0.020777829118402237 -0.023777625403648448 0 -0.039962630406405915 0 0
          0.009159767440657643 -0.00630376968964569 0 -0.01556698771474438 0 0
          -0.018937801121826463 0.003406860819396068 0 -0.035486315126904894 0 0
          -0.02387584656242144 0.024742446392876295 0 0.0044184113529558335 0 0
          -0.05302897288649405 0.050382954079484774 0 -0.01626707004142769 0 0
          -0.019622970002942004 0.020861196306282286 0 -0.018653958007328365 0 0
          0.3821702281045613 -0.3773709894733411 0 -0.1685705117046915 0 0
          -0.12664333307679643 0.11661314585986367 0 -0.25781598978039216 0 0
          -0.07519155855742468 0.07873882546699303 0 -0.15545355011037518 0 0
          -0.3220510183144309 0.3228045768120775 0 0.1012933669582635 0 0
          0.011316599142588799 -0.016798656978373044 0 0.5517782454767891 0 0
          0.0069720670959304565 0.003420541168439928 0 0.4098874789048059 0 0
          <InformationKey name="L2_NORM_RANGE" location="vtkDataArray" length="2">
            <Value index="0">
              7.0121057449e-05
            </Value>
            <Value index="1">
              0.66396550564
            </Value>
          </InformationKey>
        </DataArray>
        <DataArray type="Float64" Name="ALEdispl" NumberOfComponents="3" format="ascii" RangeMin="0" RangeMax="0">
          0 0 0 0 0 0
          0 0 0 0 0 0
          0 0 0 0 0 0
          0 0 0 0 0 0
          0 0 0 0 0 0
          0 0 0 0 0 0
          0 0 0 0 0 0
          0 0 0 0 0 0
          0 0 0 0 0 0
          0 0 0 0 0 0
          0 0 0 0 0 0
          0 0 0 0 0 0
          0 0 0 0 0 0
          0 0 0 0 0 0
          0 0 0 0 0 0
          0 0 0 0 0 0
          0 0 0 0 0 0
          0 0 0 0 0 0
          0 0 0 0 0 0
          0 0 0 0 0 0
          0 0 0 0 0 0
          0 0 0 0 0 0
          0 0 0 0 0 0
          0 0 0 0 0 0
          0 0 0 0 0 0
          0 0 0 0 0 0
          0 0 0 0 0 0
          0 0 0 0 0 0
          0 0 0 0 0 0
          0 0 0 0 0 0
          0 0 0 0 0 0
          0 0 0 0 0 0
          0 0 0 0 0 0
          0 0 0 0 0 0
          0 0 0 0 0 0
          0 0 0 0 0 0
          0 0 0 0 0 0
          0 0 0 0 0 0
          0 0 0 0 0 0
          0 0 0 0 0 0
          0 0 0 0 0 0
          0 0 0 0 0 0
          0 0 0 0 0 0
          0 0 0 0 0 0
          0 0 0 0 0 0
          0 0 0 0 0 0
          0 0 0 0 0 0
          0 0 0 0 0 0
          0 0 0
          <InformationKey name="L2_NORM_RANGE" location="vtkDataArray" length="2">
            <Value index="0">
              0
            </Value>
            <Value index="1">
              0
            </Value>
          </InformationKey>
        </DataArray>
        <DataArray type="Float64" Name="ALEveloc" NumberOfComponents="3" format="ascii" RangeMin="0" RangeMax="0">
          0 0 0 0 0 0
          0 0 0 0 0 0
          0 0 0 0 0 0
          0 0 0 0 0 0
          0 0 0 0 0 0
          0 0 0 0 0 0
          0 0 0 0 0 0
          0 0 0 0 0 0
          0 0 0 0 0 0
          0 0 0 0 0 0
          0 0 0 0 0 0
          0 0 0 0 0 0
          0 0 0 0 0 0
          0 0 0 0 0 0
          0 0 0 0 0 0
          0 0 0 0 0 0
          0 0 0 0 0 0
          0 0 0 0 0 0
          0 0 0 0 0 0
          0 0 0 0 0 0
          0 0 0 0 0 0
          0 0 0 0 0 0
          0 0 0 0 0 0
          0 0 0 0 0 0
          0 0 0 0 0 0
          0 0 0 0 0 0
          0 0 0 0 0 0
          0 0 0 0 0 0
          0 0 0 0 0 0
          0 0 0 0 0 0
          0 0 0 0 0 0
          0 0 0 0 0 0
          0 0 0 0 0 0
          0 0 0 0 0 0
          0 0 0 0 0 0
          0 0 0 0 0 0
          0 0 0 0 0 0
          0 0 0 0 0 0
          0 0 0 0 0 0
          0 0 0 0 0 0
          0 0 0 0 0 0
          0 0 0 0 0 0
          0 0 0 0 0 0
          0 0 0 0 0 0
          0 0 0 0 0 0
          0 0 0 0 0 0
          0 0 0 0 0 0
          0 0 0 0 0 0
          0 0 0
          <InformationKey name="L2_NORM_RANGE" location="vtkDataArray" length="2">
            <Value index="0">
              0
            </Value>
            <Value index="1">
              0
            </Value>
          </InformationKey>
        </DataArray>
      </PointData>
      <CellData>
        <DataArray type="UInt8" Name="vtkGhostType" format="ascii" RangeMin="0" RangeMax="0">
          0 0 0 0 0 0
          0 0 0 0 0 0
          0 0 0 0 0 0
          0 0 0 0 0 0
          0 0 0 0 0 0
          0 0 0 0 0 0
          0 0 0 0 0 0
          0 0 0 0 0 0
          0 0 0 0 0 0
          0 0 0 0 0 0
          0 0 0 0 0 0
          0 0 0 0 0 0
          0 0 0 0 0 0
          0 0 0 0 0 0
          0 0 0 0 0 0
          0 0 0 0 0 0
          0 0 0 0 0 0
          0 0 0 0 0 0
          0 0 0 0 0 0
          0 0 0 0 0 0
          0 0 0 0 0 0
          0 0 0 0 0 0
          0 0 0 0 0 0
          0 0 0 0 0 0
          0 0 0 0 0 0
          0 0 0 0
        </DataArray>
        <DataArray type="Float64" Name="PStrain" NumberOfComponents="6" format="ascii" RangeMin="0.1732050807568877" RangeMax="0.1732050807568877">
          0.09999999999999999 0.09999999999999999 0 0.09999999999999999 0 0
          0.09999999999999999 0.09999999999999999 0 0.09999999999999999 0 0
          0.09999999999999999 0.09999999999999999 0 0.09999999999999999 0 0
          0.09999999999999999 0.09999999999999999 0 0.09999999999999999 0 0
          0.09999999999999999 0.09999999999999999 0 0.09999999999999999 0 0
          0.09999999999999999 0.09999999999999999 0 0.09999999999999999 0 0
          0.09999999999999999 0.09999999999999999 0 0.09999999999999999 0 0
          0.09999999999999999 0.09999999999999999 0 0.09999999999999999 0 0
          0.09999999999999999 0.09999999999999999 0 0.09999999999999999 0 0
          0.09999999999999999 0.09999999999999999 0 0.09999999999999999 0 0
          0.09999999999999999 0.09999999999999999 0 0.09999999999999999 0 0
          0.09999999999999999 0.09999999999999999 0 0.09999999999999999 0 0
          0.09999999999999999 0.09999999999999999 0 0.09999999999999999 0 0
          0.09999999999999999 0.09999999999999999 0 0.09999999999999999 0 0
          0.09999999999999999 0.09999999999999999 0 0.09999999999999999 0 0
          0.09999999999999999 0.09999999999999999 0 0.09999999999999999 0 0
          0.09999999999999999 0.09999999999999999 0 0.09999999999999999 0 0
          0.09999999999999999 0.09999999999999999 0 0.09999999999999999 0 0
          0.09999999999999999 0.09999999999999999 0 0.09999999999999999 0 0
          0.09999999999999999 0.09999999999999999 0 0.09999999999999999 0 0
          0.09999999999999999 0.09999999999999999 0 0.09999999999999999 0 0
          0.09999999999999999 0.09999999999999999 0 0.09999999999999999 0 0
          0.09999999999999999 0.09999999999999999 0 0.09999999999999999 0 0
          0.09999999999999999 0.09999999999999999 0 0.09999999999999999 0 0
          0.09999999999999999 0.09999999999999999 0 0.09999999999999999 0 0
          0.09999999999999999 0.09999999999999999 0 0.09999999999999999 0 0
          0.09999999999999999 0.09999999999999999 0 0.09999999999999999 0 0
          0.09999999999999999 0.09999999999999999 0 0.09999999999999999 0 0
          0.09999999999999999 0.09999999999999999 0 0.09999999999999999 0 0
          0.09999999999999999 0.09999999999999999 0 0.09999999999999999 0 0
          0.09999999999999999 0.09999999999999999 0 0.09999999999999999 0 0
          0.09999999999999999 0.09999999999999999 0 0.09999999999999999 0 0
          0.09999999999999999 0.09999999999999999 0 0.09999999999999999 0 0
          0.09999999999999999 0.09999999999999999 0 0.09999999999999999 0 0
          0.09999999999999999 0.09999999999999999 0 0.09999999999999999 0 0
          0.09999999999999999 0.09999999999999999 0 0.09999999999999999 0 0
          0.09999999999999999 0.09999999999999999 0 0.09999999999999999 0 0
          0.09999999999999999 0.09999999999999999 0 0.09999999999999999 0 0
          0.09999999999999999 0.09999999999999999 0 0.09999999999999999 0 0
          0.09999999999999999 0.09999999999999999 0 0.09999999999999999 0 0
          0.09999999999999999 0.09999999999999999 0 0.09999999999999999 0 0
          0.09999999999999999 0.09999999999999999 0 0.09999999999999999 0 0
          0.09999999999999999 0.09999999999999999 0 0.09999999999999999 0 0
          0.09999999999999999 0.09999999999999999 0 0.09999999999999999 0 0
          0.09999999999999999 0.09999999999999999 0 0.09999999999999999 0 0
          0.09999999999999999 0.09999999999999999 0 0.09999999999999999 0 0
          0.09999999999999999 0.09999999999999999 0 0.09999999999999999 0 0
          0.09999999999999999 0.09999999999999999 0 0.09999999999999999 0 0
          0.09999999999999999 0.09999999999999999 0 0.09999999999999999 0 0
          0.09999999999999999 0.09999999999999999 0 0.09999999999999999 0 0
          0.09999999999999999 0.09999999999999999 0 0.09999999999999999 0 0
          0.09999999999999999 0.09999999999999999 0 0.09999999999999999 0 0
          0.09999999999999999 0.09999999999999999 0 0.09999999999999999 0 0
          0.09999999999999999 0.09999999999999999 0 0.09999999999999999 0 0
          0.09999999999999999 0.09999999999999999 0 0.09999999999999999 0 0
          0.09999999999999999 0.09999999999999999 0 0.09999999999999999 0 0
          0.09999999999999999 0.09999999999999999 0 0.09999999999999999 0 0
          0.09999999999999999 0.09999999999999999 0 0.09999999999999999 0 0
          0.09999999999999999 0.09999999999999999 0 0.09999999999999999 0 0
          0.09999999999999999 0.09999999999999999 0 0.09999999999999999 0 0
          0.09999999999999999 0.09999999999999999 0 0.09999999999999999 0 0
          0.09999999999999999 0.09999999999999999 0 0.09999999999999999 0 0
          0.09999999999999999 0.09999999999999999 0 0.09999999999999999 0 0
          0.09999999999999999 0.09999999999999999 0 0.09999999999999999 0 0
          0.09999999999999999 0.09999999999999999 0 0.09999999999999999 0 0
          0.09999999999999999 0.09999999999999999 0 0.09999999999999999 0 0
          0.09999999999999999 0.09999999999999999 0 0.09999999999999999 0 0
          0.09999999999999999 0.09999999999999999 0 0.09999999999999999 0 0
          0.09999999999999999 0.09999999999999999 0 0.09999999999999999 0 0
          0.09999999999999999 0.09999999999999999 0 0.09999999999999999 0 0
          0.09999999999999999 0.09999999999999999 0 0.09999999999999999 0 0
          0.09999999999999999 0.09999999999999999 0 0.09999999999999999 0 0
          0.09999999999999999 0.09999999999999999 0 0.09999999999999999 0 0
          0.09999999999999999 0.09999999999999999 0 0.09999999999999999 0 0
          0.09999999999999999 0.09999999999999999 0 0.09999999999999999 0 0
          0.09999999999999999 0.09999999999999999 0 0.09999999999999999 0 0
          0.09999999999999999 0.09999999999999999 0 0.09999999999999999 0 0
          0.09999999999999999 0.09999999999999999 0 0.09999999999999999 0 0
          0.09999999999999999 0.09999999999999999 0 0.09999999999999999 0 0
          0.09999999999999999 0.09999999999999999 0 0.09999999999999999 0 0
          0.09999999999999999 0.09999999999999999 0 0.09999999999999999 0 0
          0.09999999999999999 0.09999999999999999 0 0.09999999999999999 0 0
          0.09999999999999999 0.09999999999999999 0 0.09999999999999999 0 0
          0.09999999999999999 0.09999999999999999 0 0.09999999999999999 0 0
          0.09999999999999999 0.09999999999999999 0 0.09999999999999999 0 0
          0.09999999999999999 0.09999999999999999 0 0.09999999999999999 0 0
          0.09999999999999999 0.09999999999999999 0 0.09999999999999999 0 0
          0.09999999999999999 0.09999999999999999 0 0.09999999999999999 0 0
          0.09999999999999999 0.09999999999999999 0 0.09999999999999999 0 0
          0.09999999999999999 0.09999999999999999 0 0.09999999999999999 0 0
          0.09999999999999999 0.09999999999999999 0 0.09999999999999999 0 0
          0.09999999999999999 0.09999999999999999 0 0.09999999999999999 0 0
          0.09999999999999999 0.09999999999999999 0 0.09999999999999999 0 0
          0.09999999999999999 0.09999999999999999 0 0.09999999999999999 0 0
          0.09999999999999999 0.09999999999999999 0 0.09999999999999999 0 0
          0.09999999999999999 0.09999999999999999 0 0.09999999999999999 0 0
          0.09999999999999999 0.09999999999999999 0 0.09999999999999999 0 0
          0.09999999999999999 0.09999999999999999 0 0.09999999999999999 0 0
          0.09999999999999999 0.09999999999999999 0 0.09999999999999999 0 0
          0.09999999999999999 0.09999999999999999 0 0.09999999999999999 0 0
          0.09999999999999999 0.09999999999999999 0 0.09999999999999999 0 0
          0.09999999999999999 0.09999999999999999 0 0.09999999999999999 0 0
          0.09999999999999999 0.09999999999999999 0 0.09999999999999999 0 0
          0.09999999999999999 0.09999999999999999 0 0.09999999999999999 0 0
          0.09999999999999999 0.09999999999999999 0 0.09999999999999999 0 0
          0.09999999999999999 0.09999999999999999 0 0.09999999999999999 0 0
          0.09999999999999999 0.09999999999999999 0 0.09999999999999999 0 0
          0.09999999999999999 0.09999999999999999 0 0.09999999999999999 0 0
          0.09999999999999999 0.09999999999999999 0 0.09999999999999999 0 0
          0.09999999999999999 0.09999999999999999 0 0.09999999999999999 0 0
          0.09999999999999999 0.09999999999999999 0 0.09999999999999999 0 0
          0.09999999999999999 0.09999999999999999 0 0.09999999999999999 0 0