<?xml version="1.0"?>
<VTKFile type="UnstructuredGrid" version="0.1" byte_order="LittleEndian" header_type="UInt32" compressor="vtkZLibDataCompressor">
  <UnstructuredGrid>
    <Piece NumberOfPoints="94" NumberOfCells="150">
      <PointData>
        <DataArray type="Float64" Name="Velocity" NumberOfComponents="3" format="ascii" RangeMin="0" RangeMax="3.5743120205482546">
          1.0959530736715342 0 0 1.3585938130097448 -0.12619328336884367 0
          1.6694473214659635 -0.3734377585574148 0 1.6598461599051988 0 0
          1.7560461314435258 -1.0327375086314594 0 1.3667880019122436 -0.33921018836543027 0
          2.2104536827624663 -0.1893981636734543 0 2.719750625070243 -1.0452114880289738 0
          2.9600742681774577 -0.18050166331579098 0 1.715162392557963 0 0
          3.0206197630987353 -0.03694447420234759 0 1.8883722353887888 -0.11789110573496517 0
          2.2529289220163506 0.20612258136142522 0 2.003637684257455 0.7944858960812019 0
          3.1808187137041526 0.5542866809981831 0 2.7347362064504765 0.17165493361894935 0
          0.5851133608967201 2.0678181158755606 0 1.907522160160227 -0.3202910395275906 0
          1.631028405244992 0.29771220570138246 0 3.0102706743157883 0.07150138195539557 0
          0 0 0 2.7155599470123644 0.4119384164251565 0
          1.7927228364800087 0.1869587779469973 0 0 0 0
          2.578727098626832 1.095711256937781 0 2.120944866610207 0.2974697485930419 0
          2.153146932977661 0.9240062980867902 0 0 0 0
          0 0 0 2.104965526026605 0.436691993580472 0
          1.5860268359852046 2.1820476666855884 0 1.7758167033260646 0 0
          0 0 0 0 0 0
          2.2375847474266566 0.8828249489290845 0 1.037163811745347 1.831673166189801 0
          1.8532669478060924 0.44890389301253647 0 0 0 0
          1.7268669057059352 0.9405322518090111 0 1.4768707308992246 0.9125470674206044 0
          0 0 0 0.8052425380608477 1.440955153221826 0
          0.20856839781099787 -0.3646109196237919 0 0 0 0
          1.4072653353039932 1.2855497919064078 0 1.546131904554377 1.30203020054659 0
          0.8182951429292861 0.8322449947252489 0 1.7156938955220622 1.1470737233305586 0
          1.4624373822580634 0.25156008920516354 0 -0.25849613904209334 -0.11079636804738063 0
          1.4169625140861084 1.514308756617009 0 0.8805040956397836 1.3657490903840215 0
          1.432104257273692 1.005669015697447 0 0.7808450961298374 1.3227863320887006 0
          0.43381812737634956 0 0 1.0173144298758454 1.2482307644135355 0
          1.3137100345326536 1.1724005776624846 0 0.016166060087209444 0.05362571993477671 0
          0.8890111978093281 1.034866013796899 0 -0.39916819521723257 0.15388020045852477 0
          1.2143102892705708 0.7896685565253874 0 1.4968401625089705 1.2110094355221803 0
          1.1362377649448678 0 0 1.340766036805077 1.2887420419832174 0
          0.4202112874119873 0 0 1.0482531146676963 0.8859544529669723 0
          0.5610551539950376 0.6662737481039973 0 1.0338618103965056 0.1911328779674497 0
          0.1980090638325479 0.055738500625762924 0 -0.49361076218962574 0 0
          1.040942414548379 0.17644351120775661 0 1.0070013485192701 0.47264819690183274 0
          1.1046506161562095 0.8482458914525569 0 1.0201057695805675 0.8654122715761791 0
          0.7313596949467835 0.7813887950495548 0 0.4567317795402695 0 0
          0.9999999999999998 0 0 1 0 0
          1 0 0 0.870748785214707 0 0
          1 0 0 1 0 0
          1 0 0 1 0 0
          1.278222291081029 -0.23425943379170056 0 1.0763732179932184 0 0
          1.464448414276712 0.7673461561012557 0 2.859641164036258 -2.1443317917675664 0
          2.725735746611078 -1.8964379651619894 0 1.3052440477544105 -0.8483625067378793 0
          1.5208879172899181 -0.7655667394523252 0 1.3049054190928449 -0.6089556280043548 0
          -0.9245558839149368 1.357382144336542 0 0 0 0
          <InformationKey name="L2_NORM_RANGE" location="vtkDataArray" length="2">
            <Value index="0">
              0
            </Value>
            <Value index="1">
              3.5743120205
            </Value>
          </InformationKey>
        </DataArray>
        <DataArray type="Float64" Name="Pressure" format="ascii" RangeMin="-15.798162229355368" RangeMax="4.54472068325194">
          0.3644970162528715 0.015818763027173555 -0.08700308082431427 -0.25971679177377616 -1.105685102884661 0.6235345320862311
          -0.08520020360666414 -1.579458837404938 -4.479055485002116 0.6958598060848429 -2.786195469669106 -0.3697822380811606
          -0.9150072073247824 -8.090334999223408 -5.091460926732495 -2.21057202003633 -9.127157699898078 -0.3682912711863888
          -4.860218445752537 -3.9322535490748596 -6.600434034850582 -1.9730980612669389 0.711714743981364 -5.801198133654745
          -8.117115302105974 -0.4054901237517241 -0.555531153160102 -2.0132882836871593 2.217971394110753 -0.4289106019403437
          -2.8424286866217723 1.0288748268398522 2.977748809466024 2.7636586148675018 -1.305249314726172 -0.03401641089480967
          1.0329558118273918 2.997000210143326 0.36043445822179143 0.5843966326659957 3.372821317708621 1.646604048495971
          2.657157740250451 3.6096196766777817 0.7881691319663529 0.32903994724112917 2.4469030513821215 0.9363596279233789
          1.6057508368243 2.869990775220356 0.6043694384016156 1.7035709186650563 1.8734542516239225 2.3599370151272234
          3.6399588050490053 2.3871621774094667 1.772584149534695 3.6376834957787376 2.9187661306337582 3.4810654173734035
          1.9047798954832214 1.4157311735983187 2.041495820436002 1.9582721245960468 3.598534892724281 2.957690369664792
          3.8224745541452965 1.986412330948396 4.010843203855574 4.119099425272011 2.0728040681911777 2.5901860570145274
          3.0262862389018745 3.678598026750982 4.0218330111430625 4.54472068325194 1.9577265277300846 2.024421007107814
          2.3139716580399132 4.508581749671915 2.80899811248453 3.5369875048872785 4.090158998207535 4.281864223128903
          -0.03419743906511724 -0.0639606522714328 -15.798162229355368 -11.31607869021214 -3.8420853937341293 0.010573821502564973
          -0.4175978972879585 -0.2936521131823079 -10.915996423028052 -3.0581233372276064
        </DataArray>
        <DataArray type="Float64" Name="BTraction" NumberOfComponents="3" format="ascii" RangeMin="0" RangeMax="5.458282904362066">
          -0.005802136182769895 -0.16917542945853936 0 0 0 0
          0 0 0 0.02404126145748443 0.0167990111893877 0
          0 0 0 0 0 0
          0 0 0 0 0 0
          0 0 0 0.007914389303332114 -0.5871297478033501 0
          0 0 0 0 0 0
          0 0 0 0 0 0
          0 0 0 0 0 0
          0 0 0 0 0 0
          0 0 0 0 0 0
          -3.8491935319836 -2.2168074984800152 0 0 0 0
          0 0 0 -5.446298189733103 -0.36150835752595367 0
          0 0 0 0 0 0
          0 0 0 0.26508646319001966 -1.732710775880322 0
          -1.930566612043107 -0.23184735004991947 0 0 0 0
          0 0 0 -0.001566177526440615 -1.167664142907209 0
          -2.976866327556019 -0.009312808360313203 0 -2.8079697816120888 0.09746006548339098 0
          0 0 0 0 0 0
          0 0 0 -2.947830394142471 0.0077254534588196925 0
          0 0 0 0 0 0
          -3.3761859110824153 -0.06116417969003369 0 0 0 0
          0 0 0 -1.7368981431633927 1.7835973749417307 0
          0 0 0 0 0 0
          0 0 0 0 0 0
          0 0 0 0 0 0
          0 0 0 0 0 0
          0 0 0 0 0 0
          0.02308778336229317 3.630162871183565 0 0 0 0
          0 0 0 0 0 0
          0 0 0 0 0 0
          0 0 0 0 0 0
          -0.005703413412644193 -1.8934687960286134 0 0 0 0
          -0.029372633401809525 3.770634082842756 0 0 0 0
          0 0 0 0 0 0
          0 0 0 -0.11037067532699568 4.113888575260962 0
          0 0 0 0 0 0
          0 0 0 0 0 0
          0 0 0 -0.026341485689452004 4.327979959945321 0
          0.98630112631183 -1.0050697718349222 0 2.0562688464869585 -0.009852121592754096 0
          2.3483235664562296 -0.031352711072073075 0 -0.012651241033527839 4.396230568054922 0
          2.8365092895206407 -0.04182823433565137 0 3.493255722602904 -0.05231787936827534 0
          4.026958408243687 -0.03698687162672967 0 2.435576111931531 1.8130724115042336 0
          0 0 0 -0.002932404802690904 0.0005510178962956627 0
          0 0 0 0 0 0
          0 0 0 0 0 0
          0 0 0 0 0 0
          0 0 0 -3.085962721059127 -0.2772808501584221 0
          <InformationKey name="L2_NORM_RANGE" location="vtkDataArray" length="2">
            <Value index="0">
              0
            </Value>
            <Value index="1">
              5.4582829044
            </Value>
          </InformationKey>
        </DataArray>
        <DataArray type="Float64" Name="Sigma" NumberOfComponents="6" format="ascii" RangeMin="0.006121570774441061" RangeMax="0.6776455746553509">
          -0.020375504104469547 0.021442852280949776 0 -0.01889249535824884 0 0
          -0.02500105294624457 0.026021255272900626 0 0.004988639895779396 0 0
          -0.053860427107148424 0.05112112952454646 0 -0.016791957156856704 0 0
          -0.02663272871012459 0.02294584152239905 0 0.04016504297583343 0 0
          -0.31558037531586974 0.31542608482924755 0 0.10826292157598322 0 0
          -0.04467776383081228 0.04732256090774296 0 -0.020246977814244067 0 0
          0.02191823338973163 -0.02132131646850343 0 -0.07206140172652031 0 0
          -0.10432852694155248 0.10837197347368885 0 -0.21749356642947848 0 0
          -0.09674157538270875 0.085281320617828 0 -0.2495775684044476 0 0
          -0.013701281047974212 0.014764038920942886 0 0.0021250909303885566 0 0
          0.008361614964272374 -0.011409570018836523 0 -0.29008772512783093 0 0
          -0.042480716529032916 0.04097179066875968 0 -0.03272648286926446 0 0
          -0.0011316003001379804 0.001443643761893848 0 -0.12324496994253442 0 0
          0.3113092680330257 -0.3076311067508597 0 -0.07388919670321059 0 0
          0.06903426340069478 -0.0672664874287445 0 0.30140450189107926 0 0
          0.05773535821714121 -0.053327612486697595 0 -0.0675062679346608 0 0
          0.03117854494787531 -0.03279657017478005 0 0.5164420072671462 0 0
          0.0017750702867725607 -0.0010210980985275106 0 -0.06010719164834941 0 0
          -0.05470904710906398 0.0805268751531924 0 0.5054314106930891 0 0
          0.04914170700407129 -0.05421821472778006 0 -0.11580612721157454 0 0
          0.07729887340687663 -0.09312643762726375 0 0.23124327847420617 0 0
          0.17677525314256215 -0.1842965193230599 0 -0.09189183200238812 0 0
          0.01639978588009029 -0.01828471631875912 0 -0.01057160477164292 0 0
          0.08051563731299141 -0.06855976231797123 0 0.3943533174738689 0 0
          0.05624501843383867 -0.06969410731010883 0 0.2071230180707001 0 0
          0.04192154268401088 -0.03676632083762224 0 -0.10790795933234969 0 0
          0.24361238392134954 -0.2309863557440732 0 -0.2117495902512495 0 0
          -0.35331438835440465 0.3313976517244317 0 -0.47386502747434955 0 0
          -0.2539754946948915 0.26831404426151706 0 -0.23412763999888037 0 0
          0.07972830109997382 -0.08538845930047469 0 -0.038613599100246296 0 0
          0.02599198865125585 -0.029758033820148744 0 0.3769349121236088 0 0
          0.02549349294294855 -0.02340423762187486 0 -0.00030657423760303967 0 0
          -0.1925289757969565 0.19298145778891207 0 0.0010709971161576015 0 0
          0.0700866202883976 -0.06658240409479477 0 0.14879630720654924 0 0
          0.1775996156446239 -0.17057381673697883 0 0.04719655388288205 0 0
          -0.14897390483815975 0.1625525289045632 0 0.2626233119378638 0 0
          0.031452972898447715 -0.03100973758720523 0 -0.06833209602642068 0 0
          0.08945451138483615 -0.0946232647572804 0 -0.011293804866951022 0 0
          0.09664711218578173 -0.09730325656907411 0 -0.07584111936688617 0 0
          0.08200031985688783 -0.07907535433085938 0 -0.07482009900505195 0 0
          -0.041278755903096584 0.042526653798636085 0 -0.07292271991690145 0 0
          -0.1339169802383054 0.12787100649785832 0 -0.030494947162718715 0 0
          -0.07697945724678976 0.07891460493829663 0 -0.09500449126749687 0 0
          -0.1219319463469434 0.13001013002060982 0 -0.06657540755838552 0 0
          -0.04159890391946401 0.02976005404091248 0 0.09414638056005659 0 0
          0.13514122570485304 -0.13490573683026394 0 0.11812320995716591 0 0
          -0.05023942539429398 0.04436371860320901 0 -0.11170589141410914 0 0
          0.1672030738626285 -0.16458625872471933 0 0.020690944568815966 0 0
          0.08023604917897881 -0.0808830820870743 0 -0.0051296040047529015 0 0
          -0.049605776564994444 0.04789372000164749 0 -0.036741814507583036 0 0
          0.03940608295893128 -0.04147389673284454 0 -0.002138757179221268 0 0
          -0.08821386653520952 0.08597044279906063 0 -0.003960992113697735 0 0
          0.06877346533820783 -0.059530323453101414 0 -0.07501411857921292 0 0
          -0.17336758673696678 0.1732197286187271 0 0.08284197339849807 0 0
          0.01171729332130141 -0.011209403444610161 0 -0.01952768059532648 0 0
          -0.061796773735989206 0.061652185574261345 0 -0.009700813209808194 0 0
          -0.06280501909860328 0.055479102923162174 0 -0.026969743526734077 0 0
          -0.03600840721345122 0.03630556080896311 0 -0.017629595883307696 0 0
          -0.029225360958775357 0.03568481336222446 0 0.06607301430401794 0 0
          -0.041917918548397486 0.04618844864806189 0 -0.009544045388706065 0 0
          0.062010112937790025 -0.06042135357692586 0 0.026342108459587003 0 0
          0.051922075899417906 -0.051271868365882614 0 0.10722139253538016 0 0
          0.035953867462200736 -0.03731664673185006 0 -0.009975868764062939 0 0
          -0.02338782135776988 0.023565735813964227 0 0.050618216663610605 0 0
          0.08823690846758526 -0.09573864392332601 0 0.005348165363515496 0 0
          -0.000722374655214685 -0.0009000353417584294 0 -0.029714891103139806 0 0
          -0.11788938003648355 0.11825423838117918 0 0.008030451939009274 0 0
          0.009538563952574564 -0.008876056633172712 0 0.025680857351120356 0 0
          -0.07197094718856772 0.07287948584220028 0 -0.07454067705331172 0 0
          0.051328490455306505 -0.05161164957584308 0 0.1655263353172528 0 0
          0.025385349665475124 -0.02662366407603836 0 0.020673501050809125 0 0
          0.047793415970338635 -0.04872966811509844 0 0.03837350781212674 0 0
          0.031837648925095934 -0.03248902345209979 0 0.074440935827614 0 0
          -0.02325756853631763 0.025982697973633496 0 0.07932380859005353 0 0
          -0.07253665939904466 0.0702581967191639 0 0.050920941864165264 0 0
          -0.20154985091841704 0.20774345422964421 0 -0.00576121558254742 0 0
          0.007543945379736683 -0.0067366725255154055 0 0.0057967335699157675 0 0
          0.0022961085358575418 -0.003164582361039545 0 0.004710300714206095 0 0
          -0.010107564960802692 0.011631155300934616 0 0.03654277453108554 0 0
          -0.06410046980762951 0.060228780636606465 0 0.0160556239455628 0 0
          -0.007888412542819209 0.009576464634195304 0 0.03920476302022247 0 0
          0.002660804198360028 -0.004834368707004092 0 0.059648406872435146 0 0
          0.0012621223279142089 -0.0011687433046323869 0 0.035891225940210665 0 0
          -0.025457210884108423 0.032124398892016244 0 0.01673807216552009 0 0
          -0.022070411308545517 0.02195139625795839 0 0.010919548508544872 0 0
          -0.00867183794778274 0.007935724133974918 0 0.00009687914075910123 0 0
          0.13809167990153726 -0.14575214978017031 0 -0.161702929832117 0 0
          0.007837752457864819 -0.0032136001896407723 0 -0.3663567192712438 0 0
          -0.29228846665227165 0.29614905287193155 0 -0.011227837353194048 0 0
          -0.10080234288635265 0.09932962299457092 0 0.06526648061660793 0 0
          0.07056674135648353 -0.06990540238271908 0 -0.0028102515561416186 0 0
          -0.050851016863421694 0.050700528103875556 0 0.035432096772516526 0 0
          -0.10067003721028983 0.08231445066782216 0 -0.12770119577505765 0 0
          -0.39779185773307657 0.41341309526903347 0 0.3546455269723642 0 0
          <InformationKey name="L2_NORM_RANGE" location="vtkDataArray" length="2">
            <Value index="0">
              0.0061215707744
            </Value>
            <Value index="1">
              0.67764557466
            </Value>
          </InformationKey>
        </DataArray>
        <DataArray type="Float64" Name="ALEdispl" NumberOfComponents="3" format="ascii" RangeMin="0" RangeMax="0">
          0 0 0 0 0 0
          0 0 0 0 0 0
          0 0 0 0 0 0
          0 0 0 0 0 0
          0 0 0 0 0 0
          0 0 0 0 0 0
          0 0 0 0 0 0
          0 0 0 0 0 0
          0 0 0 0 0 0
          0 0 0 0 0 0
          0 0 0 0 0 0
          0 0 0 0 0 0
          0 0 0 0 0 0
          0 0 0 0 0 0
          0 0 0 0 0 0
          0 0 0 0 0 0
          0 0 0 0 0 0
          0 0 0 0 0 0
          0 0 0 0 0 0
          0 0 0 0 0 0
          0 0 0 0 0 0
          0 0 0 0 0 0
          0 0 0 0 0 0
          0 0 0 0 0 0
          0 0 0 0 0 0
          0 0 0 0 0 0
          0 0 0 0 0 0
          0 0 0 0 0 0
          0 0 0 0 0 0
          0 0 0 0 0 0
          0 0 0 0 0 0
          0 0 0 0 0 0
          0 0 0 0 0 0
          0 0 0 0 0 0
          0 0 0 0 0 0
          0 0 0 0 0 0
          0 0 0 0 0 0
          0 0 0 0 0 0
          0 0 0 0 0 0
          0 0 0 0 0 0
          0 0 0 0 0 0
          0 0 0 0 0 0
          0 0 0 0 0 0
          0 0 0 0 0 0
          0 0 0 0 0 0
          0 0 0 0 0 0
          0 0 0 0 0 0
          <InformationKey name="L2_NORM_RANGE" location="vtkDataArray" length="2">
            <Value index="0">
              0
            </Value>
            <Value index="1">
              0
            </Value>
          </InformationKey>
        </DataArray>
        <DataArray type="Float64" Name="ALEveloc" NumberOfComponents="3" format="ascii" RangeMin="0" RangeMax="0">
          0 0 0 0 0 0
          0 0 0 0 0 0
          0 0 0 0 0 0
          0 0 0 0 0 0
          0 0 0 0 0 0
          0 0 0 0 0 0
          0 0 0 0 0 0
          0 0 0 0 0 0
          0 0 0 0 0 0
          0 0 0 0 0 0
          0 0 0 0 0 0
          0 0 0 0 0 0
          0 0 0 0 0 0
          0 0 0 0 0 0
          0 0 0 0 0 0
          0 0 0 0 0 0
          0 0 0 0 0 0
          0 0 0 0 0 0
          0 0 0 0 0 0
          0 0 0 0 0 0
          0 0 0 0 0 0
          0 0 0 0 0 0
          0 0 0 0 0 0
          0 0 0 0 0 0
          0 0 0 0 0 0
          0 0 0 0 0 0
          0 0 0 0 0 0
          0 0 0 0 0 0
          0 0 0 0 0 0
          0 0 0 0 0 0
          0 0 0 0 0 0
          0 0 0 0 0 0
          0 0 0 0 0 0
          0 0 0 0 0 0
          0 0 0 0 0 0
          0 0 0 0 0 0
          0 0 0 0 0 0
          0 0 0 0 0 0
          0 0 0 0 0 0
          0 0 0 0 0 0
          0 0 0 0 0 0
          0 0 0 0 0 0
          0 0 0 0 0 0
          0 0 0 0 0 0
          0 0 0 0 0 0
          0 0 0 0 0 0
          0 0 0 0 0 0
          <InformationKey name="L2_NORM_RANGE" location="vtkDataArray" length="2">
            <Value index="0">
              0
            </Value>
            <Value index="1">
              0
            </Value>
          </InformationKey>
        </DataArray>
      </PointData>
      <CellData>
        <DataArray type="UInt8" Name="vtkGhostType" format="ascii" RangeMin="0" RangeMax="1">
          0 0 0 0 0 0
          0 0 1 0 0 1
          0 1 0 0 1 1
          1 0 0 0 0 0
          1 1 0 1 1 0
          1 1 0 1 0 0
          0 0 0 0 0 0
          0 0 0 0 0 0
          0 0 0 0 0 0
          0 0 0 0 0 0
          0 0 0 0 0 0
          0 0 0 0 0 0
          0 0 0 0 0 0
          0 0 0 0 0 0
          0 1 0 0 0 0
          0 0 0 1 0 0
          0 0 0 0 0 1
          0 0 0 0 0 0
          0 0 0 0 0 0
          0 0 0 0 0 0
          0 0 0 0 0 0
          0 0 0 0 0 0
          0 1 0 0 0 0
          0 0 0 0 0 0
          0 0 0 0 0 0
        </DataArray>
        <DataArray type="Float64" Name="PStrain" NumberOfComponents="6" format="ascii" RangeMin="0.1732050807568877" RangeMax="0.1732050807568877">
          0.09999999999999999 0.09999999999999999 0 0.09999999999999999 0 0
          0.09999999999999999 0.09999999999999999 0 0.09999999999999999 0 0
          0.09999999999999999 0.09999999999999999 0 0.09999999999999999 0 0
          0.09999999999999999 0.09999999999999999 0 0.09999999999999999 0 0
          0.09999999999999999 0.09999999999999999 0 0.09999999999999999 0 0
          0.09999999999999999 0.09999999999999999 0 0.09999999999999999 0 0
          0.09999999999999999 0.09999999999999999 0 0.09999999999999999 0 0
          0.09999999999999999 0.09999999999999999 0 0.09999999999999999 0 0
          0.09999999999999999 0.09999999999999999 0 0.09999999999999999 0 0
          0.09999999999999999 0.09999999999999999 0 0.09999999999999999 0 0
          0.09999999999999999 0.09999999999999999 0 0.09999999999999999 0 0
          0.09999999999999999 0.09999999999999999 0 0.09999999999999999 0 0
          0.09999999999999999 0.09999999999999999 0 0.09999999999999999 0 0
          0.09999999999999999 0.09999999999999999 0 0.09999999999999999 0 0
          0.09999999999999999 0.09999999999999999 0 0.09999999999999999 0 0
          0.09999999999999999 0.09999999999999999 0 0.09999999999999999 0 0
          0.09999999999999999 0.09999999999999999 0 0.09999999999999999 0 0
          0.09999999999999999 0.09999999999999999 0 0.09999999999999999 0 0
          0.09999999999999999 0.09999999999999999 0 0.09999999999999999 0 0
          0.09999999999999999 0.09999999999999999 0 0.09999999999999999 0 0
          0.09999999999999999 0.09999999999999999 0 0.09999999999999999 0 0
          0.09999999999999999 0.09999999999999999 0 0.09999999999999999 0 0
          0.09999999999999999 0.09999999999999999 0 0.09999999999999999 0 0
          0.09999999999999999 0.09999999999999999 0 0.09999999999999999 0 0
          0.09999999999999999 0.09999999999999999 0 0.09999999999999999 0 0
          0.09999999999999999 0.09999999999999999 0 0.09999999999999999 0 0
          0.09999999999999999 0.09999999999999999 0 0.09999999999999999 0 0
          0.09999999999999999 0.09999999999999999 0 0.09999999999999999 0 0
          0.09999999999999999 0.09999999999999999 0 0.09999999999999999 0 0
          0.09999999999999999 0.09999999999999999 0 0.09999999999999999 0 0
          0.09999999999999999 0.09999999999999999 0 0.09999999999999999 0 0
          0.09999999999999999 0.09999999999999999 0 0.09999999999999999 0 0
          0.09999999999999999 0.09999999999999999 0 0.09999999999999999 0 0
          0.09999999999999999 0.09999999999999999 0 0.09999999999999999 0 0
          0.09999999999999999 0.09999999999999999 0 0.09999999999999999 0 0
          0.09999999999999999 0.09999999999999999 0 0.09999999999999999 0 0
          0.09999999999999999 0.09999999999999999 0 0.09999999999999999 0 0
          0.09999999999999999 0.09999999999999999 0 0.09999999999999999 0 0
          0.09999999999999999 0.09999999999999999 0 0.09999999999999999 0 0
          0.09999999999999999 0.09999999999999999 0 0.09999999999999999 0 0
          0.09999999999999999 0.09999999999999999 0 0.09999999999999999 0 0
          0.09999999999999999 0.09999999999999999 0 0.09999999999999999 0 0
          0.09999999999999999 0.09999999999999999 0 0.09999999999999999 0 0
          0.09999999999999999 0.09999999999999999 0 0.09999999999999999 0 0
          0.09999999999999999 0.09999999999999999 0 0.09999999999999999 0 0
          0.09999999999999999 0.09999999999999999 0 0.09999999999999999 0 0
          0.09999999999999999 0.09999999999999999 0 0.09999999999999999 0 0
          0.09999999999999999 0.09999999999999999 0 0.09999999999999999 0 0
          0.09999999999999999 0.09999999999999999 0 0.09999999999999999 0 0
          0.09999999999999999 0.09999999999999999 0 0.09999999999999999 0 0
          0.09999999999999999 0.09999999999999999 0 0.09999999999999999 0 0
          0.09999999999999999 0.09999999999999999 0 0.09999999999999999 0 0
          0.09999999999999999 0.09999999999999999 0 0.09999999999999999 0 0
          0.09999999999999999 0.09999999999999999 0 0.09999999999999999 0 0
          0.09999999999999999 0.09999999999999999 0 0.09999999999999999 0 0
          0.09999999999999999 0.09999999999999999 0 0.09999999999999999 0 0
          0.09999999999999999 0.09999999999999999 0 0.09999999999999999 0 0
          0.09999999999999999 0.09999999999999999 0 0.09999999999999999 0 0
          0.09999999999999999 0.09999999999999999 0 0.09999999999999999 0 0
          0.09999999999999999 0.09999999999999999 0 0.09999999999999999 0 0
          0.09999999999999999 0.09999999999999999 0 0.09999999999999999 0 0
          0.09999999999999999 0.09999999999999999 0 0.09999999999999999 0 0
          0.09999999999999999 0.09999999999999999 0 0.09999999999999999 0 0
          0.09999999999999999 0.09999999999999999 0 0.09999999999999999 0 0
          0.09999999999999999 0.09999999999999999 0 0.09999999999999999 0 0
          0.09999999999999999 0.09999999999999999 0 0.09999999999999999 0 0
          0.09999999999999999 0.09999999999999999 0 0.09999999999999999 0 0
          0.09999999999999999 0.09999999999999999 0 0.09999999999999999 0 0
          0.09999999999999999 0.09999999999999999 0 0.09999999999999999 0 0
          0.09999999999999999 0.09999999999999999 0 0.09999999999999999 0 0
          0.09999999999999999 0.09999999999999999 0 0.09999999999999999 0 0
          0.09999999999999999 0.09999999999999999 0 0.09999999999999999 0 0
          0.09999999999999999 0.09999999999999999 0 0.09999999999999999 0 0
          0.09999999999999999 0.09999999999999999 0 0.09999999999999999 0 0
          0.09999999999999999 0.09999999999999999 0 0.09999999999999999 0 0
          0.09999999999999999 0.09999999999999999 0 0.09999999999999999 0 0
          0.09999999999999999 0.09999999999999999 0 0.09999999999999999 0 0
          0.09999999999999999 0.09999999999999999 0 0.09999999999999999 0 0
          0.09999999999999999 0.09999999999999999 0 0.09999999999999999 0 0
          0.09999999999999999 0.09999999999999999 0 0.09999999999999999 0 0
          0.09999999999999999 0.09999999999999999 0 0.09999999999999999 0 0
          0.09999999999999999 0.09999999999999999 0 0.09999999999999999 0 0
          0.09999999999999999 0.09999999999999999 0 0.09999999999999999 0 0
          0.09999999999999999 0.09999999999999999 0 0.09999999999999999 0 0
          0.09999999999999999 0.09999999999999999 0 0.09999999999999999 0 0
          0.09999999999999999 0.09999999999999999 0 0.09999999999999999 0 0
          0.09999999999999999 0.09999999999999999 0 0.09999999999999999 0 0
          0.09999999999999999 0.09999999999999999 0 0.09999999999999999 0 0
          0.09999999999999999 0.09999999999999999 0 0.09999999999999999 0 0
          0.09999999999999999 0.09999999999999999 0 0.09999999999999999 0 0
          0.09999999999999999 0.09999999999999999 0 0.09999999999999999 0 0
          0.09999999999999999 0.09999999999999999 0 0.09999999999999999 0 0
          0.09999999999999999 0.09999999999999999 0 0.09999999999999999 0 0
          0.09999999999999999 0.09999999999999999 0 0.09999999999999999 0 0
          0.09999999999999999 0.09999999999999999 0 0.09999999999999999 0 0
          0.09999999999999999 0.09999999999999999 0 0.09999999999999999 0 0
          0.09999999999999999 0.09999999999999999 0 0.09999999999999999 0 0
          0.09999999999999999 0.09999999999999999 0 0.09999999999999999 0 0
          0.09999999999999999 0.09999999999999999 0 0.09999999999999999 0 0
          0.09999999999999999 0.09999999999999999 0 0.09999999999999999 0 0
          0.09999999999999999 0.09999999999999999 0 0.09999999999999999 0 0
          0.09999999999999999 0.09999999999999999 0 0.09999999999999999 0 0
          0.09999999999999999 0.09999999999999999 0 0.09999999999999999 0 0
          0.09999999999999999 0.09999999999999999 0 0.09999999999999999 0 0
          0.09999999999999999 0.09999999999999999 0 0.09999999999999999 0 0
          0.09999999999999999 0.09999999999999999 0 0.09999999999999999 0 0
          0.09999999999999999 0.09999999999999999 0 0.09999999999999999 0 0
          0.09999999999999999 0.09999999999999999 0 0.09999999999999999 0 0
          0.09999999999999999 0.09999999999999999 0 0.09999999999999999 0 0
          0.09999999999999999 0.09999999999999999 0 0.09999999999999999 0 0
          0.09999999999999999 0.09999999999999999 0 0.09999999999999999 0 0
          0.09999999999999999 0.09999999999999999 0 0.09999999999999999 0 0
          0.09999999999999999 0.09999999999999999 0 0.09999999999999999 0 0
          0.09999999999999999 0.09999999999999999 0 0.09999999999999999 0 0
          0.09999999999999999 0.09999999999999999 0 0.09999999999999999 0 0
          0.09999999999999999 0.09999999999999999 0 0.09999999999999999 0 0
          0.09999999999999999 0.09999999999999999 0 0.09999999999999999 0 0
          0.09999999999999999 0.09999999999999999 0 0.09999999999999999 0 0
          0.09999999999999999 0.09999999999999999 0 0.09999999999999999 0 0
          0.09999999999999999 0.09999999999999999 0 0.09999999999999999 0 0
          0.09999999999999999 0.09999999999999999 0 0.09999999999999999 0 0
          0.09999999999999999 0.09999999999999999 0 0.09999999999999999 0 0
          0.09999999999999999 0.09999999999999999 0 0.09999999999999999 0 0
          0.09999999999999999 0.09999999999999999 0 0.09999999999999999 0 0
          0.09999999999999999 0.09999999999999999 0 0.09999999999999999 0 0
          0.09999999999999999 0.09999999999999999 0 0.09999999999999999 0 0
          0.09999999999999999 0.09999999999999999 0 0.09999999999999999 0 0
          0.09999999999999999 0.09999999999999999 0 0.09999999999999999 0 0
          0.09999999999999999 0.09999999999999999 0 0.09999999999999999 0 0