<?xml version="1.0"?>
<VTKFile type="UnstructuredGrid" version="0.1" byte_order="LittleEndian" header_type="UInt32" compressor="vtkZLibDataCompressor">
  <UnstructuredGrid>
    <Piece NumberOfPoints="94" NumberOfCells="150">
      <PointData>
        <DataArray type="Float64" Name="Velocity" NumberOfComponents="3" format="ascii" RangeMin="0" RangeMax="4.939719720129643">
          1.0775645026136234 0 0 1.3262218866512252 -0.10445287234447544 0
          1.5373574945081407 -0.33877955972285984 0 1.5650725587438403 0 0
          1.1789429104121685 -0.9011896598461475 0 1.2962346913746654 -0.35639361458875723 0
          2.3356148183364285 -0.1305151281671045 0 2.811778837099802 -1.1768826958396859 0
          2.221752035293748 -1.5951471787415241 0 1.6672939873666621 0 0
          2.3144149875364266 -1.2800678202045375 0 1.81635219132974 -0.1561416504487186 0
          1.7503583878976245 0.06359755864437294 0 2.267027477610562 0.5098524846738407 0
          4.407482941230825 0.19954399986743993 0 3.3897794678515334 1.214786539621079 0
          1.318964710746042 3.6716627620545292 0 1.9751412603135596 -0.38677022125218746 0
          0.9012175808135744 0.3877874492642372 0 2.3583881034787764 1.1882763174728153 0
          0 0 0 3.023243843421062 0.5320319185941211 0
          1.7316308561153508 0.1894007475487499 0 0 0 0
          3.4092138976620587 1.6643576890015785 0 1.9697354596378092 0.1530162574552935 0
          2.1015542473767543 -0.023893657201361107 0 0 0 0
          0 0 0 2.0369619303414668 0.34242012226771296 0
          2.2713999067678445 1.6677236278377354 0 1.7811455143153163 0 0
          0 0 0 0 0 0
          2.4403796911777853 1.231439383489177 0 -0.005092700453462051 2.3778570780194137 0
          1.7091082529671136 0.38366339265515664 0 0 0 0
          1.9651388167153445 0.48559955968690577 0 1.4352632843028905 0.5144308061853575 0
          0 0 0 1.098986596962071 1.3047026482884543 0
          0.28863046496101374 -0.6333424001562018 0 0 0 0
          1.1404947866192452 1.330185172236542 0 2.240436744468267 0.9838729869885545 0
          0.7495217635292338 0.4123853380590992 0 2.1470357592474567 0.6894762919600883 0
          1.5705477479464378 0.15878398181263118 0 -0.31888301239764794 -0.2121255306492124 0
          1.3495903589733904 1.4185462467563603 0 0.6607481804559318 1.296029575805737 0
          1.5083349628362959 0.8950191924075829 0 0.8114907536088627 1.613844787681579 0
          0.49290752237453916 0 0 0.758594721698499 0.9971995001602032 0
          0.9130813568392298 1.0499366779704242 0 -0.040365586489131064 0.016442472735707855 0
          0.7995557253113684 1.2896822957629248 0 -0.4872883392151892 0.1471030824000667 0
          1.2450522612178523 0.8572910413006767 0 1.632187056449092 1.44339897524226 0
          1.1417647099735737 0 0 1.381822000514134 1.3817153804226743 0
          0.4601506438976062 0 0 0.9954648471715927 0.6461573920754103 0
          0.5586747066430781 0.5671557314974057 0 1.051035314848595 0.24950753996904756 0
          0.1550491205831149 -0.023247050748522072 0 -0.782537837163299 0 0
          1.0335750244492226 0.24457518226457142 0 0.9736315264785182 0.5355870655620626 0
          1.1198907301208543 0.9923733638732358 0 1.0466509380122493 1.0168997628215017 0
          0.6726289644526867 0.8887180256414048 0 0.4369954091404898 0 0
          0.9999999999999998 0 0 1 0 0
          1 0 0 0.7803189933035752 0 0
          1 0 0 1 0 0
          1 0 0 1 0 0
          1.24858539249722 -0.19397405434969123 0 1.0515592787778532 0 0
          1.469316431643632 -1.3481015853703495 0 3.5679865023855033 -3.416182552533243 0
          2.5219690245435293 -1.3252429609210434 0 1.31837381092544 -0.7576297788656253 0
          1.6793727936270584 -0.6501471982135133 0 1.2356687577012555 -0.5829178569046384 0
          -1.6749040082783808 0.9344748843587538 0 0 0 0
          <InformationKey name="L2_NORM_RANGE" location="vtkDataArray" length="2">
            <Value index="0">
              0
            </Value>
            <Value index="1">
              4.9397197201
            </Value>
          </InformationKey>
        </DataArray>
        <DataArray type="Float64" Name="Pressure" format="ascii" RangeMin="-20.69046734624485" RangeMax="4.373531143102215">
          0.20894594575796965 -0.187591689406617 -0.016042362123765863 -0.5435817230717422 -0.5239845004438183 0.37504353069102125
          -1.0991279923122963 -4.273917428280038 -0.3538326306538284 0.19851870614043393 -1.1826367233393422 -0.8837418035462203
          2.011467308888249 -9.619576674809883 -12.761102572810685 -2.5973633105737726 -16.242196618095196 -0.5325540146896364
          -6.691389273833758 -3.1373443004327974 -9.72846907825917 -3.4376653437285225 0.19342981017734595 -5.3451029349811545
          -9.512261475126419 -0.7230136555462845 -1.3505373811308186 -4.081598418393235 2.8077102717623483 0.3200774339295489
          -3.921081447993802 0.3362684519922119 2.8016279330476985 2.504037374980003 -3.06006977746706 0.24112152903320386
          0.4531145537308602 2.6019410590104934 0.7986930075954649 1.8792347886094465 3.1481456196093416 1.2045194021252335
          2.2332128670556886 3.6082667301024682 1.150451822603058 -0.5323040624862873 2.322057606630693 0.18211237020077264
          1.1124629054407749 2.4107631293018974 0.006958658879291146 1.9686238635876787 1.8867090349224651 1.6251981634634252
          3.4659564829752094 2.8787254721416318 2.4307139003075537 3.294870620409789 2.5280175852778877 3.1614682012668323
          1.532194507791445 0.9840282370856602 1.6322854782661342 1.605353038542844 3.2382832691967556 2.835282713076505
          3.6447923568378027 1.7149544525392244 3.701948332078159 3.7062332923954235 1.8349487171789607 2.5645235478080135
          2.9222130711671515 3.472859090517935 3.7506948652187324 4.362120791540652 1.780030609987182 1.8103409219355513
          2.175208001291258 4.373531143102215 2.633624934041977 3.2903825013664707 3.9410095421714266 4.071545137940992
          -0.1965840571954252 -0.11603041522545518 -20.69046734624485 -13.573194807075861 -4.346840983038609 -0.2667146938265952
          -1.2199786442383145 -0.272906449646284 -13.658513632826303 -1.7905368582250305
        </DataArray>
        <DataArray type="Float64" Name="BTraction" NumberOfComponents="3" format="ascii" RangeMin="0" RangeMax="6.127701696854673">
          -0.005527772195793901 -0.011225196336176295 0 0 0 0
          0 0 0 0.02255122718395256 0.31699682356172254 0
          0 0 0 0 0 0
          0 0 0 0 0 0
          0 0 0 0.01354899036522432 -0.0896437691912494 0
          0 0 0 0 0 0
          0 0 0 0 0 0
          0 0 0 0 0 0
          0 0 0 0 0 0
          0 0 0 0 0 0
          -5.111538355589487 -3.3794827599757262 0 0 0 0
          0 0 0 -5.2074728987854995 -0.5854136595762867 0
          0 0 0 0 0 0
          0 0 0 1.0686525841549763 -2.656142195345684 0
          -1.888001929371184 -0.3105559042999 0 0 0 0
          0 0 0 -0.005157354448079273 -0.5469546134090231 0
          -2.922933705200832 0.027097642693246195 0 -2.538959513367449 0.14686276172590956 0
          0 0 0 0 0 0
          0 0 0 -2.5847066296302064 0.02133560266660283 0
          0 0 0 0 0 0
          -3.157000132928983 -0.06557683513644136 0 0 0 0
          0 0 0 -1.7058442679061656 1.740267646767573 0
          0 0 0 0 0 0
          0 0 0 0 0 0
          0 0 0 0 0 0
          0 0 0 0 0 0
          0 0 0 0 0 0
          0.031167884786173418 3.457963811135412 0 0 0 0
          0 0 0 0 0 0
          0 0 0 0 0 0
          0 0 0 0 0 0
          -0.01311332786015219 -1.4778236414221806 0 0 0 0
          -0.035492074593190995 3.451974199440142 0 0 0 0
          0 0 0 0 0 0
          0 0 0 -0.1651821941421056 3.7711146849846453 0
          0 0 0 0 0 0
          0 0 0 0 0 0
          0 0 0 -0.02795368851195464 4.108707321556336 0
          0.8896188995626004 -0.8790283297930791 0 1.861293612610262 -0.008169923601359064 0
          2.1902951057549482 -0.02880201054650595 0 -0.011914070465127144 4.220562106983732 0
          2.650853707303501 -0.05386042650531759 0 3.2703214884377405 -0.08467799392958066 0
          3.853201683766091 -0.0609536603435702 0 2.318307213636644 1.729574414426047 0
          0 0 0 -0.004160981898013612 0.06959115496054748 0
          0 0 0 0 0 0
          0 0 0 0 0 0
          0 0 0 0 0 0
          0 0 0 -1.9061810040854033 -0.2289643372214648 0
          <InformationKey name="L2_NORM_RANGE" location="vtkDataArray" length="2">
            <Value index="0">
              0
            </Value>
            <Value index="1">
              6.1277016969
            </Value>
          </InformationKey>
        </DataArray>
        <DataArray type="Float64" Name="Sigma" NumberOfComponents="6" format="ascii" RangeMin="0.0032404668961109632" RangeMax="1.027219037353912">
          -0.01572486557310687 0.017577170816018388 0 -0.01635295312180934 0 0
          -0.021344551473863854 0.02143501531094169 0 0.001707264433997569 0 0
          -0.04445116323076236 0.04265605140770784 0 -0.013949558365309252 0 0
          -0.03057188411513067 0.026063481224942862 0 0.03444526874457067 0 0
          -0.3144671546734333 0.32290236692307894 0 0.05354225343137883 0 0
          -0.039920549737557 0.04448452113174049 0 -0.013807657227344948 0 0
          0.0025127308302133394 -0.005679833618564695 0 -0.0159408280771556 0 0
          0.08585140876697711 -0.09026168465046466 0 0.044779137171015594 0 0
          -0.26455000305417753 0.2691149649522111 0 -0.2240078741531547 0 0
          -0.012499163627135166 0.013185714237445346 0 0.0133773590447626 0 0
          -0.37937940044608126 0.36596859132133297 0 -0.4623004872777312 0 0
          -0.05519120542077199 0.053746191925916814 0 -0.08483144321627573 0 0
          -0.21923822157879244 0.22552972749739042 0 -0.18719975982214565 0 0
          0.65399354600173 -0.6401726693116931 0 -0.46653011259373445 0 0
          0.15117657680872745 -0.15185179042488883 0 0.03130530633661187 0 0
          0.25575723948281676 -0.23299148830703253 0 -0.34205022778038907 0 0
          0.048410561022720545 -0.05363364168169066 0 0.45398697212677797 0 0
          0.0735545056982872 -0.07157751456295738 0 -0.03408425789332304 0 0
          -0.2760378691604126 0.29946253987782545 0 0.32753028019242636 0 0
          0.09479071246936051 -0.1298555905115611 0 0.06253088713462741 0 0
          0.3848438364057801 -0.40187645371848013 0 0.5082732870779318 0 0
          0.12890896648506409 -0.14032409750385727 0 0.31539785275427773 0 0
          0.009454234015625425 -0.011717852710216676 0 0.004272515057976562 0 0
          -0.32596790692470934 0.32141543483423624 0 0.6977966941877178 0 0
          -0.2697128143958062 0.2937940210429345 0 0.7013952553667506 0 0
          0.15115850413362972 -0.14782806026729473 0 -0.2993146687259709 0 0
          0.23114271812926368 -0.20540064583865253 0 -0.5349147782963881 0 0
          -0.12660799044658572 0.06672872123496523 0 -0.5803063929694725 0 0
          -0.18656012430648417 0.18821052546412137 0 -0.3435135257468713 0 0
          0.018747575879388606 -0.028554229913526533 0 0.011728697853011658 0 0
          0.3858240728543035 -0.3979209935200362 0 0.35846281353448395 0 0
          0.012196751709838695 -0.010158500883864233 0 -0.005793290412852623 0 0
          -0.23602602385391222 0.23981613570005142 0 0.06622160942301195 0 0
          0.07421862923049788 -0.06984012520114181 0 0.20514812022085158 0 0
          0.13582707682470846 -0.1416923943816603 0 -0.002746772401513411 0 0
          -0.3992570582325664 0.43969055733913603 0 0.29684226921695095 0 0
          -0.03859421980249375 0.037640201219931904 0 -0.06736418652823435 0 0
          0.11609691269386839 -0.12195775955538202 0 -0.00448229078131779 0 0
          0.1471119729994838 -0.1301703364412034 0 -0.05783778728422716 0 0
          0.05628631389933796 -0.057978878877036504 0 0.07316563212490712 0 0
          -0.04047352191147311 0.04142184867078119 0 -0.07928778559171999 0 0
          -0.16860426937551048 0.1591237582682086 0 0.02923035574756443 0 0
          -0.045697547491669654 0.05158189806838411 0 -0.08093780391332626 0 0
          -0.15281379402468545 0.16195341667910287 0 -0.07511777454224103 0 0
          -0.015975185392841852 0.008569848863062333 0 0.12987560312963364 0 0
          0.23135823927507362 -0.22277014102442164 0 0.10593817169248167 0 0
          -0.014889744610123408 0.006229841128301262 0 -0.17227939746262572 0 0
          0.2142601123455399 -0.22225736536698845 0 0.027807500008901444 0 0
          0.08489331387791815 -0.08421530339133118 0 -0.006138373861765711 0 0
          -0.0683946121251516 0.06450718604842383 0 -0.05007984948344732 0 0
          0.0052544209617415676 -0.017907907166777183 0 -0.10741854093618794 0 0
          -0.016436094279233912 0.011150487532782211 0 -0.03686850907639022 0 0
          0.09496224149217738 -0.07500638792554465 0 -0.037730826999647256 0 0
          -0.16610862801950826 0.1649329327008646 0 0.04864028791908649 0 0
          0.022435828391851438 -0.020975061138932008 0 -0.02626227095013547 0 0
          -0.08952745951429852 0.08511868955589635 0 0.002267938783433635 0 0
          -0.03852702109185859 0.028905951980181102 0 -0.15306212645837974 0 0
          -0.03514675941335325 0.03501340337066753 0 -0.019160796034234557 0 0
          -0.053881301402969956 0.06521151370360329 0 0.07950939343556755 0 0
          -0.03724566347038724 0.04314494009969144 0 -0.009047580724335019 0 0
          0.07320239192448712 -0.07026370501071044 0 0.0006751932475262123 0 0
          0.044314387548499305 -0.04004134626515652 0 0.08584435276020538 0 0
          0.03638986939695433 -0.03910500371208915 0 -0.02025886826611807 0 0
          -0.03669646075021601 0.03873407048206866 0 0.04304304566537257 0 0
          0.10731749184707322 -0.11649260738755689 0 -0.007601996898968762 0 0
          -0.0018455885595394564 -0.0022209462931459477 0 -0.02105409539505781 0 0
          -0.12362796000464998 0.12481493505761673 0 0.03554754806443257 0 0
          0.014944895187784527 -0.01442776677506499 0 0.029403054301126382 0 0
          -0.07852919298699133 0.07983567474435835 0 -0.08719850638999839 0 0
          0.08564881364060167 -0.08503152844728695 0 0.25612621173872235 0 0
          0.02756031868870976 -0.02993463012643287 0 0.04485911393744751 0 0
          0.05213295498725363 -0.05548000361474309 0 0.0549265566671517 0 0
          0.023229584771171704 -0.024100089506914234 0 0.0600278380167316 0 0
          -0.023046641644610517 0.027476494296017662 0 0.0475592628729819 0 0
          -0.06667976772295714 0.06279378532316063 0 0.04680540205498117 0 0
          -0.21016478762091775 0.21745922404101523 0 -0.02672502692541717 0 0
          0.01098052800308879 -0.009332497296798685 0 0.007721784774684327 0 0
          0.00021576417620794804 -0.0010947813131679503 0 0.0030422894999316856 0 0
          -0.011065441016642648 0.013992305441149766 0 0.030672249067219853 0 0
          -0.09735579073540336 0.09279694908181228 0 0.019269618815317077 0 0
          0.000047877481637342845 0.0033388692220202728 0 0.049748029511918465 0 0
          0.009126528048390273 -0.012627362224063417 0 0.09958497557412122 0 0
          -0.008777707732132833 0.0090643057014442 0 0.06069940625317399 0 0
          -0.0037093841476417283 0.013058748763269516 0 0.01967081233073459 0 0
          -0.02049147974120484 0.019904195984320968 0 0.011425378411854903 0 0
          -0.007483233348918725 0.006927247393131345 0 -0.0026586941493476103 0 0
          -0.010787869898002712 0.003930925474393734 0 -0.20474005148299812 0 0
          -0.12889062221061795 0.11286357832842314 0 -0.22443501348165412 0 0
          -0.3528027061069182 0.35664257927564136 0 0.20731360386438336 0 0
          0.052139049389385836 -0.05479396109625145 0 -0.08226514563987183 0 0
          0.10048880359176358 -0.10847370678869672 0 0.02793321982134042 0 0
          -0.038450988282429835 0.03964026272370389 0 0.02813953177765134 0 0
          -0.1401622712055658 0.13080216011193238 0 -0.3858936503316282 0 0
          -0.3323951051461268 0.35365970553570947 0 0.2261625938944194 0 0
          <InformationKey name="L2_NORM_RANGE" location="vtkDataArray" length="2">
            <Value index="0">
              0.0032404668961
            </Value>
            <Value index="1">
              1.0272190374
            </Value>
          </InformationKey>
        </DataArray>
        <DataArray type="Float64" Name="ALEdispl" NumberOfComponents="3" format="ascii" RangeMin="0" RangeMax="0">
          0 0 0 0 0 0
          0 0 0 0 0 0
          0 0 0 0 0 0
          0 0 0 0 0 0
          0 0 0 0 0 0
          0 0 0 0 0 0
          0 0 0 0 0 0
          0 0 0 0 0 0
          0 0 0 0 0 0
          0 0 0 0 0 0
          0 0 0 0 0 0
          0 0 0 0 0 0
          0 0 0 0 0 0
          0 0 0 0 0 0
          0 0 0 0 0 0
          0 0 0 0 0 0
          0 0 0 0 0 0
          0 0 0 0 0 0
          0 0 0 0 0 0
          0 0 0 0 0 0
          0 0 0 0 0 0
          0 0 0 0 0 0
          0 0 0 0 0 0
          0 0 0 0 0 0
          0 0 0 0 0 0
          0 0 0 0 0 0
          0 0 0 0 0 0
          0 0 0 0 0 0
          0 0 0 0 0 0
          0 0 0 0 0 0
          0 0 0 0 0 0
          0 0 0 0 0 0
          0 0 0 0 0 0
          0 0 0 0 0 0
          0 0 0 0 0 0
          0 0 0 0 0 0
          0 0 0 0 0 0
          0 0 0 0 0 0
          0 0 0 0 0 0
          0 0 0 0 0 0
          0 0 0 0 0 0
          0 0 0 0 0 0
          0 0 0 0 0 0
          0 0 0 0 0 0
          0 0 0 0 0 0
          0 0 0 0 0 0
          0 0 0 0 0 0
          <InformationKey name="L2_NORM_RANGE" location="vtkDataArray" length="2">
            <Value index="0">
              0
            </Value>
            <Value index="1">
              0
            </Value>
          </InformationKey>
        </DataArray>
        <DataArray type="Float64" Name="ALEveloc" NumberOfComponents="3" format="ascii" RangeMin="0" RangeMax="0">
          0 0 0 0 0 0
          0 0 0 0 0 0
          0 0 0 0 0 0
          0 0 0 0 0 0
          0 0 0 0 0 0
          0 0 0 0 0 0
          0 0 0 0 0 0
          0 0 0 0 0 0
          0 0 0 0 0 0
          0 0 0 0 0 0
          0 0 0 0 0 0
          0 0 0 0 0 0
          0 0 0 0 0 0
          0 0 0 0 0 0
          0 0 0 0 0 0
          0 0 0 0 0 0
          0 0 0 0 0 0
          0 0 0 0 0 0
          0 0 0 0 0 0
          0 0 0 0 0 0
          0 0 0 0 0 0
          0 0 0 0 0 0
          0 0 0 0 0 0
          0 0 0 0 0 0
          0 0 0 0 0 0
          0 0 0 0 0 0
          0 0 0 0 0 0
          0 0 0 0 0 0
          0 0 0 0 0 0
          0 0 0 0 0 0
          0 0 0 0 0 0
          0 0 0 0 0 0
          0 0 0 0 0 0
          0 0 0 0 0 0
          0 0 0 0 0 0
          0 0 0 0 0 0
          0 0 0 0 0 0
          0 0 0 0 0 0
          0 0 0 0 0 0
          0 0 0 0 0 0
          0 0 0 0 0 0
          0 0 0 0 0 0
          0 0 0 0 0 0
          0 0 0 0 0 0
          0 0 0 0 0 0
          0 0 0 0 0 0
          0 0 0 0 0 0
          <InformationKey name="L2_NORM_RANGE" location="vtkDataArray" length="2">
            <Value index="0">
              0
            </Value>
            <Value index="1">
              0
            </Value>
          </InformationKey>
        </DataArray>
      </PointData>
      <CellData>
        <DataArray type="UInt8" Name="vtkGhostType" format="ascii" RangeMin="0" RangeMax="1">
          0 0 0 0 0 0
          0 0 1 0 0 1
          0 1 0 0 1 1
          1 0 0 0 0 0
          1 1 0 1 1 0
          1 1 0 1 0 0
          0 0 0 0 0 0
          0 0 0 0 0 0
          0 0 0 0 0 0
          0 0 0 0 0 0
          0 0 0 0 0 0
          0 0 0 0 0 0
          0 0 0 0 0 0
          0 0 0 0 0 0
          0 1 0 0 0 0
          0 0 0 1 0 0
          0 0 0 0 0 1
          0 0 0 0 0 0
          0 0 0 0 0 0
          0 0 0 0 0 0
          0 0 0 0 0 0
          0 0 0 0 0 0
          0 1 0 0 0 0
          0 0 0 0 0 0
          0 0 0 0 0 0
        </DataArray>
        <DataArray type="Float64" Name="PStrain" NumberOfComponents="6" format="ascii" RangeMin="0.1732050807568877" RangeMax="0.1732050807568877">
          0.09999999999999999 0.09999999999999999 0 0.09999999999999999 0 0
          0.09999999999999999 0.09999999999999999 0 0.09999999999999999 0 0
          0.09999999999999999 0.09999999999999999 0 0.09999999999999999 0 0
          0.09999999999999999 0.09999999999999999 0 0.09999999999999999 0 0
          0.09999999999999999 0.09999999999999999 0 0.09999999999999999 0 0
          0.09999999999999999 0.09999999999999999 0 0.09999999999999999 0 0
          0.09999999999999999 0.09999999999999999 0 0.09999999999999999 0 0
          0.09999999999999999 0.09999999999999999 0 0.09999999999999999 0 0
          0.09999999999999999 0.09999999999999999 0 0.09999999999999999 0 0
          0.09999999999999999 0.09999999999999999 0 0.09999999999999999 0 0
          0.09999999999999999 0.09999999999999999 0 0.09999999999999999 0 0
          0.09999999999999999 0.09999999999999999 0 0.09999999999999999 0 0
          0.09999999999999999 0.09999999999999999 0 0.09999999999999999 0 0
          0.09999999999999999 0.09999999999999999 0 0.09999999999999999 0 0
          0.09999999999999999 0.09999999999999999 0 0.09999999999999999 0 0
          0.09999999999999999 0.09999999999999999 0 0.09999999999999999 0 0
          0.09999999999999999 0.09999999999999999 0 0.09999999999999999 0 0
          0.09999999999999999 0.09999999999999999 0 0.09999999999999999 0 0
          0.09999999999999999 0.09999999999999999 0 0.09999999999999999 0 0
          0.09999999999999999 0.09999999999999999 0 0.09999999999999999 0 0
          0.09999999999999999 0.09999999999999999 0 0.09999999999999999 0 0
          0.09999999999999999 0.09999999999999999 0 0.09999999999999999 0 0
          0.09999999999999999 0.09999999999999999 0 0.09999999999999999 0 0
          0.09999999999999999 0.09999999999999999 0 0.09999999999999999 0 0
          0.09999999999999999 0.09999999999999999 0 0.09999999999999999 0 0
          0.09999999999999999 0.09999999999999999 0 0.09999999999999999 0 0
          0.09999999999999999 0.09999999999999999 0 0.09999999999999999 0 0
          0.09999999999999999 0.09999999999999999 0 0.09999999999999999 0 0
          0.09999999999999999 0.09999999999999999 0 0.09999999999999999 0 0
          0.09999999999999999 0.09999999999999999 0 0.09999999999999999 0 0
          0.09999999999999999 0.09999999999999999 0 0.09999999999999999 0 0
          0.09999999999999999 0.09999999999999999 0 0.09999999999999999 0 0
          0.09999999999999999 0.09999999999999999 0 0.09999999999999999 0 0
          0.09999999999999999 0.09999999999999999 0 0.09999999999999999 0 0
          0.09999999999999999 0.09999999999999999 0 0.09999999999999999 0 0
          0.09999999999999999 0.09999999999999999 0 0.09999999999999999 0 0
          0.09999999999999999 0.09999999999999999 0 0.09999999999999999 0 0
          0.09999999999999999 0.09999999999999999 0 0.09999999999999999 0 0
          0.09999999999999999 0.09999999999999999 0 0.09999999999999999 0 0
          0.09999999999999999 0.09999999999999999 0 0.09999999999999999 0 0
          0.09999999999999999 0.09999999999999999 0 0.09999999999999999 0 0
          0.09999999999999999 0.09999999999999999 0 0.09999999999999999 0 0
          0.09999999999999999 0.09999999999999999 0 0.09999999999999999 0 0
          0.09999999999999999 0.09999999999999999 0 0.09999999999999999 0 0
          0.09999999999999999 0.09999999999999999 0 0.09999999999999999 0 0
          0.09999999999999999 0.09999999999999999 0 0.09999999999999999 0 0
          0.09999999999999999 0.09999999999999999 0 0.09999999999999999 0 0
          0.09999999999999999 0.09999999999999999 0 0.09999999999999999 0 0
          0.09999999999999999 0.09999999999999999 0 0.09999999999999999 0 0
          0.09999999999999999 0.09999999999999999 0 0.09999999999999999 0 0
          0.09999999999999999 0.09999999999999999 0 0.09999999999999999 0 0
          0.09999999999999999 0.09999999999999999 0 0.09999999999999999 0 0
          0.09999999999999999 0.09999999999999999 0 0.09999999999999999 0 0
          0.09999999999999999 0.09999999999999999 0 0.09999999999999999 0 0
          0.09999999999999999 0.09999999999999999 0 0.09999999999999999 0 0
          0.09999999999999999 0.09999999999999999 0 0.09999999999999999 0 0
          0.09999999999999999 0.09999999999999999 0 0.09999999999999999 0 0
          0.09999999999999999 0.09999999999999999 0 0.09999999999999999 0 0
          0.09999999999999999 0.09999999999999999 0 0.09999999999999999 0 0
          0.09999999999999999 0.09999999999999999 0 0.09999999999999999 0 0
          0.09999999999999999 0.09999999999999999 0 0.09999999999999999 0 0
          0.09999999999999999 0.09999999999999999 0 0.09999999999999999 0 0
          0.09999999999999999 0.09999999999999999 0 0.09999999999999999 0 0
          0.09999999999999999 0.09999999999999999 0 0.09999999999999999 0 0
          0.09999999999999999 0.09999999999999999 0 0.09999999999999999 0 0
          0.09999999999999999 0.09999999999999999 0 0.09999999999999999 0 0
          0.09999999999999999 0.09999999999999999 0 0.09999999999999999 0 0
          0.09999999999999999 0.09999999999999999 0 0.09999999999999999 0 0
          0.09999999999999999 0.09999999999999999 0 0.09999999999999999 0 0
          0.09999999999999999 0.09999999999999999 0 0.09999999999999999 0 0
          0.09999999999999999 0.09999999999999999 0 0.09999999999999999 0 0
          0.09999999999999999 0.09999999999999999 0 0.09999999999999999 0 0
          0.09999999999999999 0.09999999999999999 0 0.09999999999999999 0 0
          0.09999999999999999 0.09999999999999999 0 0.09999999999999999 0 0
          0.09999999999999999 0.09999999999999999 0 0.09999999999999999 0 0
          0.09999999999999999 0.09999999999999999 0 0.09999999999999999 0 0
          0.09999999999999999 0.09999999999999999 0 0.09999999999999999 0 0
          0.09999999999999999 0.09999999999999999 0 0.09999999999999999 0 0
          0.09999999999999999 0.09999999999999999 0 0.09999999999999999 0 0
          0.09999999999999999 0.09999999999999999 0 0.09999999999999999 0 0
          0.09999999999999999 0.09999999999999999 0 0.09999999999999999 0 0
          0.09999999999999999 0.09999999999999999 0 0.09999999999999999 0 0
          0.09999999999999999 0.09999999999999999 0 0.09999999999999999 0 0
          0.09999999999999999 0.09999999999999999 0 0.09999999999999999 0 0
          0.09999999999999999 0.09999999999999999 0 0.09999999999999999 0 0
          0.09999999999999999 0.09999999999999999 0 0.09999999999999999 0 0
          0.09999999999999999 0.09999999999999999 0 0.09999999999999999 0 0
          0.09999999999999999 0.09999999999999999 0 0.09999999999999999 0 0
          0.09999999999999999 0.09999999999999999 0 0.09999999999999999 0 0
          0.09999999999999999 0.09999999999999999 0 0.09999999999999999 0 0
          0.09999999999999999 0.09999999999999999 0 0.09999999999999999 0 0
          0.09999999999999999 0.09999999999999999 0 0.09999999999999999 0 0
          0.09999999999999999 0.09999999999999999 0 0.09999999999999999 0 0
          0.09999999999999999 0.09999999999999999 0 0.09999999999999999 0 0
          0.09999999999999999 0.09999999999999999 0 0.09999999999999999 0 0
          0.09999999999999999 0.09999999999999999 0 0.09999999999999999 0 0
          0.09999999999999999 0.09999999999999999 0 0.09999999999999999 0 0
          0.09999999999999999 0.09999999999999999 0 0.09999999999999999 0 0
          0.09999999999999999 0.09999999999999999 0 0.09999999999999999 0 0
          0.09999999999999999 0.09999999999999999 0 0.09999999999999999 0 0
          0.09999999999999999 0.09999999999999999 0 0.09999999999999999 0 0
          0.09999999999999999 0.09999999999999999 0 0.09999999999999999 0 0
          0.09999999999999999 0.09999999999999999 0 0.09999999999999999 0 0
          0.09999999999999999 0.09999999999999999 0 0.09999999999999999 0 0
          0.09999999999999999 0.09999999999999999 0 0.09999999999999999 0 0
          0.09999999999999999 0.09999999999999999 0 0.09999999999999999 0 0
          0.09999999999999999 0.09999999999999999 0 0.09999999999999999 0 0
          0.09999999999999999 0.09999999999999999 0 0.09999999999999999 0 0
          0.09999999999999999 0.09999999999999999 0 0.09999999999999999 0 0
          0.09999999999999999 0.09999999999999999 0 0.09999999999999999 0 0
          0.09999999999999999 0.09999999999999999 0 0.09999999999999999 0 0
          0.09999999999999999 0.09999999999999999 0 0.09999999999999999 0 0
          0.09999999999999999 0.09999999999999999 0 0.09999999999999999 0 0
          0.09999999999999999 0.09999999999999999 0 0.09999999999999999 0 0
          0.09999999999999999 0.09999999999999999 0 0.09999999999999999 0 0
          0.09999999999999999 0.09999999999999999 0 0.09999999999999999 0 0
          0.09999999999999999 0.09999999999999999 0 0.09999999999999999 0 0
          0.09999999999999999 0.09999999999999999 0 0.09999999999999999 0 0
          0.09999999999999999 0.09999999999999999 0 0.09999999999999999 0 0
          0.09999999999999999 0.09999999999999999 0 0.09999999999999999 0 0
          0.09999999999999999 0.09999999999999999 0 0.09999999999999999 0 0
          0.09999999999999999 0.09999999999999999 0 0.09999999999999999 0 0
          0.09999999999999999 0.09999999999999999 0 0.09999999999999999 0 0
          0.09999999999999999 0.09999999999999999 0 0.09999999999999999 0 0
          0.09999999999999999 0.09999999999999999 0 0.09999999999999999 0 0
          0.09999999999999999 0.09999999999999999 0 0.09999999999999999 0 0
          0.09999999999999999 0.09999999999999999 0 0.09999999999999999 0 0
          0.09999999999999999 0.09999999999999999 0 0.09999999999999999 0 0
          0.09999999999999999 0.09999999999999999 0 0.09999999999999999 0 0