<?xml version="1.0"?>
<VTKFile type="UnstructuredGrid" version="0.1" byte_order="LittleEndian" header_type="UInt32" compressor="vtkZLibDataCompressor">
  <UnstructuredGrid>
    <Piece NumberOfPoints="94" NumberOfCells="150">
      <PointData>
        <DataArray type="Float64" Name="Velocity" NumberOfComponents="3" format="ascii" RangeMin="0" RangeMax="6.402183106286169">
          1.0826187456224365 0 0 1.3019263353197317 -0.11164199127784485 0
          1.4908813646322059 -0.32561794423715035 0 1.504758011880532 0 0
          1.113779000034579 -0.8640341090702289 0 1.2975387404376626 -0.32422520141003025 0
          2.315814841998595 -0.12629749140597368 0 2.908839553652159 -0.902790148435534 0
          1.905802474331069 -1.2009874166327146 0 1.6393687583695093 0 0
          1.3812452331491862 -1.5046381904719182 0 1.7553376213941165 -0.1728194305388837 0
          1.1636493335152065 -0.3869895036876902 0 3.153375421579087 -0.9849093039345884 0
          5.671975201948487 -1.4254405224898623 0 4.159726618331833 1.0923684702493641 0
          2.511142776928184 4.56104753927664 0 2.075883829429588 -0.40070219730037665 0
          -0.23805858275548797 0.158463113052069 0 1.3206020266903327 0.6236166633333142 0
          0 0 0 3.3389263254923445 1.6729217929384956 0
          1.6877549998823 0.18532818931859335 0 0 0 0
          3.660104164283498 5.252769367963019 0 1.9887623146037448 -0.12949295806136482 0
          2.4105024892642684 -0.3054988418138768 0 0 0 0
          0 0 0 1.7454316717593925 0.35865650923699427 0
          2.7355637104628685 0.2502976284658798 0 1.768509216022561 0 0
          0 0 0 0 0 0
          1.973207672810699 1.5023173483940189 0 -0.8611452583747796 3.0402199890956925 0
          1.586751395205743 0.36718720895334694 0 0 0 0
          2.328503241773402 0.4526985796617334 0 1.7301644076258162 0.1289445498469634 0
          0 0 0 1.2905962235694486 1.364696338326207 0
          0.44133516947027096 -0.7556239672853589 0 0 0 0
          1.1377558056096084 1.1482276127867095 0 2.93048814265035 0.8923022282502195 0
          0.7556436556247568 0.08106657852745436 0 2.3214417415750908 0.3673485888043214 0
          1.6200303574939032 0.10621074824838928 0 -0.3145488033303032 -0.23979418509115596 0
          1.2480632050743998 1.3629937368611458 0 0.5896313147107066 1.025613563491523 0
          1.4316774749033243 1.1142072690267177 0 0.8354328919988737 1.7324554605746123 0
          0.6316155487599383 0 0 0.46774415041956063 0.7261633000097788 0
          0.7485051783116948 0.5840030335034961 0 -0.05316895936398946 -0.008401520330945579 0
          0.7367562475096096 1.5581427198891802 0 -0.5600428675713196 0.1347171955637457 0
          1.2627758406566219 0.8555675336083087 0 1.7223914914077947 1.5359641603267349 0
          1.1381503240382957 0 0 1.4545305435200695 1.4114461565263052 0
          0.4808276736463521 0 0 0.9350488012270518 0.5123231709264002 0
          0.5423861249834538 0.520738395567485 0 1.0625225079497767 0.2823595791756091 0
          0.1270291056492898 -0.04753850158906197 0 -1.0281672508183877 0 0
          1.0264030796989099 0.3029235273171903 0 0.9380280927598006 0.5801632665906505 0
          1.1150928318272533 1.0597179520432578 0 1.0758644493915386 1.0809059565295385 0
          0.6699339247767914 0.9410013906286283 0 0.469514046377717 0 0
          0.9999999999999997 0 0 1 0 0
          0.9999999999999999 0 0 0.680661930298731 0 0
          1 0 0 0.9999999999999999 0 0
          1 0 0 1 0 0
          1.2304680808338926 -0.17300399868786526 0 1.040096757522421 0 0
          0.0895371939085805 -3.014876743406768 0 3.74219333660276 -3.0845920661533404 0
          2.3803516074542883 -0.9245506263597191 0 1.3754331767048775 -0.859066931276729 0
          1.6602363901603643 -0.49692405781159427 0 1.2182024097689028 -0.571919734913449 0
          -1.9166646661959712 0.7311855834263159 0 0 0 0
          <InformationKey name="L2_NORM_RANGE" location="vtkDataArray" length="2">
            <Value index="0">
              0
            </Value>
            <Value index="1">
              6.4021831063
            </Value>
          </InformationKey>
        </DataArray>
        <DataArray type="Float64" Name="Pressure" format="ascii" RangeMin="-67.32580890995729" RangeMax="15.904729241824334">
          -1.8005224678157794 -3.343305336721448 -3.1311495031282464 -6.341116480124418 -1.1686759689753325 -3.807241571601857
          -9.108895415779457 -11.636832731166916 -2.3848665557231956 -8.508232752483774 -2.5309205560812 -9.161793094848086
          2.6879063587643834 -6.880516708525784 -28.669408587697898 -15.327283626421458 -37.79113890756544 -4.881409267239711
          -22.198469524670237 -1.5328718276578115 -67.32580890995729 -16.99369269490893 -13.298597352882899 -34.939645616425516
          -28.045143865391253 -10.53047823429131 -2.291287246352014 -42.6221514215994 -28.106318282839982 -6.996994318981765
          -11.321070535663711 -14.240300055875988 -27.146736859558484 -15.388288084986716 -8.070773152768146 3.425744803848465
          -12.368214984678788 -17.58247516282323 -4.21251406502915 9.599023399379615 -4.618511756670802 -9.805501032424958
          -17.931288320038245 11.036562777671712 -7.405530808796947 1.3756375269263157 -18.26352015160267 -12.90163688022769
          -12.846648335050416 -15.973092789522127 -13.11401030601153 -9.234483669460484 -5.2874721232475315 -16.293538924214207
          -1.8363312607381683 -9.60568918897611 -5.680808161742014 -13.052320750298511 -8.673223063725311 -11.210158027559961
          -10.727530954546936 -6.491837816308797 -13.066393709975419 -7.864831216760262 -15.923081465266774 -8.829576978606989
          -5.188760326228299 -8.684993716843255 -5.607365905639349 -7.223104901605004 -9.40153126817625 -10.179014088895793
          -9.913535299518417 -5.787177451835325 -6.2847263377679 -1.0257001412507005 -1.534466301866891 -6.064981770430807
          -5.984919408325743 -6.208279818835763 -7.314102532029055 -10.038679589832455 -8.68999079154615 -3.049061891708459
          -1.8111458917358432 -1.0877956802167308 -14.490939931488057 -23.305227878149033 -8.929196482475334 -1.1139968030932983
          -3.8943029420200874 -1.0873887607850539 -14.103396399646197 15.904729241824334
        </DataArray>
        <DataArray type="Float64" Name="BTraction" NumberOfComponents="3" format="ascii" RangeMin="0" RangeMax="41.7331150428596">
          -0.004489315898230522 2.4645402474591607 0 0 0 0
          0 0 0 0.01994223262294987 5.986373767625154 0
          0 0 0 0 0 0
          0 0 0 0 0 0
          0 0 0 0.016180189659628755 9.14320684664802 0
          0 0 0 0 0 0
          0 0 0 0 0 0
          0 0 0 0 0 0
          0 0 0 0 0 0
          0 0 0 0 0 0
          -34.01154923572729 -24.184032123826103 0 0 0 0
          0 0 0 -30.85057388595627 -0.9931230696632641 0
          0 0 0 0 0 0
          0 0 0 22.49773162638042 -20.69288357655474 0
          30.06871744362616 -0.492131441068151 0 0 0 0
          0 0 0 -0.006713048466244764 13.100109935954897 0
          25.04154781874921 0.020827408801369813 0 17.711581814829074 0.14876072642316124 0
          0 0 0 0 0 0
          0 0 0 15.276692140573692 0.025991275358687425 0
          0 0 0 0 0 0
          4.351283396017027 -0.08566705537712958 0 0 0 0
          0 0 0 -2.865279615612732 3.349721869970017 0
          0 0 0 0 0 0
          0 0 0 0 0 0
          0 0 0 0 0 0
          0 0 0 0 0 0
          0 0 0 0 0 0
          0.03745752181884148 -2.074352726517689 0 0 0 0
          0 0 0 0 0 0
          0 0 0 0 0 0
          0 0 0 0 0 0
          -0.018830707919787713 11.244004113439734 0 0 0 0
          -0.03919106944487418 -12.047081027461251 0 0 0 0
          0 0 0 0 0 0
          0 0 0 -0.2169856838505073 -7.710887815910223 0
          0 0 0 0 0 0
          0 0 0 0 0 0
          0 0 0 -0.032494191666910616 -3.075550795007617 0
          -1.5259822485054904 2.678341245268908 0 -5.245619715015102 -0.005729338419500226 0
          -6.20115350031098 -0.02087631689865733 0 -0.012357799289354347 -4.9399220303699 0
          -7.491514983777611 -0.06183091616137462 0 -9.350475132405206 -0.1152305822830435 0
          -8.01949688218687 -0.08136570102745126 0 -2.856131405666882 -1.7769647548738867 0
          0 0 0 -0.004522080979909666 1.0560588473654602 0
          0 0 0 0 0 0
          0 0 0 0 0 0
          0 0 0 0 0 0
          0 0 0 10.251804896627013 -0.16783590084952985 0
          <InformationKey name="L2_NORM_RANGE" location="vtkDataArray" length="2">
            <Value index="0">
              0
            </Value>
            <Value index="1">
              41.733115043
            </Value>
          </InformationKey>
        </DataArray>
        <DataArray type="Float64" Name="Sigma" NumberOfComponents="6" format="ascii" RangeMin="0.003235156017394003" RangeMax="1.6172788567567447">
          -0.012807140866956508 0.014733173900206347 0 -0.01284773944274598 0 0
          -0.02384485376646819 0.02337916657182227 0 0.00003767811812172223 0 0
          -0.03312087944205022 0.03265041560102479 0 -0.011981369569916269 0 0
          -0.03011128725933461 0.025707669909619455 0 0.028180585542156328 0 0
          -0.2381620796353675 0.25522391219762014 0 0.008673604222273062 0 0
          -0.03476651520040115 0.040359323351495245 0 -0.012913433826491716 0 0
          -0.02291059644885068 0.01275851990284767 0 0.009796268293441657 0 0
          0.15820231323178627 -0.17511624923287986 0 0.04669841531455934 0 0
          -0.3373047957679791 0.3610741570354663 0 -0.17668854236661283 0 0
          -0.013934122338057284 0.01423212872427489 0 0.01923716259731297 0 0
          -0.34414019794070516 0.34501567920506127 0 -0.3213418140826547 0 0
          -0.04772535528686306 0.04728711165395278 0 -0.09973943948726485 0 0
          -0.32646083229439093 0.3488943972251284 0 0.005059438458715287 0 0
          0.5736384763772225 -0.5486434250833125 0 -0.40677123030637485 0 0
          -0.0709643702223248 0.03926368999589033 0 0.2324215040346439 0 0
          0.0007353762011359788 0.012790860111352526 0 -0.7901278846337507 0 0
          0.2970901583175854 -0.2677029312427836 0 -0.11716609815154372 0 0
          0.08929101386714167 -0.08501991475655302 0 -0.061602697479731024 0 0
          0.44308794357246833 -0.4233255894445078 0 -0.06460290948997882 0 0
          0.46034127449760825 -0.4858284713340101 0 -0.3781362550615557 0 0
          -0.020150774560682927 -0.07505182836741209 0 0.8143463977167453 0 0
          0.12728646639336147 -0.15272197050506792 0 0.49159439924978454 0 0
          0.003607806487162383 -0.006162126509300572 0 0.008740550126922255 0 0
          -0.4755408637491355 0.4493107443706735 0 1.2994851109582943 0 0
          -0.9731751326495977 1.0722914675722441 0 0.7202166828646805 0 0
          0.341417371922758 -0.32818876855966506 0 -0.29138469504725023 0 0
          0.4423235890342442 -0.40986951252033493 0 -0.03036774320629604 0 0
          -0.21440736055097587 0.08668727990648896 0 -0.3693332926554817 0 0
          -0.1884640315221334 0.17628887799256668 0 -0.6863888720257889 0 0
          0.02401028556394318 -0.03509931522357121 0 -0.007806949229265947 0 0
          0.561571800946048 -0.5889743808065095 0 0.39216320640225555 0 0
          0.009072894706174207 -0.007323024208584761 0 -0.007283553720883596 0 0
          -0.21969033632593954 0.22863340913405397 0 0.14246543991972455 0 0
          0.0549447687859986 -0.0494746604373656 0 0.18426165275501621 0 0
          -0.146351537263475 0.11300285733164378 0 -0.30061351592463154 0 0
          -0.13672142081585192 0.2239133860952165 0 0.4220559121742957 0 0
          -0.05477971573038924 0.05132951292507475 0 -0.06283503260407958 0 0
          0.13747233710692836 -0.1437799404032861 0 0.015132792385092094 0 0
          0.15780183831415592 -0.11738712726400012 0 0.06125686734742927 0 0
          0.07288191016016059 -0.06049105848579535 0 0.1067284513264966 0 0
          -0.049123746797369916 0.05042318144565093 0 -0.10959259136084709 0 0
          -0.3353500203495371 0.318082969642171 0 0.10773731341468427 0 0
          -0.042093284808638366 0.051350749622297416 0 -0.007392595036513766 0 0
          -0.20212813886076583 0.21404729628406316 0 -0.09593845151562844 0 0
          0.08480652829549024 -0.09190720473590447 0 0.18431943973112153 0 0
          0.096610379089164 -0.09099832574063871 0 0.10123048567227802 0 0
          -0.01812658570246245 0.007988793487168425 0 -0.22156197573248776 0 0
          0.1345250312856639 -0.15491243350208278 0 0.008629368713249652 0 0
          0.08003887624453963 -0.07796240520151883 0 -0.0019410665487556308 0 0
          -0.08360184117816906 0.07817617789132134 0 -0.03924877241684815 0 0
          0.01595396493426604 -0.04592966836308958 0 -0.1403121792615155 0 0
          0.1399373187498425 -0.14588468970825655 0 -0.048217695778500075 0 0
          0.10856931215162649 -0.074561136871253 0 -0.0224088608856926 0 0
          -0.11767695345344514 0.11395044824888992 0 -0.01873172741009345 0 0
          0.038925825701015035 -0.03738269615439589 0 -0.026275517680464204 0 0
          -0.11451731765503115 0.1079460311200246 0 0.0393913770863692 0 0
          0.14708049771855983 -0.1517804144847146 0 -0.11324346284516897 0 0
          -0.039421655112091086 0.039183026339462225 0 -0.013503639185757497 0 0
          -0.05766770670376206 0.07317812507635815 0 0.05247579826573437 0 0
          -0.03220889970013455 0.03825838754616245 0 -0.02711983291735939 0 0
          0.07139815135910485 -0.06833830878984481 0 -0.024642042959662255 0 0
          0.02201741432220987 -0.014485628865943526 0 0.026204302340955825 0 0
          0.03566185716787035 -0.039226689431734296 0 -0.029102961836158465 0 0
          -0.03446445409308062 0.038956561826192955 0 0.0344812522923086 0 0
          0.13801954702323174 -0.1502272656734456 0 -0.024510285123077083 0 0
          -0.01982740980607549 0.013605076275721295 0 0.026289562872530856 0 0
          -0.13404525476937065 0.1367273337554167 0 0.06295210398864731 0 0
          0.020244371624306333 -0.01973154484187461 0 0.029399515284624846 0 0
          -0.08382197560641448 0.08611439328147386 0 -0.0969022181566936 0 0
          0.08763360469947312 -0.08611100194927399 0 0.34186799856370076 0 0
          0.03086806573003318 -0.03384921275272387 0 0.06986399743695473 0 0
          0.05355199921059968 -0.05947568460170571 0 0.07737903524578807 0 0
          0.01581602477318682 -0.017170914052345783 0 0.03583017751460299 0 0
          -0.016917935614202427 0.02264939537272429 0 0.007425613050735712 0 0
          -0.05567306721178271 0.05053054440248875 0 0.04738693948245923 0 0
          -0.21541560004681612 0.2236141303257234 0 -0.041878974599154156 0 0
          0.012621881769051426 -0.010541647512702734 0 0.010160020288010397 0 0
          -0.0023123364587635453 0.0013978713938717384 0 0.001779126225018499 0 0
          -0.011233701609162932 0.015401518036884734 0 0.017599913174477205 0 0
          -0.11917206311201618 0.1134367235645619 0 0.021658877358931544 0 0
          0.007288774918818883 -0.0021226143664454617 0 0.056186177771113135 0 0
          0.01119250975195741 -0.015657124122335275 0 0.13939888551594404 0 0
          -0.019392969559120583 0.01976606973902971 0 0.079107425739048 0 0
          0.01496286974441774 -0.0022797597363636325 0 0.02721572405375212 0 0
          -0.020156416574431926 0.019364773901009904 0 0.010886484241190878 0 0
          -0.006780465119328238 0.006429805683610429 0 -0.004124817714851919 0 0
          -0.07406545793538036 0.084249400639787 0 0.10467935893140884 0 0
          -0.36126420502849765 0.3100164946055172 0 0.08202762696546012 0 0
          -0.31133880812467996 0.31681762152266657 0 0.07950473877857037 0 0
          0.015195882011943471 -0.023213240373490856 0 -0.050365482787721114 0 0
          0.01907353313891349 -0.03152410640814579 0 0.05148354241874031 0 0
          -0.031531510398870415 0.03305560832211578 0 0.0284505021384395 0 0
          -0.2713465648540867 0.2688645739975738 0 -0.6447617186682706 0 0
          -0.26559787737077434 0.29245470918018657 0 -0.014921186031203515 0 0
          <InformationKey name="L2_NORM_RANGE" location="vtkDataArray" length="2">
            <Value index="0">
              0.0032351560174
            </Value>
            <Value index="1">
              1.6172788568
            </Value>
          </InformationKey>
        </DataArray>
        <DataArray type="Float64" Name="ALEdispl" NumberOfComponents="3" format="ascii" RangeMin="0" RangeMax="0">
          0 0 0 0 0 0
          0 0 0 0 0 0
          0 0 0 0 0 0
          0 0 0 0 0 0
          0 0 0 0 0 0
          0 0 0 0 0 0
          0 0 0 0 0 0
          0 0 0 0 0 0
          0 0 0 0 0 0
          0 0 0 0 0 0
          0 0 0 0 0 0
          0 0 0 0 0 0
          0 0 0 0 0 0
          0 0 0 0 0 0
          0 0 0 0 0 0
          0 0 0 0 0 0
          0 0 0 0 0 0
          0 0 0 0 0 0
          0 0 0 0 0 0
          0 0 0 0 0 0
          0 0 0 0 0 0
          0 0 0 0 0 0
          0 0 0 0 0 0
          0 0 0 0 0 0
          0 0 0 0 0 0
          0 0 0 0 0 0
          0 0 0 0 0 0
          0 0 0 0 0 0
          0 0 0 0 0 0
          0 0 0 0 0 0
          0 0 0 0 0 0
          0 0 0 0 0 0
          0 0 0 0 0 0
          0 0 0 0 0 0
          0 0 0 0 0 0
          0 0 0 0 0 0
          0 0 0 0 0 0
          0 0 0 0 0 0
          0 0 0 0 0 0
          0 0 0 0 0 0
          0 0 0 0 0 0
          0 0 0 0 0 0
          0 0 0 0 0 0
          0 0 0 0 0 0
          0 0 0 0 0 0
          0 0 0 0 0 0
          0 0 0 0 0 0
          <InformationKey name="L2_NORM_RANGE" location="vtkDataArray" length="2">
            <Value index="0">
              0
            </Value>
            <Value index="1">
              0
            </Value>
          </InformationKey>
        </DataArray>
        <DataArray type="Float64" Name="ALEveloc" NumberOfComponents="3" format="ascii" RangeMin="0" RangeMax="0">
          0 0 0 0 0 0
          0 0 0 0 0 0
          0 0 0 0 0 0
          0 0 0 0 0 0
          0 0 0 0 0 0
          0 0 0 0 0 0
          0 0 0 0 0 0
          0 0 0 0 0 0
          0 0 0 0 0 0
          0 0 0 0 0 0
          0 0 0 0 0 0
          0 0 0 0 0 0
          0 0 0 0 0 0
          0 0 0 0 0 0
          0 0 0 0 0 0
          0 0 0 0 0 0
          0 0 0 0 0 0
          0 0 0 0 0 0
          0 0 0 0 0 0
          0 0 0 0 0 0
          0 0 0 0 0 0
          0 0 0 0 0 0
          0 0 0 0 0 0
          0 0 0 0 0 0
          0 0 0 0 0 0
          0 0 0 0 0 0
          0 0 0 0 0 0
          0 0 0 0 0 0
          0 0 0 0 0 0
          0 0 0 0 0 0
          0 0 0 0 0 0
          0 0 0 0 0 0
          0 0 0 0 0 0
          0 0 0 0 0 0
          0 0 0 0 0 0
          0 0 0 0 0 0
          0 0 0 0 0 0
          0 0 0 0 0 0
          0 0 0 0 0 0
          0 0 0 0 0 0
          0 0 0 0 0 0
          0 0 0 0 0 0
          0 0 0 0 0 0
          0 0 0 0 0 0
          0 0 0 0 0 0
          0 0 0 0 0 0
          0 0 0 0 0 0
          <InformationKey name="L2_NORM_RANGE" location="vtkDataArray" length="2">
            <Value index="0">
              0
            </Value>
            <Value index="1">
              0
            </Value>
          </InformationKey>
        </DataArray>
      </PointData>
      <CellData>
        <DataArray type="UInt8" Name="vtkGhostType" format="ascii" RangeMin="0" RangeMax="1">
          0 0 0 0 0 0
          0 0 1 0 0 1
          0 1 0 0 1 1
          1 0 0 0 0 0
          1 1 0 1 1 0
          1 1 0 1 0 0
          0 0 0 0 0 0
          0 0 0 0 0 0
          0 0 0 0 0 0
          0 0 0 0 0 0
          0 0 0 0 0 0
          0 0 0 0 0 0
          0 0 0 0 0 0
          0 0 0 0 0 0
          0 1 0 0 0 0
          0 0 0 1 0 0
          0 0 0 0 0 1
          0 0 0 0 0 0
          0 0 0 0 0 0
          0 0 0 0 0 0
          0 0 0 0 0 0
          0 0 0 0 0 0
          0 1 0 0 0 0
          0 0 0 0 0 0
          0 0 0 0 0 0
        </DataArray>
        <DataArray type="Float64" Name="PStrain" NumberOfComponents="6" format="ascii" RangeMin="0.1732050807568877" RangeMax="0.1732050807568877">
          0.09999999999999999 0.09999999999999999 0 0.09999999999999999 0 0
          0.09999999999999999 0.09999999999999999 0 0.09999999999999999 0 0
          0.09999999999999999 0.09999999999999999 0 0.09999999999999999 0 0
          0.09999999999999999 0.09999999999999999 0 0.09999999999999999 0 0
          0.09999999999999999 0.09999999999999999 0 0.09999999999999999 0 0
          0.09999999999999999 0.09999999999999999 0 0.09999999999999999 0 0
          0.09999999999999999 0.09999999999999999 0 0.09999999999999999 0 0
          0.09999999999999999 0.09999999999999999 0 0.09999999999999999 0 0
          0.09999999999999999 0.09999999999999999 0 0.09999999999999999 0 0
          0.09999999999999999 0.09999999999999999 0 0.09999999999999999 0 0
          0.09999999999999999 0.09999999999999999 0 0.09999999999999999 0 0
          0.09999999999999999 0.09999999999999999 0 0.09999999999999999 0 0
          0.09999999999999999 0.09999999999999999 0 0.09999999999999999 0 0
          0.09999999999999999 0.09999999999999999 0 0.09999999999999999 0 0
          0.09999999999999999 0.09999999999999999 0 0.09999999999999999 0 0
          0.09999999999999999 0.09999999999999999 0 0.09999999999999999 0 0
          0.09999999999999999 0.09999999999999999 0 0.09999999999999999 0 0
          0.09999999999999999 0.09999999999999999 0 0.09999999999999999 0 0
          0.09999999999999999 0.09999999999999999 0 0.09999999999999999 0 0
          0.09999999999999999 0.09999999999999999 0 0.09999999999999999 0 0
          0.09999999999999999 0.09999999999999999 0 0.09999999999999999 0 0
          0.09999999999999999 0.09999999999999999 0 0.09999999999999999 0 0
          0.09999999999999999 0.09999999999999999 0 0.09999999999999999 0 0
          0.09999999999999999 0.09999999999999999 0 0.09999999999999999 0 0
          0.09999999999999999 0.09999999999999999 0 0.09999999999999999 0 0
          0.09999999999999999 0.09999999999999999 0 0.09999999999999999 0 0
          0.09999999999999999 0.09999999999999999 0 0.09999999999999999 0 0
          0.09999999999999999 0.09999999999999999 0 0.09999999999999999 0 0
          0.09999999999999999 0.09999999999999999 0 0.09999999999999999 0 0
          0.09999999999999999 0.09999999999999999 0 0.09999999999999999 0 0
          0.09999999999999999 0.09999999999999999 0 0.09999999999999999 0 0
          0.09999999999999999 0.09999999999999999 0 0.09999999999999999 0 0
          0.09999999999999999 0.09999999999999999 0 0.09999999999999999 0 0
          0.09999999999999999 0.09999999999999999 0 0.09999999999999999 0 0
          0.09999999999999999 0.09999999999999999 0 0.09999999999999999 0 0
          0.09999999999999999 0.09999999999999999 0 0.09999999999999999 0 0
          0.09999999999999999 0.09999999999999999 0 0.09999999999999999 0 0
          0.09999999999999999 0.09999999999999999 0 0.09999999999999999 0 0
          0.09999999999999999 0.09999999999999999 0 0.09999999999999999 0 0
          0.09999999999999999 0.09999999999999999 0 0.09999999999999999 0 0
          0.09999999999999999 0.09999999999999999 0 0.09999999999999999 0 0
          0.09999999999999999 0.09999999999999999 0 0.09999999999999999 0 0
          0.09999999999999999 0.09999999999999999 0 0.09999999999999999 0 0
          0.09999999999999999 0.09999999999999999 0 0.09999999999999999 0 0
          0.09999999999999999 0.09999999999999999 0 0.09999999999999999 0 0
          0.09999999999999999 0.09999999999999999 0 0.09999999999999999 0 0
          0.09999999999999999 0.09999999999999999 0 0.09999999999999999 0 0
          0.09999999999999999 0.09999999999999999 0 0.09999999999999999 0 0
          0.09999999999999999 0.09999999999999999 0 0.09999999999999999 0 0
          0.09999999999999999 0.09999999999999999 0 0.09999999999999999 0 0
          0.09999999999999999 0.09999999999999999 0 0.09999999999999999 0 0
          0.09999999999999999 0.09999999999999999 0 0.09999999999999999 0 0
          0.09999999999999999 0.09999999999999999 0 0.09999999999999999 0 0
          0.09999999999999999 0.09999999999999999 0 0.09999999999999999 0 0
          0.09999999999999999 0.09999999999999999 0 0.09999999999999999 0 0
          0.09999999999999999 0.09999999999999999 0 0.09999999999999999 0 0
          0.09999999999999999 0.09999999999999999 0 0.09999999999999999 0 0
          0.09999999999999999 0.09999999999999999 0 0.09999999999999999 0 0
          0.09999999999999999 0.09999999999999999 0 0.09999999999999999 0 0
          0.09999999999999999 0.09999999999999999 0 0.09999999999999999 0 0
          0.09999999999999999 0.09999999999999999 0 0.09999999999999999 0 0
          0.09999999999999999 0.09999999999999999 0 0.09999999999999999 0 0
          0.09999999999999999 0.09999999999999999 0 0.09999999999999999 0 0
          0.09999999999999999 0.09999999999999999 0 0.09999999999999999 0 0
          0.09999999999999999 0.09999999999999999 0 0.09999999999999999 0 0
          0.09999999999999999 0.09999999999999999 0 0.09999999999999999 0 0
          0.09999999999999999 0.09999999999999999 0 0.09999999999999999 0 0
          0.09999999999999999 0.09999999999999999 0 0.09999999999999999 0 0
          0.09999999999999999 0.09999999999999999 0 0.09999999999999999 0 0
          0.09999999999999999 0.09999999999999999 0 0.09999999999999999 0 0
          0.09999999999999999 0.09999999999999999 0 0.09999999999999999 0 0
          0.09999999999999999 0.09999999999999999 0 0.09999999999999999 0 0
          0.09999999999999999 0.09999999999999999 0 0.09999999999999999 0 0
          0.09999999999999999 0.09999999999999999 0 0.09999999999999999 0 0
          0.09999999999999999 0.09999999999999999 0 0.09999999999999999 0 0
          0.09999999999999999 0.09999999999999999 0 0.09999999999999999 0 0
          0.09999999999999999 0.09999999999999999 0 0.09999999999999999 0 0
          0.09999999999999999 0.09999999999999999 0 0.09999999999999999 0 0
          0.09999999999999999 0.09999999999999999 0 0.09999999999999999 0 0
          0.09999999999999999 0.09999999999999999 0 0.09999999999999999 0 0
          0.09999999999999999 0.09999999999999999 0 0.09999999999999999 0 0
          0.09999999999999999 0.09999999999999999 0 0.09999999999999999 0 0
          0.09999999999999999 0.09999999999999999 0 0.09999999999999999 0 0
          0.09999999999999999 0.09999999999999999 0 0.09999999999999999 0 0
          0.09999999999999999 0.09999999999999999 0 0.09999999999999999 0 0
          0.09999999999999999 0.09999999999999999 0 0.09999999999999999 0 0
          0.09999999999999999 0.09999999999999999 0 0.09999999999999999 0 0
          0.09999999999999999 0.09999999999999999 0 0.09999999999999999 0 0
          0.09999999999999999 0.09999999999999999 0 0.09999999999999999 0 0
          0.09999999999999999 0.09999999999999999 0 0.09999999999999999 0 0
          0.09999999999999999 0.09999999999999999 0 0.09999999999999999 0 0
          0.09999999999999999 0.09999999999999999 0 0.09999999999999999 0 0
          0.09999999999999999 0.09999999999999999 0 0.09999999999999999 0 0
          0.09999999999999999 0.09999999999999999 0 0.09999999999999999 0 0
          0.09999999999999999 0.09999999999999999 0 0.09999999999999999 0 0
          0.09999999999999999 0.09999999999999999 0 0.09999999999999999 0 0
          0.09999999999999999 0.09999999999999999 0 0.09999999999999999 0 0
          0.09999999999999999 0.09999999999999999 0 0.09999999999999999 0 0
          0.09999999999999999 0.09999999999999999 0 0.09999999999999999 0 0
          0.09999999999999999 0.09999999999999999 0 0.09999999999999999 0 0
          0.09999999999999999 0.09999999999999999 0 0.09999999999999999 0 0
          0.09999999999999999 0.09999999999999999 0 0.09999999999999999 0 0
          0.09999999999999999 0.09999999999999999 0 0.09999999999999999 0 0
          0.09999999999999999 0.09999999999999999 0 0.09999999999999999 0 0
          0.09999999999999999 0.09999999999999999 0 0.09999999999999999 0 0
          0.09999999999999999 0.09999999999999999 0 0.09999999999999999 0 0
          0.09999999999999999 0.09999999999999999 0 0.09999999999999999 0 0
          0.09999999999999999 0.09999999999999999 0 0.09999999999999999 0 0
          0.09999999999999999 0.09999999999999999 0 0.09999999999999999 0 0
          0.09999999999999999 0.09999999999999999 0 0.09999999999999999 0 0
          0.09999999999999999 0.09999999999999999 0 0.09999999999999999 0 0
          0.09999999999999999 0.09999999999999999 0 0.09999999999999999 0 0
          0.09999999999999999 0.09999999999999999 0 0.09999999999999999 0 0
          0.09999999999999999 0.09999999999999999 0 0.09999999999999999 0 0
          0.09999999999999999 0.09999999999999999 0 0.09999999999999999 0 0
          0.09999999999999999 0.09999999999999999 0 0.09999999999999999 0 0
          0.09999999999999999 0.09999999999999999 0 0.09999999999999999 0 0
          0.09999999999999999 0.09999999999999999 0 0.09999999999999999 0 0
          0.09999999999999999 0.09999999999999999 0 0.09999999999999999 0 0
          0.09999999999999999 0.09999999999999999 0 0.09999999999999999 0 0
          0.09999999999999999 0.09999999999999999 0 0.09999999999999999 0 0
          0.09999999999999999 0.09999999999999999 0 0.09999999999999999 0 0
          0.09999999999999999 0.09999999999999999 0 0.09999999999999999 0 0
          0.09999999999999999 0.09999999999999999 0 0.09999999999999999 0 0
          0.09999999999999999 0.09999999999999999 0 0.09999999999999999 0 0
          0.09999999999999999 0.09999999999999999 0 0.09999999999999999 0 0
          0.09999999999999999 0.09999999999999999 0 0.09999999999999999 0 0
          0.09999999999999999 0.09999999999999999 0 0.09999999999999999 0 0
          0.09999999999999999 0.09999999999999999 0 0.09999999999999999 0 0