<?xml version="1.0"?>
<VTKFile type="UnstructuredGrid" version="0.1" byte_order="LittleEndian" header_type="UInt32" compressor="vtkZLibDataCompressor">
  <UnstructuredGrid>
    <Piece NumberOfPoints="94" NumberOfCells="150">
      <PointData>
        <DataArray type="Float64" Name="Velocity" NumberOfComponents="3" format="ascii" RangeMin="0" RangeMax="5.389719520396209">
          1.0786976154059886 0 0 1.3113145035453462 -0.10655447055025145 0
          1.5024015804449176 -0.3312565659187115 0 1.5273293221982733 0 0
          1.1026876720452137 -0.8876000910379 0 1.29307328400462 -0.34004637919455255 0
          2.3363650573971113 -0.11888327113519806 0 2.9139150933089915 -0.9225624987396165 0
          1.9461963127140558 -1.4969205801631544 0 1.6484415601987303 0 0
          1.6263829996769745 -1.5760491100752643 0 1.7769711284042247 -0.1711470737516805 0
          1.358361618828664 -0.2899071586718164 0 2.8505213006447083 -0.2862134223541474 0
          5.303128727839765 -0.9622381225562293 0 3.922161703684886 1.218752591705182 0
          1.9170257259469499 4.340723141237517 0 2.04420754387762 -0.3893019691743667 0
          0.07035255986419409 0.13991809725280407 0 1.6735664921338036 1.37373760908828 0
          0 0 0 3.241788819163496 1.2262911501287936 0
          1.7032177133427095 0.18702404014828508 0 0 0 0
          3.7338657248893465 3.4741574992966706 0 1.9578253853465488 -0.07643381171634164 0
          2.172100345451029 -0.30533951701392875 0 0 0 0
          0 0 0 1.8916645327600259 0.3603313606606926 0
          2.734075892832508 0.7204586574025245 0 1.7738529648647292 0 0
          0 0 0 0 0 0
          2.2144740773334752 1.478609896958796 0 -0.5478659395227659 2.8542760027756175 0
          1.6237645991177514 0.37960900402953923 0 0 0 0
          2.178130339208023 0.4187478962262953 0 1.5610024014615327 0.3487165214133826 0
          0 0 0 1.2342393543143433 1.271733263429661 0
          0.3618076561752076 -0.7068746892286882 0 0 0 0
          1.1050750760627357 1.227813644252449 0 2.6003284375499156 0.8855990059984669 0
          0.737441805086219 0.21010336657739975 0 2.2915075646995655 0.471895122289969 0
          1.6075846394794524 0.12330651438025751 0 -0.32891543150079705 -0.24169292607993315 0
          1.2748526305156105 1.376616606468659 0 0.6065632574919041 1.1565800331590184 0
          1.5051217682173785 1.0010193676836443 0 0.8299141901137205 1.7071711020345375 0
          0.5323886479027351 0 0 0.6024604001088729 0.8358158593533397 0
          0.783845216418037 0.796527348843977 0 -0.05987609415315586 0.0023377954093521842 0
          0.7700854702922663 1.4518374356776218 0 -0.5260486038700122 0.14047275030306997 0
          1.2599533795088222 0.8601769545173432 0 1.693067727604548 1.512177527373407 0
          1.141938123027361 0 0 1.4191788257163735 1.4098357061937448 0
          0.4785546261431783 0 0 0.9547451708370955 0.5564237038902977 0
          0.5544212593172974 0.5380467010547265 0 1.0606492647914263 0.26988420945923514 0
          0.1434030039824997 -0.04749393870849629 0 -0.9152077496348442 0 0
          1.0270986958281376 0.2833719502421423 0 0.9518060948265857 0.5638787273792515 0
          1.1193575662099966 1.0411730688946492 0 1.0622152327629601 1.0640712899678557 0
          0.6603135949111972 0.9242094501093577 0 0.4451764931587654 0 0
          0.9999999999999997 0 0 0.9999999999999999 0 0
          1 0 0 0.7254009435129161 0 0
          1 0 0 1 0 0
          1 0 0 0.9999999999999999 0 0
          1.2367976677841346 -0.18048578519192884 0 1.0438584975424 0 0
          0.7650963306318534 -2.5163530320909016 0 3.822406671926966 -3.2724879969749736 0
          2.4115963927397623 -0.9982429506630092 0 1.3776011766371323 -0.8340672997599103 0
          1.688960849143034 -0.5428365646395902 0 1.2237797447328695 -0.5722495354218872 0
          -1.9284139372211764 0.7851964679438579 0 0 0 0
          <InformationKey name="L2_NORM_RANGE" location="vtkDataArray" length="2">
            <Value index="0">
              0
            </Value>
            <Value index="1">
              5.3897195204
            </Value>
          </InformationKey>
        </DataArray>
        <DataArray type="Float64" Name="Pressure" format="ascii" RangeMin="-22.117316894626693" RangeMax="9.382445805561028">
          0.4062917085525873 0.06270903347699763 0.29620094764079674 0.009824935643366506 0.17858085935863477 0.8196679081418221
          -1.0969486919499618 -4.831943834895858 2.1801009829145936 1.5181668963784802 0.6289043119498423 0.06017300047607854
          3.541795844207606 -9.237517106900716 -19.147001617754597 -4.050235164585917 -13.894353290712978 0.1412435225666362
          -4.520401528375869 -2.3105883728547583 -1.5967910205854245 -3.421033642594845 2.0577746111716304 4.435526003265854
          -7.378815213778185 0.04599400164126122 -5.4290585229103785 4.213398839851344 9.382445805561028 1.0184536813263083
          -4.039614046542433 2.644401092316251 9.223697269190092 5.301965706043253 -6.016154703539062 0.22075418450035433
          1.626413736745528 3.830475516652663 0.20402742371119573 -1.6412437455717546 2.463827907445509 1.6543665957586309
          5.881977575695803 0.9917535698200539 0.052393031312983396 -4.1690108154103225 5.566035134022763 0.5157950224057838
          3.122277143392773 4.381957610405648 -1.150542188182225 3.06160216123226 1.8428988501483754 3.7617302558978643
          3.337008314409008 3.4835611347770277 3.3514801298472556 5.010812985223152 3.7355206041343325 4.813505121715611
          2.706222389506519 1.2212163454597325 3.037058092185066 2.0236224013665494 5.4583183650928735 3.6859384044131707
          4.207342603800486 2.5634901377642443 4.495702571787992 4.670333139851646 2.5211186247942052 3.451613832514548
          3.8648531299085747 3.9194189597640454 3.804144279052623 4.318137322205074 1.283129516990987 2.001643483848204
          2.8055731855024675 4.666773947846224 3.5633308983391156 4.203049658453075 4.628893505892086 4.34552921162698
          -0.23089389356348305 -0.08578455408808248 -22.117316894626693 -13.07278210210548 -3.6696724729149865 -0.4700944670528143
          -1.1262342506486922 -0.2682613824042669 -13.291321019583124 -0.471061646218376
        </DataArray>
        <DataArray type="Float64" Name="BTraction" NumberOfComponents="3" format="ascii" RangeMin="0" RangeMax="8.72364680519265">
          -0.004919028306395055 -0.2425187407952533 0 0 0 0
          0 0 0 0.021114345714764532 -0.30829876862270783 0
          0 0 0 0 0 0
          0 0 0 0 0 0
          0 0 0 0.014885076229097998 -1.4522256599258134 0
          0 0 0 0 0 0
          0 0 0 0 0 0
          0 0 0 0 0 0
          0 0 0 0 0 0
          0 0 0 0 0 0
          0.14266607051234054 -0.24452723481474875 0 0 0 0
          0 0 0 2.944483572434953 -0.7838874453684826 0
          0 0 0 0 0 0
          0 0 0 -3.579804633523765 0.6701046958027297 0
          -8.692036497646257 -0.3987982242508765 0 0 0 0
          0 0 0 -0.0066096274422779745 -2.538740891245264 0
          -8.723604285198624 0.027237052192899028 0 -5.667715414547537 0.1575523136875899 0
          0 0 0 0 0 0
          0 0 0 -3.7899679325127007 0.025168324572167205 0
          0 0 0 0 0 0
          -2.5007807641228417 -0.0702322044081715 0 0 0 0
          0 0 0 -0.750400154449185 0.8138207662083942 0
          0 0 0 0 0 0
          0 0 0 0 0 0
          0 0 0 0 0 0
          0 0 0 0 0 0
          0 0 0 0 0 0
          0.0349679056554899 3.318202467917515 0 0 0 0
          0 0 0 0 0 0
          0 0 0 0 0 0
          0 0 0 0 0 0
          -0.01626121132325091 -2.70133748603157 0 0 0 0
          -0.03696661813099949 5.090221859612798 0 0 0 0
          0 0 0 0 0 0
          0 0 0 -0.19365447604541125 4.8014538861563345 0
          0 0 0 0 0 0
          0 0 0 0 0 0
          0 0 0 -0.028882498436718085 4.285900116419261 0
          0.7555523283147286 -0.9482456370888794 0 1.999326613943239 -0.007077640342505458 0
          2.790140010157069 -0.024658224060304455 0 -0.011916580163085921 4.448109134728839 0
          3.520315935964184 -0.059079807313174915 0 4.150099977626168 -0.1035433594970259 0
          4.5165081152839095 -0.0735768199347226 0 2.5511474300740478 1.8461885162001825 0
          0 0 0 -0.004400535730156004 0.03359673852654374 0
          0 0 0 0 0 0
          0 0 0 0 0 0
          0 0 0 0 0 0
          0 0 0 -0.1870911652491418 -0.18550424506336147 0
          <InformationKey name="L2_NORM_RANGE" location="vtkDataArray" length="2">
            <Value index="0">
              0
            </Value>
            <Value index="1">
              8.7236468052
            </Value>
          </InformationKey>
        </DataArray>
        <DataArray type="Float64" Name="Sigma" NumberOfComponents="6" format="ascii" RangeMin="0.0030690544047125307" RangeMax="1.4563562203092315">
          -0.0137024096226473 0.015646083531630422 0 -0.01432823603196299 0 0
          -0.02286529617651082 0.022570143638773556 0 0.0005006861718677199 0 0
          -0.03614670438341851 0.03506293432775786 0 -0.013271877508410888 0 0
          -0.030421625567044926 0.02596193636749983 0 0.03094813049299544 0 0
          -0.2789092412254182 0.2941462603351115 0 0.017258313355853434 0 0
          -0.03734764275795797 0.04265778342256143 0 -0.012630150572108105 0 0
          -0.009049838891060306 0.0015893791294568447 0 0.0041866748840657594 0 0
          0.19251959794349763 -0.20583717169627433 0 0.041391259498891934 0 0
          -0.32333341141227 0.34195262865785747 0 -0.12203769393624633 0 0
          -0.013092398676889628 0.013281567212636961 0 0.016698028957136683 0 0
          -0.44321435706209844 0.43598558611191407 0 -0.3381936943523399 0 0
          -0.05302774254154747 0.0525987562160834 0 -0.0963851091614524 0 0
          -0.3247462885184985 0.34084757895524215 0 -0.06589291612384487 0 0
          0.749849697682258 -0.7286171796744865 0 -0.461802517065371 0 0
          0.06897344163563332 -0.08682634333654819 0 0.03579179249462648 0 0
          0.1420453385354114 -0.12000856279174951 0 -0.6922594439422232 0 0
          0.17994227054298628 -0.16933300580437188 0 0.1907763172579191 0 0
          0.08804966121414334 -0.08604994717073386 0 -0.0538323780369399 0 0
          0.03318901937014297 -0.013253363280868319 0 0.09026443516558791 0 0
          0.302929866887489 -0.3406386082167636 0 -0.20372499899753033 0 0
          0.22424118750307453 -0.27343101529448255 0 0.6406214542480603 0 0
          0.14761245250514954 -0.16336393436692548 0 0.5596328762522244 0 0
          0.006394905122031432 -0.00853895150457916 0 0.008616906920138986 0 0
          -0.4657708229843659 0.44789787017731414 0 0.9998274039951307 0 0
          -0.7712627198107469 0.837153856028126 0 0.9084606093831256 0 0
          0.271033293493269 -0.26302104170766294 0 -0.34351814730361546 0 0
          0.310125512838195 -0.2818405608872638 0 -0.33386040313567505 0 0
          -0.06834085700748546 -0.02591505697090546 0 -0.45973486019872145 0 0
          -0.17066950870622616 0.16239290578455143 0 -0.5149748232137894 0 0
          0.005922565515047079 -0.015646360222170808 0 -0.01222840566229795 0 0
          0.5599137772030511 -0.5803670900613651 0 0.2825132385198168 0 0
          0.009801375608787573 -0.008019166453658574 0 -0.007598785469280897 0 0
          -0.2356851916494949 0.2434657473656034 0 0.10517264326648729 0 0
          0.0671341748570278 -0.06256712064984106 0 0.21004903514566053 0 0
          -0.017414576880077373 -0.004328876605096149 0 -0.14360717190996974 0 0
          -0.35137518850881166 0.4175925341892498 0 0.35073395037937893 0 0
          -0.05303386820523302 0.050483516190019374 0 -0.061666650671913265 0 0
          0.12881632557274444 -0.13489788836034555 0 0.0016367682212243316 0 0
          0.1568883127414172 -0.12638371246246966 0 0.022817604486912668 0 0
          0.0952987402311894 -0.09236265798103185 0 0.13187082667955133 0 0
          -0.04181875930809958 0.04261928274367293 0 -0.08652565763313978 0 0
          -0.24685022950393265 0.232503356437339 0 0.0696199680960473 0 0
          -0.03976327130042846 0.0472094133744584 0 -0.055260462949973166 0 0
          -0.17039488936679062 0.18034888237616892 0 -0.08076566484829636 0 0
          0.04442551787740377 -0.04918651210432583 0 0.13983797775233872 0 0
          0.17161407564752768 -0.16404335748849377 0 0.11042841007246987 0 0
          -0.012546229656910948 0.0035109002579581626 0 -0.1895991811004423 0 0
          0.17387040997929368 -0.18948997801329273 0 0.013113089208600782 0 0
          0.08204662223259677 -0.08044977789606192 0 -0.0047259304773731164 0 0
          -0.07905500596878944 0.0742861373341374 0 -0.04703501485743926 0 0
          -0.0046126298901997265 -0.01712849003042536 0 -0.13974401409731024 0 0
          0.06671007018782169 -0.07205314449113417 0 -0.0482784937346587 0 0
          0.10079883907463927 -0.07329289103532835 0 0.00124268292185932 0 0
          -0.14096897021608926 0.13849924263118113 0 0.01196953363342717 0 0
          0.02904955199772924 -0.027285179154577295 0 -0.02805870221045496 0 0
          -0.10368287973618005 0.09837767572765663 0 0.020795854379089478 0 0
          0.0648926540033218 -0.07228972670304484 0 -0.16086228286167145 0 0
          -0.036482784305040754 0.03633980452117376 0 -0.01782429441875156 0 0
          -0.057887788316030225 0.0713870664571196 0 0.063369327395307 0 0
          -0.034438694421769556 0.04068933613968154 0 -0.01534957976502321 0 0
          0.0731574439152575 -0.06991084885675294 0 -0.013208362669913263 0 0
          0.03399881644045648 -0.027906917930782253 0 0.0541019053983348 0 0
          0.03598203638149491 -0.03926670712970338 0 -0.024861672417563437 0 0
          -0.03571573465055534 0.03892360789503747 0 0.03747772286529159 0 0
          0.11812151778461476 -0.12845385914181157 0 -0.017520338070833717 0 0
          -0.011786545097870377 0.00641163791284454 0 0.005583924898515686 0 0
          -0.12933225726395103 0.131240954525285 0 0.05169113891107664 0 0
          0.01860146030801541 -0.018144482908989693 0 0.029341966739912947 0 0
          -0.08184832919157543 0.08348917465449632 0 -0.09206732019735735 0 0
          0.0938022024705523 -0.09276124241861769 0 0.3040661647762065 0 0
          0.029408002477689318 -0.03220982257105888 0 0.05933106875906331 0 0
          0.05285979288706408 -0.05765701331832461 0 0.06834009552677177 0 0
          0.01813652061315537 -0.019179685427056923 0 0.04633833207510542 0 0
          -0.019461133609060315 0.024741336586276832 0 0.02354692473298988 0 0
          -0.060825209571565855 0.05613917184484152 0 0.04635473718186141 0 0
          -0.2120089293201695 0.21980954447960627 0 -0.03778757501835674 0 0
          0.012051091609099633 -0.010119242365571043 0 0.008955181263568462 0 0
          -0.0013091801026241705 0.000463614367791776 0 0.0027368237276001878 0 0
          -0.011479801024754207 0.015155072382606318 0 0.023544655170727753 0 0
          -0.11216110486931619 0.10711430904328545 0 0.021302653211880594 0 0
          0.004821351052840249 -0.0004325681925853881 0 0.05395907924456369 0 0
          0.010777660328359933 -0.014934861176936796 0 0.12396784800151787 0 0
          -0.015434079881462255 0.015798427542695854 0 0.07265797988279979 0 0
          0.009461770314613933 0.001571170909509055 0 0.022188874326790006 0 0
          -0.02047548713442712 0.019761351202167265 0 0.01116188132686978 0 0
          -0.006931715507006204 0.006489554612715264 0 -0.0035760751393755187 0 0
          -0.09545510549028645 0.09503427115326209 0 -0.01769963321073234 0 0
          -0.30292900378610194 0.2665768040703669 0 -0.046063242777512614 0 0
          -0.34599889464349354 0.34937001280744345 0 0.12900536252869987 0 0
          0.04968530567651433 -0.05607301274022537 0 -0.066985950663565 0 0
          0.05159477389482793 -0.06310614241497772 0 0.04876535702050197 0 0
          -0.032823910985664236 0.0342978165463087 0 0.027331253636210598 0 0
          -0.20110559774232148 0.19657038567083562 0 -0.5560429713334547 0 0
          -0.2779782209214488 0.30300568646602544 0 0.08908417740319843 0 0
          <InformationKey name="L2_NORM_RANGE" location="vtkDataArray" length="2">
            <Value index="0">
              0.0030690544047
            </Value>
            <Value index="1">
              1.4563562203
            </Value>
          </InformationKey>
        </DataArray>
        <DataArray type="Float64" Name="ALEdispl" NumberOfComponents="3" format="ascii" RangeMin="0" RangeMax="0">
          0 0 0 0 0 0
          0 0 0 0 0 0
          0 0 0 0 0 0
          0 0 0 0 0 0
          0 0 0 0 0 0
          0 0 0 0 0 0
          0 0 0 0 0 0
          0 0 0 0 0 0
          0 0 0 0 0 0
          0 0 0 0 0 0
          0 0 0 0 0 0
          0 0 0 0 0 0
          0 0 0 0 0 0
          0 0 0 0 0 0
          0 0 0 0 0 0
          0 0 0 0 0 0
          0 0 0 0 0 0
          0 0 0 0 0 0
          0 0 0 0 0 0
          0 0 0 0 0 0
          0 0 0 0 0 0
          0 0 0 0 0 0
          0 0 0 0 0 0
          0 0 0 0 0 0
          0 0 0 0 0 0
          0 0 0 0 0 0
          0 0 0 0 0 0
          0 0 0 0 0 0
          0 0 0 0 0 0
          0 0 0 0 0 0
          0 0 0 0 0 0
          0 0 0 0 0 0
          0 0 0 0 0 0
          0 0 0 0 0 0
          0 0 0 0 0 0
          0 0 0 0 0 0
          0 0 0 0 0 0
          0 0 0 0 0 0
          0 0 0 0 0 0
          0 0 0 0 0 0
          0 0 0 0 0 0
          0 0 0 0 0 0
          0 0 0 0 0 0
          0 0 0 0 0 0
          0 0 0 0 0 0
          0 0 0 0 0 0
          0 0 0 0 0 0
          <InformationKey name="L2_NORM_RANGE" location="vtkDataArray" length="2">
            <Value index="0">
              0
            </Value>
            <Value index="1">
              0
            </Value>
          </InformationKey>
        </DataArray>
        <DataArray type="Float64" Name="ALEveloc" NumberOfComponents="3" format="ascii" RangeMin="0" RangeMax="0">
          0 0 0 0 0 0
          0 0 0 0 0 0
          0 0 0 0 0 0
          0 0 0 0 0 0
          0 0 0 0 0 0
          0 0 0 0 0 0
          0 0 0 0 0 0
          0 0 0 0 0 0
          0 0 0 0 0 0
          0 0 0 0 0 0
          0 0 0 0 0 0
          0 0 0 0 0 0
          0 0 0 0 0 0
          0 0 0 0 0 0
          0 0 0 0 0 0
          0 0 0 0 0 0
          0 0 0 0 0 0
          0 0 0 0 0 0
          0 0 0 0 0 0
          0 0 0 0 0 0
          0 0 0 0 0 0
          0 0 0 0 0 0
          0 0 0 0 0 0
          0 0 0 0 0 0
          0 0 0 0 0 0
          0 0 0 0 0 0
          0 0 0 0 0 0
          0 0 0 0 0 0
          0 0 0 0 0 0
          0 0 0 0 0 0
          0 0 0 0 0 0
          0 0 0 0 0 0
          0 0 0 0 0 0
          0 0 0 0 0 0
          0 0 0 0 0 0
          0 0 0 0 0 0
          0 0 0 0 0 0
          0 0 0 0 0 0
          0 0 0 0 0 0
          0 0 0 0 0 0
          0 0 0 0 0 0
          0 0 0 0 0 0
          0 0 0 0 0 0
          0 0 0 0 0 0
          0 0 0 0 0 0
          0 0 0 0 0 0
          0 0 0 0 0 0
          <InformationKey name="L2_NORM_RANGE" location="vtkDataArray" length="2">
            <Value index="0">
              0
            </Value>
            <Value index="1">
              0
            </Value>
          </InformationKey>
        </DataArray>
      </PointData>
      <CellData>
        <DataArray type="UInt8" Name="vtkGhostType" format="ascii" RangeMin="0" RangeMax="1">
          0 0 0 0 0 0
          0 0 1 0 0 1
          0 1 0 0 1 1
          1 0 0 0 0 0
          1 1 0 1 1 0
          1 1 0 1 0 0
          0 0 0 0 0 0
          0 0 0 0 0 0
          0 0 0 0 0 0
          0 0 0 0 0 0
          0 0 0 0 0 0
          0 0 0 0 0 0
          0 0 0 0 0 0
          0 0 0 0 0 0
          0 1 0 0 0 0
          0 0 0 1 0 0
          0 0 0 0 0 1
          0 0 0 0 0 0
          0 0 0 0 0 0
          0 0 0 0 0 0
          0 0 0 0 0 0
          0 0 0 0 0 0
          0 1 0 0 0 0
          0 0 0 0 0 0
          0 0 0 0 0 0
        </DataArray>
        <DataArray type="Float64" Name="PStrain" NumberOfComponents="6" format="ascii" RangeMin="0.1732050807568877" RangeMax="0.1732050807568877">
          0.09999999999999999 0.09999999999999999 0 0.09999999999999999 0 0
          0.09999999999999999 0.09999999999999999 0 0.09999999999999999 0 0
          0.09999999999999999 0.09999999999999999 0 0.09999999999999999 0 0
          0.09999999999999999 0.09999999999999999 0 0.09999999999999999 0 0
          0.09999999999999999 0.09999999999999999 0 0.09999999999999999 0 0
          0.09999999999999999 0.09999999999999999 0 0.09999999999999999 0 0
          0.09999999999999999 0.09999999999999999 0 0.09999999999999999 0 0
          0.09999999999999999 0.09999999999999999 0 0.09999999999999999 0 0
          0.09999999999999999 0.09999999999999999 0 0.09999999999999999 0 0
          0.09999999999999999 0.09999999999999999 0 0.09999999999999999 0 0
          0.09999999999999999 0.09999999999999999 0 0.09999999999999999 0 0
          0.09999999999999999 0.09999999999999999 0 0.09999999999999999 0 0
          0.09999999999999999 0.09999999999999999 0 0.09999999999999999 0 0
          0.09999999999999999 0.09999999999999999 0 0.09999999999999999 0 0
          0.09999999999999999 0.09999999999999999 0 0.09999999999999999 0 0
          0.09999999999999999 0.09999999999999999 0 0.09999999999999999 0 0
          0.09999999999999999 0.09999999999999999 0 0.09999999999999999 0 0
          0.09999999999999999 0.09999999999999999 0 0.09999999999999999 0 0
          0.09999999999999999 0.09999999999999999 0 0.09999999999999999 0 0
          0.09999999999999999 0.09999999999999999 0 0.09999999999999999 0 0
          0.09999999999999999 0.09999999999999999 0 0.09999999999999999 0 0
          0.09999999999999999 0.09999999999999999 0 0.09999999999999999 0 0
          0.09999999999999999 0.09999999999999999 0 0.09999999999999999 0 0
          0.09999999999999999 0.09999999999999999 0 0.09999999999999999 0 0
          0.09999999999999999 0.09999999999999999 0 0.09999999999999999 0 0
          0.09999999999999999 0.09999999999999999 0 0.09999999999999999 0 0
          0.09999999999999999 0.09999999999999999 0 0.09999999999999999 0 0
          0.09999999999999999 0.09999999999999999 0 0.09999999999999999 0 0
          0.09999999999999999 0.09999999999999999 0 0.09999999999999999 0 0
          0.09999999999999999 0.09999999999999999 0 0.09999999999999999 0 0
          0.09999999999999999 0.09999999999999999 0 0.09999999999999999 0 0
          0.09999999999999999 0.09999999999999999 0 0.09999999999999999 0 0
          0.09999999999999999 0.09999999999999999 0 0.09999999999999999 0 0
          0.09999999999999999 0.09999999999999999 0 0.09999999999999999 0 0
          0.09999999999999999 0.09999999999999999 0 0.09999999999999999 0 0
          0.09999999999999999 0.09999999999999999 0 0.09999999999999999 0 0
          0.09999999999999999 0.09999999999999999 0 0.09999999999999999 0 0
          0.09999999999999999 0.09999999999999999 0 0.09999999999999999 0 0
          0.09999999999999999 0.09999999999999999 0 0.09999999999999999 0 0
          0.09999999999999999 0.09999999999999999 0 0.09999999999999999 0 0
          0.09999999999999999 0.09999999999999999 0 0.09999999999999999 0 0
          0.09999999999999999 0.09999999999999999 0 0.09999999999999999 0 0
          0.09999999999999999 0.09999999999999999 0 0.09999999999999999 0 0
          0.09999999999999999 0.09999999999999999 0 0.09999999999999999 0 0
          0.09999999999999999 0.09999999999999999 0 0.09999999999999999 0 0
          0.09999999999999999 0.09999999999999999 0 0.09999999999999999 0 0
          0.09999999999999999 0.09999999999999999 0 0.09999999999999999 0 0
          0.09999999999999999 0.09999999999999999 0 0.09999999999999999 0 0
          0.09999999999999999 0.09999999999999999 0 0.09999999999999999 0 0
          0.09999999999999999 0.09999999999999999 0 0.09999999999999999 0 0
          0.09999999999999999 0.09999999999999999 0 0.09999999999999999 0 0
          0.09999999999999999 0.09999999999999999 0 0.09999999999999999 0 0
          0.09999999999999999 0.09999999999999999 0 0.09999999999999999 0 0
          0.09999999999999999 0.09999999999999999 0 0.09999999999999999 0 0
          0.09999999999999999 0.09999999999999999 0 0.09999999999999999 0 0
          0.09999999999999999 0.09999999999999999 0 0.09999999999999999 0 0
          0.09999999999999999 0.09999999999999999 0 0.09999999999999999 0 0
          0.09999999999999999 0.09999999999999999 0 0.09999999999999999 0 0
          0.09999999999999999 0.09999999999999999 0 0.09999999999999999 0 0
          0.09999999999999999 0.09999999999999999 0 0.09999999999999999 0 0
          0.09999999999999999 0.09999999999999999 0 0.09999999999999999 0 0
          0.09999999999999999 0.09999999999999999 0 0.09999999999999999 0 0
          0.09999999999999999 0.09999999999999999 0 0.09999999999999999 0 0
          0.09999999999999999 0.09999999999999999 0 0.09999999999999999 0 0
          0.09999999999999999 0.09999999999999999 0 0.09999999999999999 0 0
          0.09999999999999999 0.09999999999999999 0 0.09999999999999999 0 0
          0.09999999999999999 0.09999999999999999 0 0.09999999999999999 0 0
          0.09999999999999999 0.09999999999999999 0 0.09999999999999999 0 0
          0.09999999999999999 0.09999999999999999 0 0.09999999999999999 0 0
          0.09999999999999999 0.09999999999999999 0 0.09999999999999999 0 0
          0.09999999999999999 0.09999999999999999 0 0.09999999999999999 0 0
          0.09999999999999999 0.09999999999999999 0 0.09999999999999999 0 0
          0.09999999999999999 0.09999999999999999 0 0.09999999999999999 0 0
          0.09999999999999999 0.09999999999999999 0 0.09999999999999999 0 0
          0.09999999999999999 0.09999999999999999 0 0.09999999999999999 0 0
          0.09999999999999999 0.09999999999999999 0 0.09999999999999999 0 0
          0.09999999999999999 0.09999999999999999 0 0.09999999999999999 0 0
          0.09999999999999999 0.09999999999999999 0 0.09999999999999999 0 0
          0.09999999999999999 0.09999999999999999 0 0.09999999999999999 0 0
          0.09999999999999999 0.09999999999999999 0 0.09999999999999999 0 0
          0.09999999999999999 0.09999999999999999 0 0.09999999999999999 0 0
          0.09999999999999999 0.09999999999999999 0 0.09999999999999999 0 0
          0.09999999999999999 0.09999999999999999 0 0.09999999999999999 0 0
          0.09999999999999999 0.09999999999999999 0 0.09999999999999999 0 0
          0.09999999999999999 0.09999999999999999 0 0.09999999999999999 0 0
          0.09999999999999999 0.09999999999999999 0 0.09999999999999999 0 0
          0.09999999999999999 0.09999999999999999 0 0.09999999999999999 0 0
          0.09999999999999999 0.09999999999999999 0 0.09999999999999999 0 0
          0.09999999999999999 0.09999999999999999 0 0.09999999999999999 0 0
          0.09999999999999999 0.09999999999999999 0 0.09999999999999999 0 0
          0.09999999999999999 0.09999999999999999 0 0.09999999999999999 0 0
          0.09999999999999999 0.09999999999999999 0 0.09999999999999999 0 0
          0.09999999999999999 0.09999999999999999 0 0.09999999999999999 0 0
          0.09999999999999999 0.09999999999999999 0 0.09999999999999999 0 0
          0.09999999999999999 0.09999999999999999 0 0.09999999999999999 0 0
          0.09999999999999999 0.09999999999999999 0 0.09999999999999999 0 0
          0.09999999999999999 0.09999999999999999 0 0.09999999999999999 0 0
          0.09999999999999999 0.09999999999999999 0 0.09999999999999999 0 0
          0.09999999999999999 0.09999999999999999 0 0.09999999999999999 0 0
          0.09999999999999999 0.09999999999999999 0 0.09999999999999999 0 0
          0.09999999999999999 0.09999999999999999 0 0.09999999999999999 0 0
          0.09999999999999999 0.09999999999999999 0 0.09999999999999999 0 0
          0.09999999999999999 0.09999999999999999 0 0.09999999999999999 0 0
          0.09999999999999999 0.09999999999999999 0 0.09999999999999999 0 0
          0.09999999999999999 0.09999999999999999 0 0.09999999999999999 0 0
          0.09999999999999999 0.09999999999999999 0 0.09999999999999999 0 0
          0.09999999999999999 0.09999999999999999 0 0.09999999999999999 0 0
          0.09999999999999999 0.09999999999999999 0 0.09999999999999999 0 0
          0.09999999999999999 0.09999999999999999 0 0.09999999999999999 0 0
          0.09999999999999999 0.09999999999999999 0 0.09999999999999999 0 0
          0.09999999999999999 0.09999999999999999 0 0.09999999999999999 0 0
          0.09999999999999999 0.09999999999999999 0 0.09999999999999999 0 0
          0.09999999999999999 0.09999999999999999 0 0.09999999999999999 0 0
          0.09999999999999999 0.09999999999999999 0 0.09999999999999999 0 0
          0.09999999999999999 0.09999999999999999 0 0.09999999999999999 0 0
          0.09999999999999999 0.09999999999999999 0 0.09999999999999999 0 0
          0.09999999999999999 0.09999999999999999 0 0.09999999999999999 0 0
          0.09999999999999999 0.09999999999999999 0 0.09999999999999999 0 0
          0.09999999999999999 0.09999999999999999 0 0.09999999999999999 0 0
          0.09999999999999999 0.09999999999999999 0 0.09999999999999999 0 0
          0.09999999999999999 0.09999999999999999 0 0.09999999999999999 0 0
          0.09999999999999999 0.09999999999999999 0 0.09999999999999999 0 0
          0.09999999999999999 0.09999999999999999 0 0.09999999999999999 0 0
          0.09999999999999999 0.09999999999999999 0 0.09999999999999999 0 0
          0.09999999999999999 0.09999999999999999 0 0.09999999999999999 0 0
          0.09999999999999999 0.09999999999999999 0 0.09999999999999999 0 0
          0.09999999999999999 0.09999999999999999 0 0.09999999999999999 0 0
          0.09999999999999999 0.09999999999999999 0 0.09999999999999999 0 0
          0.09999999999999999 0.09999999999999999 0 0.09999999999999999 0 0