<?xml version="1.0"?>
<VTKFile type="UnstructuredGrid" version="0.1" byte_order="LittleEndian" header_type="UInt32" compressor="vtkZLibDataCompressor">
  <UnstructuredGrid>
    <Piece NumberOfPoints="97" NumberOfCells="154">
      <PointData>
        <DataArray type="Float64" Name="Velocity" NumberOfComponents="3" format="ascii" RangeMin="0" RangeMax="3.3785468243452703">
          0.7185741056207405 0.44848541219209537 0 1.1418549101699997 0 0
          0.8746685638801714 -0.007038337303108582 0 0.9519716892891772 0.029215689093956165 0
          1.0531865918503263 0.05348197009928601 0 0.9964071948177339 0 0
          0.7601543451686117 -0.43372535517968364 0 1.060804597881183 0 0
          1.0018351834883044 -0.040301933672552415 0 1.0050079002420513 0.0032958673050661894 0
          0.9975060752374821 0 0 0.9665257469461429 0 0
          1.0069751211376647 0 0 0.9978148759136896 0 0
          0.9972898333077586 0.002043911396773703 0 0.9977923011254516 0.002408550516941203 0
          1.0045016150478194 0 0 0.9940951412176489 0 0
          1.0012889564780647 0.004459488706312368 0 0.9964509040821147 -0.0029369943173179662 0
          0.9998905615025465 -0.0027248048546177376 0 1.0164035873513664 0 0
          0.9935121828012041 0 0 0.9997076332363491 0.011115484122746832 0
          0.9972934441104278 -0.023739923047325924 0 1.0073507338615904 -0.013243103845796066 0
          1.0265741963142008 0 0 1.0309297204719836 0 0
          0.9733685346308011 -0.009248953801009542 0 1.0243225658391946 -0.089600335709747 0
          0.9640740663209392 -0.052104294010867254 0 1.0288376752048742 -0.04551972613404196 0
          1.0856041503480567 0 0 1.0803902384093118 0 0
          1.056884679001022 -0.17415487508749267 0 0.9351034807800687 -0.2155683318407304 0
          0.9073859916437074 -0.021249306036664112 0 1.0172975734292855 0 0
          1.2824904621327928 -0.24055631041545272 0 1.063682784319643 -0.4598786266002899 0
          0.7202816074821046 -0.38430345558819545 0 1.3180117292568094 -0.612828346277553 0
          0.768263676333767 -0.07803981984610742 0 1.039075965227101 -0.8359077249652589 0
          0.9810902799347152 -0.6475904387108669 0 0.6770483605566882 -0.6402849887381798 0
          1.1445028619966726 0 0 1.4699805575892646 -0.7236393239861186 0
          0.4526656455722458 -0.3101977538255607 0 1.4862903897344417 -0.7703964711126775 0
          0.924241313020662 -1.070334293891459 0 0.7346009916242967 -0.031018767718598694 0
          0.46587409585143996 -0.8398252779444291 0 1.5500031984263223 -1.4132702566502304 0
          0.5509553989884779 -0.36739040437796566 0 0.4553647086429884 -1.172932247929727 0
          1.312914161705745 -0.8832250075290504 0 0.1788580335437438 -0.7003716638803044 0
          0.9849084339298592 -2.0083673713805794 0 1.2532588106192404 0 0
          0.18487826695322457 -1.291296856663829 0 0.35546127123811694 -0.2866447564410019 0
          1.8247323765094317 -2.3513853130326767 0 -0.15483110319044188 -0.5588291133541551 0
          0.21901008941616176 -2.5136487637539773 0 2.7502171299786307 -1.9623670355633303 0
          -0.11094978500189281 -0.7779937851212819 0 1.2287330209980356 -2.6477176851531365 0
          -1.1768568547013842 -0.9058264514020871 0 2.744779912779631 -1.8283866033436151 0
          0.6835645001344164 -0.3654065591414892 0 -0.42397239783430135 -1.9871413276388838 0
          0.8792150635745185 0 0 -0.06503014461423351 -0.3214853356893376 0
          1.3133371497088406 1.0115066334296992 0 -0.7681763519297063 -0.7779207546702087 0
          -1.2336299843397274 0.24087028372451585 0 -0.8025083594275414 1.4229412349756723 0
          0.15056507979424272 0 0 0.11244508996531877 -0.24257648536856216 0
          -0.2936969288245794 0.3352476779290321 0 -0.010074668973479426 -0.5219834714558984 0
          0 0 0 0.13481103384601043 0 0
          0 0 0 0 0 0
          0 0 0 0 0 0
          1.362805025187132 -0.1315942209743445 0 1.6922097677351042 -0.37961779081356006 0
          1.1003921103401402 0 0 2.0604128168021782 0.6905906004555185 0
          3.073682190392405 0.16279266983692398 0 2.7174588588876456 -0.9693459264608805 0
          1.8713777391077997 -1.0588166683641345 0 0.5495747924878503 1.8382681591799805 0
          0 0 0
          <InformationKey name="L2_NORM_RANGE" location="vtkDataArray" length="2">
            <Value index="0">
              0
            </Value>
            <Value index="1">
              3.3785468243
            </Value>
          </InformationKey>
        </DataArray>
        <DataArray type="Float64" Name="Pressure" format="ascii" RangeMin="-14.703166948318023" RangeMax="0.35918198153250736">
          0.07277298041518789 -0.15893273340547484 0.09127398002476071 -0.09053202069848892 -0.12119746281730233 -0.07483345785155426
          0.04205606946501498 -0.23016132900538774 -0.096972162112983 -0.10385673819494956 -0.08417048189308468 -0.08335931938834598
          -0.09942890283267171 -0.08236214529649953 -0.10752307745976873 -0.08910885302779208 -0.10677783029098159 -0.07677735526771967
          -0.11320353942414935 -0.085972690112043 -0.0857603322372995 -0.12655967445041277 -0.053335979721682254 -0.13109653092065085
          -0.0938954122991519 -0.07934845627128428 -0.09294086793590975 -0.04916043734675414 -0.1589710328870403 -0.13106299202482824
          -0.09746273169626049 0.04175374212145533 -0.28232098745071244 -0.08120857663042358 -0.049609223592078484 -0.16537728574419108
          -0.2573212056115126 -0.2967960257866966 -0.0582766476301238 -0.3291398518272657 -0.2429668546625853 -0.3254886719013342
          -0.4723238693700221 -0.7567785995936323 -0.12136160973713835 -0.6547115848037489 -0.486020330549166 -0.9575913203106765
          -0.46075493665813877 -0.31655746750819 -0.7690991210130703 -0.5988837753790199 -0.884021292614505 -2.2498833890237893
          -0.7951434037963874 -1.2228629109793645 0.013713585346563584 -0.8490526913308587 -2.6277551434150355 -0.9165459666442968
          -1.3855319370571706 -0.5652818045203732 -3.397918954776153 -1.0713228793883531 -4.9341358228836 -3.7875953473172146
          -2.1750214141165145 -10.606034588777092 -4.009559357421038 -11.072942487193561 -1.311832967146253 -13.227069319661826
          -0.8918024979815404 -1.654552077684116 -14.703166948318023 -3.1257683209515017 -5.92478031517096 -10.266064011949766
          -0.7060025036847764 -1.948249360117585 -2.66899655705005 -1.6894206840848176 -2.5423183605808712 -0.9106044609337347
          -2.120461223103838 -1.9665925663761867 -1.608629445250721 -1.3880671102314581 -0.010342973767169084 -0.16391784999234946
          0.35918198153250736 -7.599769881853234 -5.0986826856679315 -1.312156596296009 -1.1549373594671464 -7.935701996714805
          -5.488749131075629
        </DataArray>
        <DataArray type="Float64" Name="BTraction" NumberOfComponents="3" format="ascii" RangeMin="0" RangeMax="5.199903409933946">
          -0.05150370258076357 0.017642276864440472 0 0.006614864683836691 0.11206893730947066 0
          -0.09474454428756429 0.0011401380924389083 0 0 0 0
          0 0 0 0.002080277623509542 0.08932488293672787 0
          -0.03521890926028623 -0.032113056640786806 0 0.0051006325842841566 -0.16425663599846274 0
          0 0 0 0 0 0
          0.00010644752389545498 0.08193461153728711 0 -0.002325532263630412 -0.10887545659728001 0
          -0.0005788677514114264 -0.09739853146048359 0 -0.0000953494768671019 0.08184285232745568 0
          0 0 0 0 0 0
          0.0004650245534106917 -0.10875227239064675 0 -0.00012974392265346698 0.0747057657217577 0
          0 0 0 0 0 0
          0 0 0 0.0012139268619887006 -0.11949625990472945 0
          -0.00033889009646484626 0.057916667940804197 0 0 0 0
          0 0 0 0 0 0
          0.0030086776188105106 -0.12944435275556557 0 5.344097631762556e-7 0.05580038957769022 0
          0 0 0 0 0 0
          0 0 0 0 0 0
          0.009107037541658296 -0.252489763252856 0 -0.002705762904015306 0.013679011026952561 0
          0 0 0 0 0 0
          0 0 0 0.013977803483678641 -0.33038676302045755 0
          0 0 0 0 0 0
          0 0 0 0 0 0
          0 0 0 0 0 0
          0 0 0 0 0 0
          0.03738662334414933 -0.5090293312241208 0 0 0 0
          0 0 0 0 0 0
          0 0 0 0 0 0
          0 0 0 0 0 0
          0 0 0 0 0 0
          0 0 0 0 0 0
          0 0 0 0.05479667806892758 -0.7794648626523606 0
          0 0 0 0 0 0
          0 0 0 0 0 0
          0 0 0 0 0 0
          0 0 0 0 0 0
          0 0 0 0 0 0
          0 0 0 0 0 0
          0.021404477207759117 -0.8054998011682227 0 0 0 0
          0 0 0 0 0 0
          0 0 0 0 0 0
          -0.028250763154692608 -0.6874034864578574 0 0 0 0
          0 0 0 0 0 0
          -2.6818528001466606 -0.27961919647785666 0 -0.0016848650472247033 -0.9024606661041888 0
          -2.1164447552887045 0.012791419191462905 0 -1.9564077397711541 0.047442113410155445 0
          -1.6418669696177857 0.021240257250047048 0 -0.7072009161539325 -0.6019155610893376 0
          0 0 0 0 0 0
          -0.005738914733555191 -0.1533838553639478 0 0 0 0
          0 0 0 0 0 0
          0 0 0 0 0 0
          -5.187805046510208 -0.3545056727979051 0
          <InformationKey name="L2_NORM_RANGE" location="vtkDataArray" length="2">
            <Value index="0">
              0
            </Value>
            <Value index="1">
              5.1999034099
            </Value>
          </InformationKey>
        </DataArray>
        <DataArray type="Float64" Name="Sigma" NumberOfComponents="6" format="ascii" RangeMin="0.00007816787453511701" RangeMax="0.6796089098060203">
          -0.03540831831912497 0.0356405701307986 0 0.011895001310289897 0 0
          -0.0003139302514465706 0.00015021549635205775 0 0.006565997027998662 0 0
          -0.008633249215914813 0.008636612131918011 0 0.0012319424504806335 0 0
          0.0014770459074809087 -0.0013221037951096988 0 0.0008081708682332017 0 0
          -0.0018670369770552586 0.0017599269131307461 0 -0.003279959741608233 0 0
          0.0015451279345299188 -0.0016192193176486984 0 0.001530198680735603 0 0
          -0.01860098056335587 0.018493474545901913 0 -0.009981942557578982 0 0
          -0.0014948719995713088 0.0019970047639795204 0 -0.0064532174086216615 0 0
          -0.0008726681769751404 0.0008463822783377922 0 -0.0004458538730209174 0 0
          -0.0008505663108114107 0.0008394733695934539 0 -0.00041138198190293087 0 0
          0.00019779434806776978 -0.00016108731016662345 0 -0.00020512600988382247 0 0
          0.0026798535027884344 -0.0028902435559257436 0 0.00519101668636069 0 0
          0.0003116024708219016 -0.00021080034803979433 0 -0.00035765575503863114 0 0
          0.00003206659873570748 -0.000006292938354649936 0 -0.00007100949782758285 0 0
          0.00011902639844163283 -0.0001744339836719451 0 0.00010373762358780619 0 0
          0.00008989493098335676 -0.00008257623121720638 0 -0.00016451902503556397 0 0
          -0.0002920338206390805 0.00027187270097198536 0 -0.00028718715773760623 0 0
          -0.00006324550516710953 0.000050334983872158376 0 -0.00006768772612338962 0 0
          0.0002822193241350827 -0.00023234637912396882 0 -0.00035332561053334766 0 0
          -0.0002747659393524956 0.0003114186710293791 0 0.00038439353443364 0 0
          0.0002649069373043387 -0.00031417605084402126 0 0.0002269106076046921 0 0
          -0.0018651496364035217 0.0018073949249565642 0 -0.0014007750263268354 0 0
          -0.001528836006828759 0.0016416244659532744 0 -0.0004918984016520871 0 0
          0.001882241815576784 -0.0019565974038984217 0 -0.000012206714491415317 0 0
          -0.00008836681952309366 0.00017801567219429213 0 0.0017346247867785322 0 0
          -0.0029676154914693633 0.0028765664728857806 0 0.0010510547308017638 0 0
          -0.0016145583078809793 0.0018171786177446662 0 -0.0015709906583292119 0 0
          0.000930034481381012 -0.0009599239230518033 0 0.00000878288309335033 0 0
          0.0006676451488850975 -0.0007899142550067415 0 -0.0011678517386228542 0 0
          -0.00021456268022168774 -0.00013887346203264475 0 0.008145205153556526 0 0
          0.005097166552727187 -0.004742090766084917 0 0.0056331484181553655 0 0
          -0.009309117018925521 0.00981666069839687 0 0.001799990616377587 0 0
          -0.0004097664948037625 0.0005698702574393603 0 -0.011234329260742897 0 0
          -0.008832335824878215 0.00807969734240032 0 0.0005272708836566481 0 0
          -0.011715707234344327 0.011959378093613542 0 0.009800201626271909 0 0
          0.004320045196083045 -0.004486696221220046 0 0.017409589911177456 0 0
          0.012633901064628084 -0.01293994859211575 0 0.0028051356533882283 0 0
          -0.007438307276032459 0.007040879742088566 0 -0.00864917053328832 0 0
          -0.022408701629851095 0.022368597641552433 0 0.010749840323151686 0 0
          -0.009615124368708818 0.009320261303504638 0 0.04168670488655643 0 0
          0.026300131333807604 -0.02536770480274415 0 0.027974469256637643 0 0
          -0.05255798553111151 0.05216174006105069 0 0.03695099680214077 0 0
          0.028181001432951974 -0.02798894907073171 0 -0.013376004151662874 0 0
          0.017386660431618593 -0.01933315013048602 0 0.014398714844974429 0 0
          -0.028455787223618752 0.030490697009977842 0 0.07829240330201263 0 0
          0.06067364717943178 -0.06292387340987872 0 0.1219469377693359 0 0
          -0.0066360769040394365 0.00839994506384399 0 -0.03941299896358846 0 0
          -0.07011504203252493 0.07169321936684311 0 0.07289369149964733 0 0
          0.04636136725931628 -0.04551085699960712 0 0.033645227918401195 0 0
          0.05397039301353761 -0.05204856363795586 0 -0.0058191183474518154 0 0
          -0.021226063373845958 0.02537769588099739 0 0.12591179831587168 0 0
          0.002209776551538128 -0.00236994068422634 0 -0.0019337069008469408 0 0
          0.02202821063985769 -0.02211013820517303 0 0.0521150034497439 0 0
          -0.07834461618335024 0.07161628810107229 0 0.024456092949288397 0 0
          0.09277465366431065 -0.09790447753147248 0 -0.001716926611257488 0 0
          0.06334478365934018 -0.06490647387544024 0 0.10943377146123735 0 0
          -0.13653091035008352 0.13459339907948922 0 0.10148787649572512 0 0
          0.08254466305926877 -0.0805324092408987 0 0.049283987309979016 0 0
          0.05719372994307019 -0.0563512333569687 0 0.31559440977012454 0 0
          0.07068085376604283 -0.0732949262893075 0 -0.06545240607460336 0 0
          0.14210627237312384 -0.1435542949429258 0 0.08712679571530049 0 0
          0.010668483387918875 -0.0073420596413909444 0 -0.03587649516887189 0 0
          -0.2575363698890917 0.2610942880506485 0 0.3382293926017707 0 0
          0.02926272391260599 -0.026719769836775025 0 -0.004536336170486922 0 0
          0.28013066396819664 -0.2752584671227859 0 0.2770410155809666 0 0
          -0.2763812003784377 0.2802341085994087 0 -0.07576732613704357 0 0
          0.12671690876729594 -0.13165395306223987 0 -0.09150538995698382 0 0
          -0.0898438093665292 0.08816554188887497 0 -0.038050726180456906 0 0
          0.3419278203512987 -0.33708704320528343 0 -0.07883522582090746 0 0
          0.004970184037118394 0.00008668253675031545 0 -0.36147794101597464 0 0
          0.05801282216662909 -0.057947010098910554 0 -0.048412830515340476 0 0
          -0.032900666096990466 0.02917777619022255 0 -0.042312033031710765 0 0
          0.049323530713201745 -0.049692238541505576 0 -0.026324795188266713 0 0
          0.0026074817015295806 -0.00011539715741992794 0 -0.036867116192707716 0 0
          0.15676749648455995 -0.16308430726653228 0 -0.11421243069002841 0 0
          -0.026225411374192445 0.022365309565718788 0 -0.15836475850758122 0 0
          -0.06764636039170363 0.07349787581348578 0 -0.4132189381153458 0 0
          -0.10524991679823031 0.08582807257864772 0 -0.10382219848828822 0 0
          0.09918056906084316 -0.10075499908073153 0 0.050123153228171 0 0
          -0.029733965552229152 0.032487996274072145 0 -0.0552045957579461 0 0
          -0.08521940990147492 0.08648368614266558 0 -0.07812888563013427 0 0
          0.024964093588301248 -0.028836782809851236 0 -0.034720055905995285 0 0
          -0.4021457951611266 0.41724925245642897 0 0.35503533774330676 0 0
          0.05723730826056224 -0.047801461616278365 0 -0.002991736815343993 0 0
          0.022118603257076264 -0.030297168117040838 0 -0.0991624040463138 0 0
          0.01905938625607005 -0.020725166662677718 0 -0.041615097761488785 0 0
          0.01020215000966254 -0.0074085390743344574 0 -0.013391994031119958 0 0
          -0.02159801524316068 0.007212671236524889 0 -0.031885190544072475 0 0
          -0.026124007498512472 0.027276214978377924 0 0.00548710881274045 0 0
          -0.054358670107415144 0.05155799922459616 0 -0.017259504155824418 0 0
          -0.02101749997843328 0.021925664785308063 0 -0.01904327691426607 0 0
          0.2461305307587317 -0.24324982259675293 0 0.016404764784417214 0 0
          -0.07039141685654979 0.05806638086346283 0 -0.23877668589877124 0 0
          -0.1286924823172778 0.13289292712268247 0 -0.2764083685873046 0 0
          -0.3080261958562366 0.30724457892030416 0 0.11363348333013133 0 0
          0.05504790694984487 -0.05236619989039503 0 0.4723969674077517 0 0
          0.14563451680963105 -0.13268371428052145 0 0.39137000978934033 0 0
          <InformationKey name="L2_NORM_RANGE" location="vtkDataArray" length="2">
            <Value index="0">
              7.8167874535e-05
            </Value>
            <Value index="1">
              0.67960890981
            </Value>
          </InformationKey>
        </DataArray>
        <DataArray type="Float64" Name="ALEdispl" NumberOfComponents="3" format="ascii" RangeMin="0" RangeMax="0">
          0 0 0 0 0 0
          0 0 0 0 0 0
          0 0 0 0 0 0
          0 0 0 0 0 0
          0 0 0 0 0 0
          0 0 0 0 0 0
          0 0 0 0 0 0
          0 0 0 0 0 0
          0 0 0 0 0 0
          0 0 0 0 0 0
          0 0 0 0 0 0
          0 0 0 0 0 0
          0 0 0 0 0 0
          0 0 0 0 0 0
          0 0 0 0 0 0
          0 0 0 0 0 0
          0 0 0 0 0 0
          0 0 0 0 0 0
          0 0 0 0 0 0
          0 0 0 0 0 0
          0 0 0 0 0 0
          0 0 0 0 0 0
          0 0 0 0 0 0
          0 0 0 0 0 0
          0 0 0 0 0 0
          0 0 0 0 0 0
          0 0 0 0 0 0
          0 0 0 0 0 0
          0 0 0 0 0 0
          0 0 0 0 0 0
          0 0 0 0 0 0
          0 0 0 0 0 0
          0 0 0 0 0 0
          0 0 0 0 0 0
          0 0 0 0 0 0
          0 0 0 0 0 0
          0 0 0 0 0 0
          0 0 0 0 0 0
          0 0 0 0 0 0
          0 0 0 0 0 0
          0 0 0 0 0 0
          0 0 0 0 0 0
          0 0 0 0 0 0
          0 0 0 0 0 0
          0 0 0 0 0 0
          0 0 0 0 0 0
          0 0 0 0 0 0
          0 0 0 0 0 0
          0 0 0
          <InformationKey name="L2_NORM_RANGE" location="vtkDataArray" length="2">
            <Value index="0">
              0
            </Value>
            <Value index="1">
              0
            </Value>
          </InformationKey>
        </DataArray>
        <DataArray type="Float64" Name="ALEveloc" NumberOfComponents="3" format="ascii" RangeMin="0" RangeMax="0">
          0 0 0 0 0 0
          0 0 0 0 0 0
          0 0 0 0 0 0
          0 0 0 0 0 0
          0 0 0 0 0 0
          0 0 0 0 0 0
          0 0 0 0 0 0
          0 0 0 0 0 0
          0 0 0 0 0 0
          0 0 0 0 0 0
          0 0 0 0 0 0
          0 0 0 0 0 0
          0 0 0 0 0 0
          0 0 0 0 0 0
          0 0 0 0 0 0
          0 0 0 0 0 0
          0 0 0 0 0 0
          0 0 0 0 0 0
          0 0 0 0 0 0
          0 0 0 0 0 0
          0 0 0 0 0 0
          0 0 0 0 0 0
          0 0 0 0 0 0
          0 0 0 0 0 0
          0 0 0 0 0 0
          0 0 0 0 0 0
          0 0 0 0 0 0
          0 0 0 0 0 0
          0 0 0 0 0 0
          0 0 0 0 0 0
          0 0 0 0 0 0
          0 0 0 0 0 0
          0 0 0 0 0 0
          0 0 0 0 0 0
          0 0 0 0 0 0
          0 0 0 0 0 0
          0 0 0 0 0 0
          0 0 0 0 0 0
          0 0 0 0 0 0
          0 0 0 0 0 0
          0 0 0 0 0 0
          0 0 0 0 0 0
          0 0 0 0 0 0
          0 0 0 0 0 0
          0 0 0 0 0 0
          0 0 0 0 0 0
          0 0 0 0 0 0
          0 0 0 0 0 0
          0 0 0
          <InformationKey name="L2_NORM_RANGE" location="vtkDataArray" length="2">
            <Value index="0">
              0
            </Value>
            <Value index="1">
              0
            </Value>
          </InformationKey>
        </DataArray>
      </PointData>
      <CellData>
        <DataArray type="UInt8" Name="vtkGhostType" format="ascii" RangeMin="0" RangeMax="0">
          0 0 0 0 0 0
          0 0 0 0 0 0
          0 0 0 0 0 0
          0 0 0 0 0 0
          0 0 0 0 0 0
          0 0 0 0 0 0
          0 0 0 0 0 0
          0 0 0 0 0 0
          0 0 0 0 0 0
          0 0 0 0 0 0
          0 0 0 0 0 0
          0 0 0 0 0 0
          0 0 0 0 0 0
          0 0 0 0 0 0
          0 0 0 0 0 0
          0 0 0 0 0 0
          0 0 0 0 0 0
          0 0 0 0 0 0
          0 0 0 0 0 0
          0 0 0 0 0 0
          0 0 0 0 0 0
          0 0 0 0 0 0
          0 0 0 0 0 0
          0 0 0 0 0 0
          0 0 0 0 0 0
          0 0 0 0
        </DataArray>
        <DataArray type="Float64" Name="PStrain" NumberOfComponents="6" format="ascii" RangeMin="0.1732050807568877" RangeMax="0.1732050807568877">
          0.09999999999999999 0.09999999999999999 0 0.09999999999999999 0 0
          0.09999999999999999 0.09999999999999999 0 0.09999999999999999 0 0
          0.09999999999999999 0.09999999999999999 0 0.09999999999999999 0 0
          0.09999999999999999 0.09999999999999999 0 0.09999999999999999 0 0
          0.09999999999999999 0.09999999999999999 0 0.09999999999999999 0 0
          0.09999999999999999 0.09999999999999999 0 0.09999999999999999 0 0
          0.09999999999999999 0.09999999999999999 0 0.09999999999999999 0 0
          0.09999999999999999 0.09999999999999999 0 0.09999999999999999 0 0
          0.09999999999999999 0.09999999999999999 0 0.09999999999999999 0 0
          0.09999999999999999 0.09999999999999999 0 0.09999999999999999 0 0
          0.09999999999999999 0.09999999999999999 0 0.09999999999999999 0 0
          0.09999999999999999 0.09999999999999999 0 0.09999999999999999 0 0
          0.09999999999999999 0.09999999999999999 0 0.09999999999999999 0 0
          0.09999999999999999 0.09999999999999999 0 0.09999999999999999 0 0
          0.09999999999999999 0.09999999999999999 0 0.09999999999999999 0 0
          0.09999999999999999 0.09999999999999999 0 0.09999999999999999 0 0
          0.09999999999999999 0.09999999999999999 0 0.09999999999999999 0 0
          0.09999999999999999 0.09999999999999999 0 0.09999999999999999 0 0
          0.09999999999999999 0.09999999999999999 0 0.09999999999999999 0 0
          0.09999999999999999 0.09999999999999999 0 0.09999999999999999 0 0
          0.09999999999999999 0.09999999999999999 0 0.09999999999999999 0 0
          0.09999999999999999 0.09999999999999999 0 0.09999999999999999 0 0
          0.09999999999999999 0.09999999999999999 0 0.09999999999999999 0 0
          0.09999999999999999 0.09999999999999999 0 0.09999999999999999 0 0
          0.09999999999999999 0.09999999999999999 0 0.09999999999999999 0 0
          0.09999999999999999 0.09999999999999999 0 0.09999999999999999 0 0
          0.09999999999999999 0.09999999999999999 0 0.09999999999999999 0 0
          0.09999999999999999 0.09999999999999999 0 0.09999999999999999 0 0
          0.09999999999999999 0.09999999999999999 0 0.09999999999999999 0 0
          0.09999999999999999 0.09999999999999999 0 0.09999999999999999 0 0
          0.09999999999999999 0.09999999999999999 0 0.09999999999999999 0 0
          0.09999999999999999 0.09999999999999999 0 0.09999999999999999 0 0
          0.09999999999999999 0.09999999999999999 0 0.09999999999999999 0 0
          0.09999999999999999 0.09999999999999999 0 0.09999999999999999 0 0
          0.09999999999999999 0.09999999999999999 0 0.09999999999999999 0 0
          0.09999999999999999 0.09999999999999999 0 0.09999999999999999 0 0
          0.09999999999999999 0.09999999999999999 0 0.09999999999999999 0 0
          0.09999999999999999 0.09999999999999999 0 0.09999999999999999 0 0
          0.09999999999999999 0.09999999999999999 0 0.09999999999999999 0 0
          0.09999999999999999 0.09999999999999999 0 0.09999999999999999 0 0
          0.09999999999999999 0.09999999999999999 0 0.09999999999999999 0 0
          0.09999999999999999 0.09999999999999999 0 0.09999999999999999 0 0
          0.09999999999999999 0.09999999999999999 0 0.09999999999999999 0 0
          0.09999999999999999 0.09999999999999999 0 0.09999999999999999 0 0
          0.09999999999999999 0.09999999999999999 0 0.09999999999999999 0 0
          0.09999999999999999 0.09999999999999999 0 0.09999999999999999 0 0
          0.09999999999999999 0.09999999999999999 0 0.09999999999999999 0 0
          0.09999999999999999 0.09999999999999999 0 0.09999999999999999 0 0
          0.09999999999999999 0.09999999999999999 0 0.09999999999999999 0 0
          0.09999999999999999 0.09999999999999999 0 0.09999999999999999 0 0
          0.09999999999999999 0.09999999999999999 0 0.09999999999999999 0 0
          0.09999999999999999 0.09999999999999999 0 0.09999999999999999 0 0
          0.09999999999999999 0.09999999999999999 0 0.09999999999999999 0 0
          0.09999999999999999 0.09999999999999999 0 0.09999999999999999 0 0
          0.09999999999999999 0.09999999999999999 0 0.09999999999999999 0 0
          0.09999999999999999 0.09999999999999999 0 0.09999999999999999 0 0
          0.09999999999999999 0.09999999999999999 0 0.09999999999999999 0 0
          0.09999999999999999 0.09999999999999999 0 0.09999999999999999 0 0
          0.09999999999999999 0.09999999999999999 0 0.09999999999999999 0 0
          0.09999999999999999 0.09999999999999999 0 0.09999999999999999 0 0
          0.09999999999999999 0.09999999999999999 0 0.09999999999999999 0 0
          0.09999999999999999 0.09999999999999999 0 0.09999999999999999 0 0
          0.09999999999999999 0.09999999999999999 0 0.09999999999999999 0 0
          0.09999999999999999 0.09999999999999999 0 0.09999999999999999 0 0
          0.09999999999999999 0.09999999999999999 0 0.09999999999999999 0 0
          0.09999999999999999 0.09999999999999999 0 0.09999999999999999 0 0
          0.09999999999999999 0.09999999999999999 0 0.09999999999999999 0 0
          0.09999999999999999 0.09999999999999999 0 0.09999999999999999 0 0
          0.09999999999999999 0.09999999999999999 0 0.09999999999999999 0 0
          0.09999999999999999 0.09999999999999999 0 0.09999999999999999 0 0
          0.09999999999999999 0.09999999999999999 0 0.09999999999999999 0 0
          0.09999999999999999 0.09999999999999999 0 0.09999999999999999 0 0
          0.09999999999999999 0.09999999999999999 0 0.09999999999999999 0 0
          0.09999999999999999 0.09999999999999999 0 0.09999999999999999 0 0
          0.09999999999999999 0.09999999999999999 0 0.09999999999999999 0 0
          0.09999999999999999 0.09999999999999999 0 0.09999999999999999 0 0
          0.09999999999999999 0.09999999999999999 0 0.09999999999999999 0 0
          0.09999999999999999 0.09999999999999999 0 0.09999999999999999 0 0
          0.09999999999999999 0.09999999999999999 0 0.09999999999999999 0 0
          0.09999999999999999 0.09999999999999999 0 0.09999999999999999 0 0
          0.09999999999999999 0.09999999999999999 0 0.09999999999999999 0 0
          0.09999999999999999 0.09999999999999999 0 0.09999999999999999 0 0
          0.09999999999999999 0.09999999999999999 0 0.09999999999999999 0 0
          0.09999999999999999 0.09999999999999999 0 0.09999999999999999 0 0
          0.09999999999999999 0.09999999999999999 0 0.09999999999999999 0 0
          0.09999999999999999 0.09999999999999999 0 0.09999999999999999 0 0
          0.09999999999999999 0.09999999999999999 0 0.09999999999999999 0 0
          0.09999999999999999 0.09999999999999999 0 0.09999999999999999 0 0
          0.09999999999999999 0.09999999999999999 0 0.09999999999999999 0 0
          0.09999999999999999 0.09999999999999999 0 0.09999999999999999 0 0
          0.09999999999999999 0.09999999999999999 0 0.09999999999999999 0 0
          0.09999999999999999 0.09999999999999999 0 0.09999999999999999 0 0
          0.09999999999999999 0.09999999999999999 0 0.09999999999999999 0 0
          0.09999999999999999 0.09999999999999999 0 0.09999999999999999 0 0
          0.09999999999999999 0.09999999999999999 0 0.09999999999999999 0 0
          0.09999999999999999 0.09999999999999999 0 0.09999999999999999 0 0
          0.09999999999999999 0.09999999999999999 0 0.09999999999999999 0 0
          0.09999999999999999 0.09999999999999999 0 0.09999999999999999 0 0
          0.09999999999999999 0.09999999999999999 0 0.09999999999999999 0 0
          0.09999999999999999 0.09999999999999999 0 0.09999999999999999 0 0
          0.09999999999999999 0.09999999999999999 0 0.09999999999999999 0 0
          0.09999999999999999 0.09999999999999999 0 0.09999999999999999 0 0
          0.09999999999999999 0.09999999999999999 0 0.09999999999999999 0 0
          0.09999999999999999 0.09999999999999999 0 0.09999999999999999 0 0
          0.09999999999999999 0.09999999999999999 0 0.09999999999999999 0 0
          0.09999999999999999 0.09999999999999999 0 0.09999999999999999 0 0
          0.09999999999999999 0.09999999999999999 0 0.09999999999999999 0 0
          0.09999999999999999 0.09999999999999999 0 0.09999999999999999 0 0
          0.09999999999999999 0.09999999999999999 0 0.09999999999999999 0 0
          0.09999999999999999 0.09999999999999999 0 0.09999999999999999 0 0
          0.09999999999999999 0.09999999999999999 0 0.09999999999999999 0 0
          0.09999999999999999 0.09999999999999999 0 0.09999999999999999 0 0