<?xml version="1.0"?>
<VTKFile type="UnstructuredGrid" version="0.1" byte_order="LittleEndian" header_type="UInt32" compressor="vtkZLibDataCompressor">
  <UnstructuredGrid>
    <Piece NumberOfPoints="97" NumberOfCells="154">
      <PointData>
        <DataArray type="Float64" Name="Velocity" NumberOfComponents="3" format="ascii" RangeMin="0" RangeMax="4.939719720129643">
          0.6616126348425637 0.5264351243449176 0 1.1502633205246255 0 0
          0.8597841195423321 -0.008297955880261831 0 0.9556514775072775 0.030464656829489987 0
          1.056522753020334 0.05701740279214672 0 0.9954798552079275 0 0
          0.7391401607699865 -0.47891226457255204 0 1.06357643693788 0 0
          1.0006406845750677 -0.04216130705167865 0 1.0035653613372473 0.004026452564384705 0
          0.9991037709672002 0 0 0.9620075630117595 0 0
          1.0092082066677759 0 0 0.9977464947333644 0 0
          0.9966370489474378 0.002505692182566158 0 0.9979356214589099 0.0024584366315907784 0
          1.003628364474167 0 0 0.9931076024150783 0 0
          1.0028863314847225 0.004194277590544899 0 0.9960181518247261 -0.0006909159174870399 0
          0.9996680406197721 -0.0010015177849201824 0 1.0135164661331542 0 0
          0.9913240198907718 0 0 1.0016995122593626 0.012373883444759416 0
          0.9978909774906924 -0.01972143566024318 0 0.9999763286610949 -0.008936915303410918 0
          1.0280612120880752 0 0 1.0300716060161483 0 0
          0.9767220636969122 -0.00696441729661271 0 1.0194555426336305 -0.06617428697293687 0
          0.9725047884345747 -0.042489337322296164 0 1.017597436096091 -0.03949194033158322 0
          1.0889649712331033 0 0 1.0515592787778532 0 0
          1.0442263978035955 -0.16180053096813637 0 0.9416481141600608 -0.182376331462319 0
          0.9256622120221131 -0.000053389734106993984 0 1.0130330864665182 0 0
          1.24858539249722 -0.19397405434969123 0 1.0436312700646329 -0.3798679311935391 0
          0.7610969880042023 -0.3445073578111954 0 1.2356687577012555 -0.5829178569046384 0
          0.8165871472577182 -0.07269507960051894 0 1.0380791486665455 -0.7642903542251995 0
          1.0504149877671354 -0.5057016541155595 0 0.6209126052991856 -0.39999666106209025 0
          1.1802367056271108 0 0 1.2332087988126919 -0.6511230362658317 0
          0.528787817940901 -0.20706094980471562 0 1.6793727936270584 -0.6501471982135133 0
          0.9029732189013697 -1.0408636925355057 0 0.7279653794936485 0.03913386375210067 0
          0.46577768511575174 -0.7732108703774082 0 1.6123693173024427 -1.1662666988372876 0
          0.6623524400841562 -0.3023154200751789 0 0.6671334521357613 -1.1346270339012838 0
          1.31837381092544 -0.7576297788656253 0 0.2849712752797 -0.5895460015123273 0
          1.0390493058216153 -1.6540434600916225 0 1.3949774623104407 0 0
          0.25404034510275425 -1.1692246171573875 0 0.4104777277024994 -0.2523476663956975 0
          1.3773632512570262 -1.4296088458190883 0 -0.11456961434659022 -0.5891119390193676 0
          0.2970171509592827 -1.6156471822819 0 2.5219690245435293 -1.3252429609210434 0
          0.15011330814347046 -0.712672293516014 0 1.252779858103732 -2.9159609405816083 0
          -0.5679185199634051 -1.1322895160233837 0 3.5679865023855033 -3.416182552533243 0
          0.8954530983269022 -0.37142747846061663 0 -1.0149208930706712 -2.8215256153792208 0
          0.9235726839573861 0 0 -0.007714059655477289 -0.38641073764095757 0
          1.469316431643632 -1.3481015853703495 0 -0.6192562730445539 -0.9512127557783204 0
          -1.0188496192257814 0.025696689992223867 0 -1.6749040082783808 0.9344748843587538 0
          0.11433193631151736 0 0 0.2136927459369594 -0.36090800978451143 0
          -0.37943152445402784 -0.09515223575876625 0 -0.011947543093905786 -0.6230522552292473 0
          0 0 0 0.19376557767590163 0 0
          0 0 0 0 0 0
          0 0 0 0 0 0
          1.3262218866512252 -0.10445287234447544 0 1.5373574945081407 -0.33877955972285984 0
          1.0775645026136234 0 0 2.267027477610562 0.5098524846738407 0
          2.221752035293748 -1.5951471787415241 0 2.811778837099802 -1.1768826958396859 0
          1.1789429104121685 -0.9011896598461475 0 1.318964710746042 3.6716627620545292 0
          0 0 0
          <InformationKey name="L2_NORM_RANGE" location="vtkDataArray" length="2">
            <Value index="0">
              0
            </Value>
            <Value index="1">
              4.9397197201
            </Value>
          </InformationKey>
        </DataArray>
        <DataArray type="Float64" Name="Pressure" format="ascii" RangeMin="-20.69046734624485" RangeMax="0.27252573832103355">
          0.07662778623274409 -0.18370389342640697 0.1195764877599712 -0.1452392498725609 -0.15325147871400657 -0.08428569593289982
          0.06148534238232217 -0.3072869394920321 -0.12155325702271211 -0.13364176035502773 -0.11045922728100438 -0.09662516559135322
          -0.14125930003986065 -0.11203500705789417 -0.1306254943429776 -0.11804668488763201 -0.127233101465186 -0.10916743586326197
          -0.13514293000611244 -0.11586973327277249 -0.11913370522461045 -0.14043318018580397 -0.0850917831193984 -0.14946519197961483
          -0.12252871161838103 -0.10110033754638173 -0.09939616636185021 -0.10668514900976497 -0.15384617503055775 -0.1327478891222179
          -0.09993205969538138 -0.015750095671893807 -0.22177136788301519 -0.11603041522545518 -0.07037787762681477 -0.12389305060207746
          -0.1601256894066278 -0.08238002380478618 -0.1965840571954252 -0.19542516041520908 -0.16205620648063992 -0.272906449646284
          -0.24088163461112877 -0.47440373365914706 -0.10393823797282538 -0.13816377668911276 -0.23516004906374927 -0.6604440727213075
          -0.18095725061724122 -1.2199786442383145 -0.4944958805707669 -0.272984675351946 -0.43374036188182463 -2.0063932881873705
          -0.518756433413702 -0.6593583430432766 -0.2667146938265952 -0.3702627520998538 -2.547013670721971 -0.7451906130084044
          -1.0642069104634793 -0.193351145721569 -0.8743847391239272 -0.6039462131833752 -2.143822745485428 -4.346840983038609
          -1.218775727954983 -4.740573886466258 -2.512642733630483 -13.573194807075861 -0.9141182197860418 -10.643332493510767
          -0.4626380478134228 -0.9222117880628286 -20.69046734624485 -2.1976086632701115 -4.411782928911572 -13.658513632826303
          0.1110809657482697 -0.7785980856512005 -1.547718526085606 -0.5704235752617364 -1.7905368582250305 0.27252573832103355
          -0.8564535760879166 -0.7455671921343067 -0.2139649569493154 0.0859993898419189 -0.187591689406617 -0.016042362123765863
          0.20894594575796965 -9.619576674809883 -0.3538326306538284 -4.273917428280038 -0.5239845004438183 -16.242196618095196
          -5.3451029349811545
        </DataArray>
        <DataArray type="Float64" Name="BTraction" NumberOfComponents="3" format="ascii" RangeMin="0" RangeMax="5.240275101977372">
          -0.05883811189722298 0.021955842172017348 0 0.0072371050461118615 0.1313470078049485 0
          -0.11934880624437376 0.0014359519246904893 0 0 0 0
          0 0 0 0.002252116283879828 0.10413927835866499 0
          -0.04742925783997824 -0.03852984240241849 0 0.006254914874898242 -0.21481124436994325 0
          0 0 0 0 0 0
          0.0001289320093803734 0.1057979889581049 0 -0.0027864082292086427 -0.1375587108177648 0
          -0.0005964413083393168 -0.13078908942461012 0 -0.00011095498803186433 0.11129871477463799 0
          0 0 0 0 0 0
          0.0004010541233095341 -0.13221575010303557 0 -0.0002005144533534755 0.10637867312592851 0
          0 0 0 0 0 0
          0 0 0 0.000892631309720305 -0.13343482956671157 0
          -0.0001305848822708811 0.09346080434445553 0 0 0 0
          0 0 0 0 0 0
          0.003042676603407388 -0.1270627035985129 0 0.0004235473563401119 0.10532932329500838 0
          0 0 0 0 0 0
          0 0 0 0 0 0
          0.0086648989331511 -0.180421022093512 0 -0.004160981898013612 0.06959115496054748 0
          0 0 0 0 0 0
          0 0 0 0.01193713731969842 -0.13717891810971178 0
          0 0 0 0 0 0
          0 0 0 0 0 0
          0 0 0 0 0 0
          0 0 0 0 0 0
          0.043379511810388904 -0.27969136818422347 0 0 0 0
          0 0 0 0 0 0
          0 0 0 0 0 0
          0 0 0 0 0 0
          0 0 0 0 0 0
          0 0 0 0 0 0
          0 0 0 0.06459723511584602 -0.5657505203337412 0
          0 0 0 0 0 0
          0 0 0 0 0 0
          0 0 0 0 0 0
          0 0 0 0 0 0
          0 0 0 0 0 0
          0 0 0 0 0 0
          0.01980275888713303 -0.36281707775740807 0 0 0 0
          0 0 0 0 0 0
          0 0 0 0 0 0
          -0.03531040942228666 0.12687089824769576 0 0 0 0
          0 0 0 0 0 0
          -1.9061810040854033 -0.2289643372214648 0 0.0007485842104009108 0.27217519531727097 0
          -0.9579585399456367 0.08151417357974708 0 -0.7018997160892582 0.06531244408895137 0
          -0.2646577589926875 0.02681428485865342 0 0.01262293912291279 0.10364275752609033 0
          0 0 0 0 0 0
          -0.005527772195793901 -0.011225196336176295 0 0 0 0
          0 0 0 0 0 0
          0 0 0 0 0 0
          -5.2074728987854995 -0.5854136595762867 0
          <InformationKey name="L2_NORM_RANGE" location="vtkDataArray" length="2">
            <Value index="0">
              0
            </Value>
            <Value index="1">
              5.240275102
            </Value>
          </InformationKey>
        </DataArray>
        <DataArray type="Float64" Name="Sigma" NumberOfComponents="6" format="ascii" RangeMin="0.00011783671639223898" RangeMax="1.027219037353912">
          -0.03834067271492388 0.03854354965142372 0 0.012929578013457474 0 0
          -0.0024539106911892184 0.00229310641571279 0 0.007217697678954278 0 0
          -0.010393220759207643 0.010405744024927782 0 0.001542495346138539 0 0
          0.0027768225801269447 -0.0026052331722208172 0 0.0006476989869995221 0 0
          -0.0022218480452591994 0.0021079405322464374 0 -0.0036839422777251796 0 0
          0.0020096641897820356 -0.002107411890367523 0 0.001622261547396586 0 0
          -0.019760202059537043 0.019617693969063904 0 -0.01048384784986869 0 0
          -0.0013783750611657038 0.0019399723744904288 0 -0.008370843789427877 0 0
          -0.0009178321023112013 0.0008854569980773299 0 -0.00024304983465771557 0 0
          -0.0014025868957394626 0.0013850901241397717 0 -0.00043445579518080297 0 0
          0.0003880507378426222 -0.0003336931412634271 0 -0.0001940461652616523 0 0
          0.002567005903784464 -0.002797698424525694 0 0.006437733758190757 0 0
          0.0005580779176731958 -0.00044381566710431744 0 -0.0006616418680833004 0 0
          -0.00005808879550650976 0.00007250608923917604 0 -0.00007248483006773551 0 0
          0.00019220901085813767 -0.000251757145543329 0 0.00018745424332993136 0 0
          0.00013947193160001735 -0.00012043833941262833 0 -0.0002221174609798109 0 0
          -0.0004416936773765718 0.000412030424622017 0 -0.00021251843582165193 0 0
          0.00003098904051803527 -0.00004162695376617696 0 -0.00018020964788251854 0 0
          0.00021974187250736025 -0.00016762516259193313 0 -0.00040885585852092966 0 0
          -0.00019798929051728154 0.0002458003090488463 0 0.00024811334903352637 0 0
          0.00024239675226248614 -0.00031448744838187694 0 0.00028851810623781816 0 0
          -0.0016526387941050297 0.0016021706264757213 0 -0.0009240498187629577 0 0
          -0.0010408500363359061 0.0011816291747447734 0 -0.0004606697777550343 0 0
          0.0014211189710642272 -0.0015103310377884305 0 -0.0002462431504459805 0 0
          -0.00007517970814142653 0.00014040433923095778 0 0.0014359557847920161 0 0
          -0.0021027273559113715 0.002050389668047263 0 0.0003382750958378359 0 0
          -0.0015363298260767156 0.0017593173991055486 0 -0.0016454275701190898 0 0
          0.0002515994129601717 -0.0003933512647860089 0 0.001378877154210684 0 0
          0.000661774408307027 -0.0007227870090327404 0 -0.0007161882047405687 0 0
          -0.00056806772535339 0.00023496714683825674 0 0.006972692975195406 0 0
          0.004323447423728602 -0.004038161503219829 0 0.003747433465666539 0 0
          -0.007368566837579076 0.007912612863263483 0 0.0024322640562430367 0 0
          -0.0011068954595442478 0.0010722407235788222 0 -0.01170042721597172 0 0
          -0.007483233348918725 0.006927247393131345 0 -0.0026586941493476103 0 0
          -0.008715890897848511 0.008991904739407558 0 0.005887634045183308 0 0
          0.005325505728586264 -0.005431579533559134 0 0.01678696150768383 0 0
          0.010145881793481101 -0.010288781564336295 0 0.0022517777612377655 0 0
          -0.007144360119287798 0.006740080419587611 0 -0.0036911765611390623 0 0
          -0.02049147974120484 0.019904195984320968 0 0.011425378411854903 0 0
          -0.013166199410290028 0.013229492765815839 0 0.03737105203129866 0 0
          0.024038647167189037 -0.02380613658281729 0 0.019279695518968805 0 0
          -0.038450988282429835 0.03964026272370389 0 0.02813953177765134 0 0
          0.024142674692708404 -0.023809782065997313 0 -0.013847928671889777 0 0
          0.02263433610113227 -0.024458303217537624 0 0.017738195722984806 0 0
          -0.014096049828776927 0.013573994088534425 0 0.057667705533737006 0 0
          0.04947823483780882 -0.051269262032961525 0 0.11513135512471456 0 0
          -0.007952288022270718 0.00966367886039711 0 -0.04687688617812431 0 0
          -0.16103245418889398 0.1698253161387217 0 0.0845627900722614 0 0
          0.0413218614448149 -0.03941571517183067 0 0.02367798308851161 0 0
          0.10048880359176358 -0.10847370678869672 0 0.02793321982134042 0 0
          -0.025557341066875867 0.03237580269014525 0 0.1410786009730357 0 0
          -0.004591123783457983 0.0049055253518256094 0 -0.0050258021833763655 0 0
          0.0377584403308637 -0.03867203215143715 0 0.07332521851906067 0 0
          -0.023469273035842182 0.014027852333056264 0 0.013997582420415459 0 0
          0.08984472726742274 -0.09620948371245722 0 0.014020752261956591 0 0
          0.0335545792854125 -0.03110534016606015 0 0.04555227040225159 0 0
          0.052139049389385836 -0.05479396109625145 0 -0.08226514563987183 0 0
          0.06174621987055446 -0.0600504503610543 0 0.02298404508827081 0 0
          -0.016851457405542798 0.010987102442123739 0 0.1652995450630298 0 0
          0.053184565992937166 -0.05706573994267132 0 -0.07892406888584794 0 0
          0.06864586769354282 -0.06891334097353535 0 0.02610322195993196 0 0
          0.012261729770038997 -0.007350409166767042 0 -0.02847175897860587 0 0
          -0.37493136837379704 0.38219632346433485 0 0.34192489844747703 0 0
          0.025645552493251983 -0.02422877299500929 0 -0.011671973921943463 0 0
          0.3154030769854051 -0.32148787448296196 0 0.3436779438492782 0 0
          -0.3528027061069182 0.35664257927564136 0 0.20731360386438336 0 0
          0.1281564953755174 -0.12932327244271025 0 0.027415054102267314 0 0
          0.03384468490664095 -0.019040979329992547 0 0.4398305674195801 0 0
          0.2445084058939315 -0.24059564082333684 0 -0.06384442857502008 0 0
          -0.12889062221061795 0.11286357832842314 0 -0.22443501348165412 0 0
          0.05715789909111804 -0.056346474054844595 0 -0.025934271414218307 0 0
          0.3122662102370801 -0.3102812324458808 0 0.10973088004324673 0 0
          0.048323039906468176 -0.04961731433951345 0 -0.022736722997886684 0 0
          0.003431323943905544 -0.0023678181574255793 0 -0.055777654755286725 0 0
          -0.010787869898002712 0.003930925474393734 0 -0.20474005148299812 0 0
          0.02950813904795684 -0.034153694515561175 0 -0.09223190110361118 0 0
          -0.029309787814125094 0.02707293730283532 0 -0.5020321827526371 0 0
          -0.1401622712055658 0.13080216011193238 0 -0.3858936503316282 0 0
          0.11144059434427118 -0.11383130965042507 0 0.060459260025525915 0 0
          -0.027518965188973978 0.03338474528841886 0 -0.04017229144824965 0 0
          -0.040507681136149394 0.0388594327589431 0 -0.06334951782469633 0 0
          0.04261989249420527 -0.04698668722654597 0 -0.03954485889805572 0 0
          -0.3323951051461268 0.35365970553570947 0 0.2261625938944194 0 0
          0.0674871506347739 -0.055130925598494016 0 -0.006041899450228036 0 0
          0.02132841676782451 -0.027182405308662463 0 -0.16756280347386243 0 0
          0.021624914906682238 -0.027158951062361054 0 -0.049500473093522075 0 0
          0.007758653815334568 -0.004674368529823722 0 -0.016371829378556812 0 0
          -0.013386069067182326 -0.0052574773974470804 0 -0.04575419602025314 0 0
          -0.021344551473863854 0.02143501531094169 0 0.001707264433997569 0 0
          -0.04445116323076236 0.04265605140770784 0 -0.013949558365309252 0 0
          -0.01572486557310687 0.017577170816018388 0 -0.01635295312180934 0 0
          0.65399354600173 -0.6401726693116931 0 -0.46653011259373445 0 0
          -0.26455000305417753 0.2691149649522111 0 -0.2240078741531547 0 0
          0.08585140876697711 -0.09026168465046466 0 0.044779137171015594 0 0
          -0.3144671546734333 0.32290236692307894 0 0.05354225343137883 0 0
          0.048410561022720545 -0.05363364168169066 0 0.45398697212677797 0 0
          -0.32596790692470934 0.32141543483423624 0 0.6977966941877178 0 0
          <InformationKey name="L2_NORM_RANGE" location="vtkDataArray" length="2">
            <Value index="0">
              0.00011783671639
            </Value>
            <Value index="1">
              1.0272190374
            </Value>
          </InformationKey>
        </DataArray>
        <DataArray type="Float64" Name="ALEdispl" NumberOfComponents="3" format="ascii" RangeMin="0" RangeMax="0">
          0 0 0 0 0 0
          0 0 0 0 0 0
          0 0 0 0 0 0
          0 0 0 0 0 0
          0 0 0 0 0 0
          0 0 0 0 0 0
          0 0 0 0 0 0
          0 0 0 0 0 0
          0 0 0 0 0 0
          0 0 0 0 0 0
          0 0 0 0 0 0
          0 0 0 0 0 0
          0 0 0 0 0 0
          0 0 0 0 0 0
          0 0 0 0 0 0
          0 0 0 0 0 0
          0 0 0 0 0 0
          0 0 0 0 0 0
          0 0 0 0 0 0
          0 0 0 0 0 0
          0 0 0 0 0 0
          0 0 0 0 0 0
          0 0 0 0 0 0
          0 0 0 0 0 0
          0 0 0 0 0 0
          0 0 0 0 0 0
          0 0 0 0 0 0
          0 0 0 0 0 0
          0 0 0 0 0 0
          0 0 0 0 0 0
          0 0 0 0 0 0
          0 0 0 0 0 0
          0 0 0 0 0 0
          0 0 0 0 0 0
          0 0 0 0 0 0
          0 0 0 0 0 0
          0 0 0 0 0 0
          0 0 0 0 0 0
          0 0 0 0 0 0
          0 0 0 0 0 0
          0 0 0 0 0 0
          0 0 0 0 0 0
          0 0 0 0 0 0
          0 0 0 0 0 0
          0 0 0 0 0 0
          0 0 0 0 0 0
          0 0 0 0 0 0
          0 0 0 0 0 0
          0 0 0
          <InformationKey name="L2_NORM_RANGE" location="vtkDataArray" length="2">
            <Value index="0">
              0
            </Value>
            <Value index="1">
              0
            </Value>
          </InformationKey>
        </DataArray>
        <DataArray type="Float64" Name="ALEveloc" NumberOfComponents="3" format="ascii" RangeMin="0" RangeMax="0">
          0 0 0 0 0 0
          0 0 0 0 0 0
          0 0 0 0 0 0
          0 0 0 0 0 0
          0 0 0 0 0 0
          0 0 0 0 0 0
          0 0 0 0 0 0
          0 0 0 0 0 0
          0 0 0 0 0 0
          0 0 0 0 0 0
          0 0 0 0 0 0
          0 0 0 0 0 0
          0 0 0 0 0 0
          0 0 0 0 0 0
          0 0 0 0 0 0
          0 0 0 0 0 0
          0 0 0 0 0 0
          0 0 0 0 0 0
          0 0 0 0 0 0
          0 0 0 0 0 0
          0 0 0 0 0 0
          0 0 0 0 0 0
          0 0 0 0 0 0
          0 0 0 0 0 0
          0 0 0 0 0 0
          0 0 0 0 0 0
          0 0 0 0 0 0
          0 0 0 0 0 0
          0 0 0 0 0 0
          0 0 0 0 0 0
          0 0 0 0 0 0
          0 0 0 0 0 0
          0 0 0 0 0 0
          0 0 0 0 0 0
          0 0 0 0 0 0
          0 0 0 0 0 0
          0 0 0 0 0 0
          0 0 0 0 0 0
          0 0 0 0 0 0
          0 0 0 0 0 0
          0 0 0 0 0 0
          0 0 0 0 0 0
          0 0 0 0 0 0
          0 0 0 0 0 0
          0 0 0 0 0 0
          0 0 0 0 0 0
          0 0 0 0 0 0
          0 0 0 0 0 0
          0 0 0
          <InformationKey name="L2_NORM_RANGE" location="vtkDataArray" length="2">
            <Value index="0">
              0
            </Value>
            <Value index="1">
              0
            </Value>
          </InformationKey>
        </DataArray>
      </PointData>
      <CellData>
        <DataArray type="UInt8" Name="vtkGhostType" format="ascii" RangeMin="0" RangeMax="0">
          0 0 0 0 0 0
          0 0 0 0 0 0
          0 0 0 0 0 0
          0 0 0 0 0 0
          0 0 0 0 0 0
          0 0 0 0 0 0
          0 0 0 0 0 0
          0 0 0 0 0 0
          0 0 0 0 0 0
          0 0 0 0 0 0
          0 0 0 0 0 0
          0 0 0 0 0 0
          0 0 0 0 0 0
          0 0 0 0 0 0
          0 0 0 0 0 0
          0 0 0 0 0 0
          0 0 0 0 0 0
          0 0 0 0 0 0
          0 0 0 0 0 0
          0 0 0 0 0 0
          0 0 0 0 0 0
          0 0 0 0 0 0
          0 0 0 0 0 0
          0 0 0 0 0 0
          0 0 0 0 0 0
          0 0 0 0
        </DataArray>
        <DataArray type="Float64" Name="PStrain" NumberOfComponents="6" format="ascii" RangeMin="0.1732050807568877" RangeMax="0.1732050807568877">
          0.09999999999999999 0.09999999999999999 0 0.09999999999999999 0 0
          0.09999999999999999 0.09999999999999999 0 0.09999999999999999 0 0
          0.09999999999999999 0.09999999999999999 0 0.09999999999999999 0 0
          0.09999999999999999 0.09999999999999999 0 0.09999999999999999 0 0
          0.09999999999999999 0.09999999999999999 0 0.09999999999999999 0 0
          0.09999999999999999 0.09999999999999999 0 0.09999999999999999 0 0
          0.09999999999999999 0.09999999999999999 0 0.09999999999999999 0 0
          0.09999999999999999 0.09999999999999999 0 0.09999999999999999 0 0
          0.09999999999999999 0.09999999999999999 0 0.09999999999999999 0 0
          0.09999999999999999 0.09999999999999999 0 0.09999999999999999 0 0
          0.09999999999999999 0.09999999999999999 0 0.09999999999999999 0 0
          0.09999999999999999 0.09999999999999999 0 0.09999999999999999 0 0
          0.09999999999999999 0.09999999999999999 0 0.09999999999999999 0 0
          0.09999999999999999 0.09999999999999999 0 0.09999999999999999 0 0
          0.09999999999999999 0.09999999999999999 0 0.09999999999999999 0 0
          0.09999999999999999 0.09999999999999999 0 0.09999999999999999 0 0
          0.09999999999999999 0.09999999999999999 0 0.09999999999999999 0 0
          0.09999999999999999 0.09999999999999999 0 0.09999999999999999 0 0
          0.09999999999999999 0.09999999999999999 0 0.09999999999999999 0 0
          0.09999999999999999 0.09999999999999999 0 0.09999999999999999 0 0
          0.09999999999999999 0.09999999999999999 0 0.09999999999999999 0 0
          0.09999999999999999 0.09999999999999999 0 0.09999999999999999 0 0
          0.09999999999999999 0.09999999999999999 0 0.09999999999999999 0 0
          0.09999999999999999 0.09999999999999999 0 0.09999999999999999 0 0
          0.09999999999999999 0.09999999999999999 0 0.09999999999999999 0 0
          0.09999999999999999 0.09999999999999999 0 0.09999999999999999 0 0
          0.09999999999999999 0.09999999999999999 0 0.09999999999999999 0 0
          0.09999999999999999 0.09999999999999999 0 0.09999999999999999 0 0
          0.09999999999999999 0.09999999999999999 0 0.09999999999999999 0 0
          0.09999999999999999 0.09999999999999999 0 0.09999999999999999 0 0
          0.09999999999999999 0.09999999999999999 0 0.09999999999999999 0 0
          0.09999999999999999 0.09999999999999999 0 0.09999999999999999 0 0
          0.09999999999999999 0.09999999999999999 0 0.09999999999999999 0 0
          0.09999999999999999 0.09999999999999999 0 0.09999999999999999 0 0
          0.09999999999999999 0.09999999999999999 0 0.09999999999999999 0 0
          0.09999999999999999 0.09999999999999999 0 0.09999999999999999 0 0
          0.09999999999999999 0.09999999999999999 0 0.09999999999999999 0 0
          0.09999999999999999 0.09999999999999999 0 0.09999999999999999 0 0
          0.09999999999999999 0.09999999999999999 0 0.09999999999999999 0 0
          0.09999999999999999 0.09999999999999999 0 0.09999999999999999 0 0
          0.09999999999999999 0.09999999999999999 0 0.09999999999999999 0 0
          0.09999999999999999 0.09999999999999999 0 0.09999999999999999 0 0
          0.09999999999999999 0.09999999999999999 0 0.09999999999999999 0 0
          0.09999999999999999 0.09999999999999999 0 0.09999999999999999 0 0
          0.09999999999999999 0.09999999999999999 0 0.09999999999999999 0 0
          0.09999999999999999 0.09999999999999999 0 0.09999999999999999 0 0
          0.09999999999999999 0.09999999999999999 0 0.09999999999999999 0 0
          0.09999999999999999 0.09999999999999999 0 0.09999999999999999 0 0
          0.09999999999999999 0.09999999999999999 0 0.09999999999999999 0 0
          0.09999999999999999 0.09999999999999999 0 0.09999999999999999 0 0
          0.09999999999999999 0.09999999999999999 0 0.09999999999999999 0 0
          0.09999999999999999 0.09999999999999999 0 0.09999999999999999 0 0
          0.09999999999999999 0.09999999999999999 0 0.09999999999999999 0 0
          0.09999999999999999 0.09999999999999999 0 0.09999999999999999 0 0
          0.09999999999999999 0.09999999999999999 0 0.09999999999999999 0 0
          0.09999999999999999 0.09999999999999999 0 0.09999999999999999 0 0
          0.09999999999999999 0.09999999999999999 0 0.09999999999999999 0 0
          0.09999999999999999 0.09999999999999999 0 0.09999999999999999 0 0
          0.09999999999999999 0.09999999999999999 0 0.09999999999999999 0 0
          0.09999999999999999 0.09999999999999999 0 0.09999999999999999 0 0
          0.09999999999999999 0.09999999999999999 0 0.09999999999999999 0 0
          0.09999999999999999 0.09999999999999999 0 0.09999999999999999 0 0
          0.09999999999999999 0.09999999999999999 0 0.09999999999999999 0 0
          0.09999999999999999 0.09999999999999999 0 0.09999999999999999 0 0
          0.09999999999999999 0.09999999999999999 0 0.09999999999999999 0 0
          0.09999999999999999 0.09999999999999999 0 0.09999999999999999 0 0
          0.09999999999999999 0.09999999999999999 0 0.09999999999999999 0 0
          0.09999999999999999 0.09999999999999999 0 0.09999999999999999 0 0
          0.09999999999999999 0.09999999999999999 0 0.09999999999999999 0 0
          0.09999999999999999 0.09999999999999999 0 0.09999999999999999 0 0
          0.09999999999999999 0.09999999999999999 0 0.09999999999999999 0 0
          0.09999999999999999 0.09999999999999999 0 0.09999999999999999 0 0
          0.09999999999999999 0.09999999999999999 0 0.09999999999999999 0 0
          0.09999999999999999 0.09999999999999999 0 0.09999999999999999 0 0
          0.09999999999999999 0.09999999999999999 0 0.09999999999999999 0 0
          0.09999999999999999 0.09999999999999999 0 0.09999999999999999 0 0
          0.09999999999999999 0.09999999999999999 0 0.09999999999999999 0 0
          0.09999999999999999 0.09999999999999999 0 0.09999999999999999 0 0
          0.09999999999999999 0.09999999999999999 0 0.09999999999999999 0 0
          0.09999999999999999 0.09999999999999999 0 0.09999999999999999 0 0
          0.09999999999999999 0.09999999999999999 0 0.09999999999999999 0 0
          0.09999999999999999 0.09999999999999999 0 0.09999999999999999 0 0
          0.09999999999999999 0.09999999999999999 0 0.09999999999999999 0 0
          0.09999999999999999 0.09999999999999999 0 0.09999999999999999 0 0
          0.09999999999999999 0.09999999999999999 0 0.09999999999999999 0 0
          0.09999999999999999 0.09999999999999999 0 0.09999999999999999 0 0
          0.09999999999999999 0.09999999999999999 0 0.09999999999999999 0 0
          0.09999999999999999 0.09999999999999999 0 0.09999999999999999 0 0
          0.09999999999999999 0.09999999999999999 0 0.09999999999999999 0 0
          0.09999999999999999 0.09999999999999999 0 0.09999999999999999 0 0
          0.09999999999999999 0.09999999999999999 0 0.09999999999999999 0 0
          0.09999999999999999 0.09999999999999999 0 0.09999999999999999 0 0
          0.09999999999999999 0.09999999999999999 0 0.09999999999999999 0 0
          0.09999999999999999 0.09999999999999999 0 0.09999999999999999 0 0
          0.09999999999999999 0.09999999999999999 0 0.09999999999999999 0 0
          0.09999999999999999 0.09999999999999999 0 0.09999999999999999 0 0
          0.09999999999999999 0.09999999999999999 0 0.09999999999999999 0 0
          0.09999999999999999 0.09999999999999999 0 0.09999999999999999 0 0
          0.09999999999999999 0.09999999999999999 0 0.09999999999999999 0 0
          0.09999999999999999 0.09999999999999999 0 0.09999999999999999 0 0
          0.09999999999999999 0.09999999999999999 0 0.09999999999999999 0 0
          0.09999999999999999 0.09999999999999999 0 0.09999999999999999 0 0
          0.09999999999999999 0.09999999999999999 0 0.09999999999999999 0 0
          0.09999999999999999 0.09999999999999999 0 0.09999999999999999 0 0
          0.09999999999999999 0.09999999999999999 0 0.09999999999999999 0 0
          0.09999999999999999 0.09999999999999999 0 0.09999999999999999 0 0
          0.09999999999999999 0.09999999999999999 0 0.09999999999999999 0 0
          0.09999999999999999 0.09999999999999999 0 0.09999999999999999 0 0
          0.09999999999999999 0.09999999999999999 0 0.09999999999999999 0 0
          0.09999999999999999 0.09999999999999999 0 0.09999999999999999 0 0
          0.09999999999999999 0.09999999999999999 0 0.09999999999999999 0 0
          0.09999999999999999 0.09999999999999999 0 0.09999999999999999 0 0