<?xml version="1.0"?>
<VTKFile type="UnstructuredGrid" version="0.1" byte_order="LittleEndian" header_type="UInt32" compressor="vtkZLibDataCompressor">
  <UnstructuredGrid>
    <Piece NumberOfPoints="97" NumberOfCells="154">
      <PointData>
        <DataArray type="Float64" Name="Velocity" NumberOfComponents="3" format="ascii" RangeMin="0" RangeMax="5.206629687394724">
          0.631278121838501 0.5684129375375645 0 1.1536818564811142 0 0
          0.8514928303918476 -0.0070653685630389625 0 0.9583468049534152 0.0299971017727315 0
          1.0583980379920186 0.05716370717759376 0 0.9956493707320934 0 0
          0.7270043751089513 -0.5044234536268369 0 1.0654872701524118 0 0
          0.9990560585780377 -0.03998378643030071 0 1.0028816089646215 0.0037189350987759384 0
          0.9994430538781431 0 0 0.9621054659924964 0 0
          1.0092667483374973 0 0 0.9976986637259253 0 0
          0.996811881415558 0.0025370151084608485 0 0.9979795024435657 0.0024180956456952597 0
          1.0039085235673422 0 0 0.9932087129699194 0 0
          1.0030808406924179 0.0037949058446045928 0 0.9958133686075658 0.00016471581530073552 0
          0.9998929719252135 -0.0005525520458036591 0 1.0114550598655572 0 0
          0.9914324424042137 0 0 1.0020245239009287 0.011799620812603124 0
          0.9981191573838618 -0.018316268263831894 0 0.9972944058647926 -0.007883832070134041 0
          1.0291195880061628 0 0 1.0297780160550436 0 0
          0.9788410301756875 -0.0053180248030209746 0 1.0170211000530542 -0.056733951322333206 0
          0.9760703787392163 -0.0401846558596958 0 1.0168796108818186 -0.03709791074098961 0
          1.087500479289915 0 0 1.040096757522421 0 0
          1.0412624541449853 -0.16088632703632988 0 0.945246390333971 -0.16518931469029277 0
          0.9319113192974802 0.006728579627305028 0 1.0007133389305563 0 0
          1.2304680808338926 -0.17300399868786526 0 1.0316485166135134 -0.3518547183161439 0
          0.774701008068096 -0.32458871208984125 0 1.2182024097689028 -0.571919734913449 0
          0.8392795319587916 -0.08062923208685738 0 1.0345387654367355 -0.7383239160846264 0
          1.0858333787584664 -0.41410025550257407 0 0.5972247699416011 -0.32397702731227024 0
          1.2027416583247428 0 0 1.1933840675566705 -0.7109487260200451 0
          0.561156511661771 -0.14720807625525079 0 1.6602363901603643 -0.49692405781159427 0
          0.9345252706253451 -1.0559755245744613 0 0.7186988550815353 0.06631890423370053 0
          0.4804291978438191 -0.7315294122290161 0 1.5333255818429592 -0.9809559313381356 0
          0.6984550239860172 -0.28840070583509814 0 0.8064107907459903 -1.1020120395919788 0
          1.3754331767048775 -0.859066931276729 0 0.3502746466481065 -0.54518496356542 0
          0.8330564820928974 -1.5089440781101575 0 1.4470985168429162 0 0
          0.29982921959915765 -1.1345367188348539 0 0.4319991791668544 -0.21524572567462497 0
          1.34509402511428 -1.350567957147312 0 -0.09766001142361921 -0.6039268135922716 0
          0.08396996767427245 -1.2535734777435905 0 2.3803516074542883 -0.9245506263597191 0
          0.18168843598026474 -0.7083422347175335 0 1.6518785680742196 -2.675935616980452 0
          -0.12281751429222243 -1.2122219812615962 0 3.74219333660276 -3.0845920661533404 0
          1.00388736027535 -0.3617668132235167 0 -0.76935865607341 -2.7474144458830665 0
          0.9315900287542174 0 0 0.04865071529607036 -0.38951072584494456 0
          0.0895371939085805 -3.014876743406768 0 -0.5844357014378256 -1.0391209849081575 0
          -0.9381989582176227 -0.36989180103459984 0 -1.9166646661959712 0.7311855834263159 0
          0.07654890228193206 0 0 0.21234295983707907 -0.3491005790127195 0
          -0.5895820556748604 -0.23911696260648713 0 -0.023586372068274623 -0.7046501681050982 0
          0 0 0 0.1801122256900763 0 0
          0 0 0 0 0 0
          0 0 0 0 0 0
          1.3019263353197317 -0.11164199127784485 0 1.4908813646322059 -0.32561794423715035 0
          1.0826187456224365 0 0 3.153375421579087 -0.9849093039345884 0
          1.905802474331069 -1.2009874166327146 0 2.908839553652159 -0.902790148435534 0
          1.113779000034579 -0.8640341090702289 0 2.511142776928184 4.56104753927664 0
          0 0 0
          <InformationKey name="L2_NORM_RANGE" location="vtkDataArray" length="2">
            <Value index="0">
              0
            </Value>
            <Value index="1">
              5.2066296874
            </Value>
          </InformationKey>
        </DataArray>
        <DataArray type="Float64" Name="Pressure" format="ascii" RangeMin="-37.79113890756544" RangeMax="28.658617171731017">
          0.6698741714433281 -0.12927284079676837 -0.4923598554683934 0.5188484555386824 -0.21215492078719494 -0.4018979079794446
          -0.17100455843953133 1.788034405420602 -0.9107233187502146 0.0273137873740171 -0.08856071987982328 -1.5468300707987677
          0.09569378622560953 0.02196656785696989 -0.1850357993296926 -0.01317482288984781 -0.1487293425114115 0.11127958149978677
          -0.24004228925591747 -0.022119062501122874 -0.07105520722267969 -0.2511338826380233 0.1766087084329292 -0.2883786227693418
          -0.047168224447572765 0.025415313583485546 -0.00024645674586626365 -0.20259751208212262 -0.3000906190558402 0.05530667692466816
          0.3762412041523924 0.03745219528194922 -0.12022515989783991 -1.0877956802167308 0.1638575150252916 1.0567208150931984
          0.8786117519993162 3.625902021214245 -1.8111458917358432 1.2631852998491218 2.8449119841952237 -1.0873887607850539
          3.797344809084349 1.609706823312625 0.9235693164140426 3.795839037343237 5.687956013238938 -0.3694786229094191
          3.519528110625212 -3.8943029420200874 0.7490725378352858 4.273271635186885 4.637531506497405 -1.0705415159255613
          2.703401574293017 2.8514650466095754 -1.1139968030932983 5.205050487665675 1.7211124877717143 1.6293959880538496
          5.415739897482081 6.577331599475169 -0.8108135574326802 7.249981954100061 5.010797466924734 -8.929196482475334
          8.637642069355245 -5.073181202897542 7.284910175354928 -23.305227878149033 4.790895186081014 -2.2795204539322906
          2.7210543759971935 8.999784617476958 -14.490939931488057 13.29134605247532 9.601450760415071 -14.103396399646197
          7.62656596819929 17.345232578378894 23.453443255375742 11.319458485991893 15.904729241824334 23.265151675857048
          26.950649337948818 16.662444191964155 23.307302678360724 28.658617171731017 -3.343305336721448 -3.1311495031282464
          -1.8005224678157794 -6.880516708525784 -2.3848665557231956 -11.636832731166916 -1.1686759689753325 -37.79113890756544
          -34.939645616425516
        </DataArray>
        <DataArray type="Float64" Name="BTraction" NumberOfComponents="3" format="ascii" RangeMin="0" RangeMax="30.866554756310986">
          -0.16138958247264312 -0.17025442608487806 0 0.00756015360948699 0.0501184275933544 0
          0.22746222803162758 0.0016437678998131207 0 0 0 0
          0 0 0 0.002335753019136542 0.30318805720635295 0
          0.1438429487331285 0.21482310078611283 0 0.007011439744935566 0.9015499646819655 0
          0 0 0 0 0 0
          0.00011582611628266195 0.121700690333061 0 -0.002955763607011165 -0.7157142721607768 0
          -0.0006176303766106295 -0.2180356545048961 0 -0.0001386493637018533 -0.014750508314857472 0
          0 0 0 0 0 0
          0.00037536327532876335 -0.11899246900859312 0 -0.00022197649330547606 -0.10379012997509816 0
          0 0 0 0 0 0
          0 0 0 0.0007410109255202296 -0.19696301847922465 0
          -0.00004546742249921295 -0.10659077372785163 0 0 0 0
          0 0 0 0 0 0
          0.0031833190368847474 -0.06563300008218156 0 0.0004131872592326432 0.2742250195469869 0
          0 0 0 0 0 0
          0 0 0 0 0 0
          0.008212283499716838 0.47801667169230444 0 -0.004522080979909666 1.0560588473654602 0
          0 0 0 0 0 0
          0 0 0 0.010559808335963445 3.2921675057549713 0
          0 0 0 0 0 0
          0 0 0 0 0 0
          0 0 0 0 0 0
          0 0 0 0 0 0
          0.045690166814240575 4.709984785027126 0 0 0 0
          0 0 0 0 0 0
          0 0 0 0 0 0
          0 0 0 0 0 0
          0 0 0 0 0 0
          0 0 0 0 0 0
          0 0 0 0.0688742502362672 2.564491562790339 0
          0 0 0 0 0 0
          0 0 0 0 0 0
          0 0 0 0 0 0
          0 0 0 0 0 0
          0 0 0 0 0 0
          0 0 0 0 0 0
          0.021182292865615775 3.3476337800598244 0 0 0 0
          0 0 0 0 0 0
          0 0 0 0 0 0
          -0.03670815402171706 9.275382103581656 0 0 0 0
          0 0 0 0 0 0
          10.251804896627013 -0.16783590084952985 0 -0.0027038522577821932 21.45284209269795 0
          23.439626678897827 0.10410585366486552 0 19.514532227047816 0.08012684531577716 0
          23.0106265367933 0.0261652386804444 0 13.331253756550849 13.586424011760007 0
          0 0 0 0 0 0
          -0.004489315898230522 2.4645402474591607 0 0 0 0
          0 0 0 0 0 0
          0 0 0 0 0 0
          -30.85057388595627 -0.9931230696632641 0
          <InformationKey name="L2_NORM_RANGE" location="vtkDataArray" length="2">
            <Value index="0">
              0
            </Value>
            <Value index="1">
              30.866554756
            </Value>
          </InformationKey>
        </DataArray>
        <DataArray type="Float64" Name="Sigma" NumberOfComponents="6" format="ascii" RangeMin="0.00018141336592738153" RangeMax="1.4548817174273974">
          -0.03960631710852783 0.03979496495204279 0 0.01348439745114553 0 0
          -0.0036919915552027878 0.00353771223449691 0 0.007551480394469333 0 0
          -0.011420520657964109 0.01143216489774025 0 0.0017794358276619709 0 0
          0.0035288372176055147 -0.0033432807326028487 0 0.000540296150116089 0 0
          -0.0023780365115458873 0.002258686706647631 0 -0.003856872644346068 0 0
          0.002229133260458606 -0.0023503480530943917 0 0.0016706026278990812 0 0
          -0.02050804093962781 0.02034129436275598 0 -0.010739533362914692 0 0
          -0.0011960828270711852 0.0018231880216817305 0 -0.009588609632583756 0 0
          -0.0009329929266658233 0.0008987324077983776 0 -0.0002600723109818747 0 0
          -0.0016916642831672937 0.0016758135725661628 0 -0.0003872461411658116 0 0
          0.0004927621757696832 -0.0004331693783718078 0 -0.00021937279124640592 0 0
          0.0023667921030262693 -0.002630842097163579 0 0.007025333423636327 0 0
          0.0007280691499237556 -0.0006062782172284312 0 -0.0007781424198945708 0 0
          -0.00010256323927963713 0.00011294792317997829 0 -0.00009815476521748527 0 0
          0.00020498700516842917 -0.00026578757228469345 0 0.00021874134193972886 0 0
          0.00016580352646300753 -0.0001435908496386406 0 -0.00018738388613914026 0 0
          -0.0005180687203649962 0.0004856135877132805 0 -0.0002069814843942649 0 0
          0.00005683708996749481 -0.00006239492754778738 0 -0.00021997064625829552 0 0
          0.00022591763408485047 -0.0001805795517557364 0 -0.0004097510466251668 0 0
          -0.00017115609341857176 0.00022265287042079005 0 0.00015932105892788777 0 0
          0.00016819092473550136 -0.00024639746132892415 0 0.00030458997867501117 0 0
          -0.001440258587666353 0.0013981645679640336 0 -0.0006294261711805322 0 0
          -0.0007785160983576611 0.0009148878905729574 0 -0.00039241019474319254 0 0
          0.0011589441064651495 -0.001249186990446685 0 -0.0003422181505815322 0 0
          -0.000029599445061664523 0.00007398230842456373 0 0.0014198932127787772 0 0
          -0.0017650872750895655 0.0017390350099097391 0 0.0001563907605335399 0 0
          -0.001584205972004132 0.001818562889119689 0 -0.001964700146866314 0 0
          -0.00025350894209624807 0.00007085702293489619 0 0.0016874734938933302 0 0
          0.0008764747261091611 -0.0008867949195317196 0 -0.00036416597126291635 0 0
          -0.0008260906068281547 0.0005430292719620033 0 0.0060377579095508 0 0
          0.003855450925456325 -0.0036216650591948066 0 0.003185874395711913 0 0
          -0.006590620738654823 0.007088618800924765 0 0.0028057858086644478 0 0
          -0.0014056792398622628 0.0012233933745373518 0 -0.011576900356354763 0 0
          -0.006780465119328238 0.006429805683610429 0 -0.004124817714851919 0 0
          -0.007635241217268472 0.007844818172341346 0 0.005973013608486358 0 0
          0.005658930125083044 -0.005691615449550338 0 0.01632421555651755 0 0
          0.009152094909537258 -0.009237583004267764 0 0.0016626731384945912 0 0
          -0.006582073413142799 0.006305502737591121 0 -0.0009257710395017731 0 0
          -0.020156416574431926 0.019364773901009904 0 0.010886484241190878 0 0
          -0.01193316757082408 0.012201103889843171 0 0.03297900745909625 0 0
          0.02317761574619 -0.023530461140785806 0 0.0175041786497116 0 0
          -0.031531510398870415 0.03305560832211578 0 0.0284505021384395 0 0
          0.02132121788240242 -0.020968644834066713 0 -0.013345833556622982 0 0
          0.019822941704637116 -0.0215000361055045 0 0.0317599590462246 0 0
          -0.026499759790287104 0.025894859614332418 0 0.05331318437894189 0 0
          0.045198631266315334 -0.0433074767762575 0 0.0911402124291649 0 0
          -0.006532893946007058 0.00837188467792453 0 -0.04995451270580943 0 0
          -0.09722057823355959 0.10916537236108792 0 0.04443722574772837 0 0
          0.04118903908627287 -0.03911901125603348 0 0.01772812929090905 0 0
          0.01907353313891349 -0.03152410640814579 0 0.05148354241874031 0 0
          -0.024492887537822552 0.02817467650201324 0 0.11872228476076227 0 0
          0.0020409469490771425 -0.0015533712741797627 0 -0.011226462239312552 0 0
          0.02954730234910334 -0.029100999241477746 0 0.07236495462303859 0 0
          -0.01859825528210065 0.0073534445529246754 0 0.055906671683008405 0 0
          0.07637979664393987 -0.0831256059081673 0 0.022207929441859765 0 0
          0.06424169291289009 -0.06660004324679888 0 0.06333489728508755 0 0
          0.015195882011943471 -0.023213240373490856 0 -0.050365482787721114 0 0
          0.060033550417668106 -0.059560067273743494 0 0.025879728271133273 0 0
          -0.004119424842679581 0.001105332372399119 0 0.1504414804155957 0 0
          0.03214525017546506 -0.036959244277733026 0 -0.08430961195157796 0 0
          0.0724216312457929 -0.07386283813193478 0 0.010660727328860094 0 0
          0.021841619839020786 -0.015895085026690015 0 -0.023470889045582536 0 0
          -0.3207590910753986 0.3442740318832688 0 0.23245397687867614 0 0
          0.03469553975462397 -0.03319197193180684 0 -0.031113370975702676 0 0
          0.13800547648922973 -0.13760579939398038 0 0.250380568661669 0 0
          -0.31133880812467996 0.31681762152266657 0 0.07950473877857037 0 0
          0.10730363909841638 -0.10657191270914074 0 0.08478264652227 0 0
          0.082959731827608 -0.07688016616182201 0 0.4914588455411271 0 0
          0.17096581981724782 -0.16595793937526124 0 -0.045413280486225116 0 0
          -0.36126420502849765 0.3100164946055172 0 0.08202762696546012 0 0
          0.04511810092335773 -0.043863801827503636 0 -0.00043355216822164866 0 0
          0.6051682912713006 -0.6079077826654806 0 0.09658424037339487 0 0
          0.0445993845823829 -0.046648294919714804 0 -0.023567396379166033 0 0
          0.00968464578653319 -0.009239275764925944 0 -0.07340392442548035 0 0
          -0.07406545793538036 0.084249400639787 0 0.10467935893140884 0 0
          0.09256553993213021 -0.09567092086435952 0 -0.08741861905274174 0 0
          -0.0046291765428140355 -0.009649199982474307 0 -0.23923560310050285 0 0
          -0.2713465648540867 0.2688645739975738 0 -0.6447617186682706 0 0
          0.13064867402521718 -0.13322363446515667 0 0.06131116271293929 0 0
          -0.030598938779852987 0.034607269974146086 0 -0.014849190985003095 0 0
          -0.01946222180118637 0.022425708532490714 0 -0.15807792248198688 0 0
          0.05208826812428528 -0.05723772038357973 0 -0.0475100942305482 0 0
          -0.26559787737077434 0.29245470918018657 0 -0.014921186031203515 0 0
          0.06679932492703597 -0.05240222769920545 0 0.00028001840544779333 0 0
          -0.006370757633054249 0.0018277904637465335 0 -0.13173447116244347 0 0
          0.015300933719046474 -0.02132510773458108 0 -0.08390314573725398 0 0
          0.006001468939866507 -0.0022103161089488043 0 -0.005089334244370598 0 0
          -0.014145958262793289 -0.0068635105018414 0 -0.05148734661968683 0 0
          -0.02384485376646819 0.02337916657182227 0 0.00003767811812172223 0 0
          -0.03312087944205022 0.03265041560102479 0 -0.011981369569916269 0 0
          -0.012807140866956508 0.014733173900206347 0 -0.01284773944274598 0 0
          0.5736384763772225 -0.5486434250833125 0 -0.40677123030637485 0 0
          -0.3373047957679791 0.3610741570354663 0 -0.17668854236661283 0 0
          0.15820231323178627 -0.17511624923287986 0 0.04669841531455934 0 0
          -0.2381620796353675 0.25522391219762014 0 0.008673604222273062 0 0
          0.2970901583175854 -0.2677029312427836 0 -0.11716609815154372 0 0
          -0.4755408637491355 0.4493107443706735 0 1.2994851109582943 0 0
          <InformationKey name="L2_NORM_RANGE" location="vtkDataArray" length="2">
            <Value index="0">
              0.00018141336593
            </Value>
            <Value index="1">
              1.4548817174
            </Value>
          </InformationKey>
        </DataArray>
        <DataArray type="Float64" Name="ALEdispl" NumberOfComponents="3" format="ascii" RangeMin="0" RangeMax="0">
          0 0 0 0 0 0
          0 0 0 0 0 0
          0 0 0 0 0 0
          0 0 0 0 0 0
          0 0 0 0 0 0
          0 0 0 0 0 0
          0 0 0 0 0 0
          0 0 0 0 0 0
          0 0 0 0 0 0
          0 0 0 0 0 0
          0 0 0 0 0 0
          0 0 0 0 0 0
          0 0 0 0 0 0
          0 0 0 0 0 0
          0 0 0 0 0 0
          0 0 0 0 0 0
          0 0 0 0 0 0
          0 0 0 0 0 0
          0 0 0 0 0 0
          0 0 0 0 0 0
          0 0 0 0 0 0
          0 0 0 0 0 0
          0 0 0 0 0 0
          0 0 0 0 0 0
          0 0 0 0 0 0
          0 0 0 0 0 0
          0 0 0 0 0 0
          0 0 0 0 0 0
          0 0 0 0 0 0
          0 0 0 0 0 0
          0 0 0 0 0 0
          0 0 0 0 0 0
          0 0 0 0 0 0
          0 0 0 0 0 0
          0 0 0 0 0 0
          0 0 0 0 0 0
          0 0 0 0 0 0
          0 0 0 0 0 0
          0 0 0 0 0 0
          0 0 0 0 0 0
          0 0 0 0 0 0
          0 0 0 0 0 0
          0 0 0 0 0 0
          0 0 0 0 0 0
          0 0 0 0 0 0
          0 0 0 0 0 0
          0 0 0 0 0 0
          0 0 0 0 0 0
          0 0 0
          <InformationKey name="L2_NORM_RANGE" location="vtkDataArray" length="2">
            <Value index="0">
              0
            </Value>
            <Value index="1">
              0
            </Value>
          </InformationKey>
        </DataArray>
        <DataArray type="Float64" Name="ALEveloc" NumberOfComponents="3" format="ascii" RangeMin="0" RangeMax="0">
          0 0 0 0 0 0
          0 0 0 0 0 0
          0 0 0 0 0 0
          0 0 0 0 0 0
          0 0 0 0 0 0
          0 0 0 0 0 0
          0 0 0 0 0 0
          0 0 0 0 0 0
          0 0 0 0 0 0
          0 0 0 0 0 0
          0 0 0 0 0 0
          0 0 0 0 0 0
          0 0 0 0 0 0
          0 0 0 0 0 0
          0 0 0 0 0 0
          0 0 0 0 0 0
          0 0 0 0 0 0
          0 0 0 0 0 0
          0 0 0 0 0 0
          0 0 0 0 0 0
          0 0 0 0 0 0
          0 0 0 0 0 0
          0 0 0 0 0 0
          0 0 0 0 0 0
          0 0 0 0 0 0
          0 0 0 0 0 0
          0 0 0 0 0 0
          0 0 0 0 0 0
          0 0 0 0 0 0
          0 0 0 0 0 0
          0 0 0 0 0 0
          0 0 0 0 0 0
          0 0 0 0 0 0
          0 0 0 0 0 0
          0 0 0 0 0 0
          0 0 0 0 0 0
          0 0 0 0 0 0
          0 0 0 0 0 0
          0 0 0 0 0 0
          0 0 0 0 0 0
          0 0 0 0 0 0
          0 0 0 0 0 0
          0 0 0 0 0 0
          0 0 0 0 0 0
          0 0 0 0 0 0
          0 0 0 0 0 0
          0 0 0 0 0 0
          0 0 0 0 0 0
          0 0 0
          <InformationKey name="L2_NORM_RANGE" location="vtkDataArray" length="2">
            <Value index="0">
              0
            </Value>
            <Value index="1">
              0
            </Value>
          </InformationKey>
        </DataArray>
      </PointData>
      <CellData>
        <DataArray type="UInt8" Name="vtkGhostType" format="ascii" RangeMin="0" RangeMax="0">
          0 0 0 0 0 0
          0 0 0 0 0 0
          0 0 0 0 0 0
          0 0 0 0 0 0
          0 0 0 0 0 0
          0 0 0 0 0 0
          0 0 0 0 0 0
          0 0 0 0 0 0
          0 0 0 0 0 0
          0 0 0 0 0 0
          0 0 0 0 0 0
          0 0 0 0 0 0
          0 0 0 0 0 0
          0 0 0 0 0 0
          0 0 0 0 0 0
          0 0 0 0 0 0
          0 0 0 0 0 0
          0 0 0 0 0 0
          0 0 0 0 0 0
          0 0 0 0 0 0
          0 0 0 0 0 0
          0 0 0 0 0 0
          0 0 0 0 0 0
          0 0 0 0 0 0
          0 0 0 0 0 0
          0 0 0 0
        </DataArray>
        <DataArray type="Float64" Name="PStrain" NumberOfComponents="6" format="ascii" RangeMin="0.1732050807568877" RangeMax="0.1732050807568877">
          0.09999999999999999 0.09999999999999999 0 0.09999999999999999 0 0
          0.09999999999999999 0.09999999999999999 0 0.09999999999999999 0 0
          0.09999999999999999 0.09999999999999999 0 0.09999999999999999 0 0
          0.09999999999999999 0.09999999999999999 0 0.09999999999999999 0 0
          0.09999999999999999 0.09999999999999999 0 0.09999999999999999 0 0
          0.09999999999999999 0.09999999999999999 0 0.09999999999999999 0 0
          0.09999999999999999 0.09999999999999999 0 0.09999999999999999 0 0
          0.09999999999999999 0.09999999999999999 0 0.09999999999999999 0 0
          0.09999999999999999 0.09999999999999999 0 0.09999999999999999 0 0
          0.09999999999999999 0.09999999999999999 0 0.09999999999999999 0 0
          0.09999999999999999 0.09999999999999999 0 0.09999999999999999 0 0
          0.09999999999999999 0.09999999999999999 0 0.09999999999999999 0 0
          0.09999999999999999 0.09999999999999999 0 0.09999999999999999 0 0
          0.09999999999999999 0.09999999999999999 0 0.09999999999999999 0 0
          0.09999999999999999 0.09999999999999999 0 0.09999999999999999 0 0
          0.09999999999999999 0.09999999999999999 0 0.09999999999999999 0 0
          0.09999999999999999 0.09999999999999999 0 0.09999999999999999 0 0
          0.09999999999999999 0.09999999999999999 0 0.09999999999999999 0 0
          0.09999999999999999 0.09999999999999999 0 0.09999999999999999 0 0
          0.09999999999999999 0.09999999999999999 0 0.09999999999999999 0 0
          0.09999999999999999 0.09999999999999999 0 0.09999999999999999 0 0
          0.09999999999999999 0.09999999999999999 0 0.09999999999999999 0 0
          0.09999999999999999 0.09999999999999999 0 0.09999999999999999 0 0
          0.09999999999999999 0.09999999999999999 0 0.09999999999999999 0 0
          0.09999999999999999 0.09999999999999999 0 0.09999999999999999 0 0
          0.09999999999999999 0.09999999999999999 0 0.09999999999999999 0 0
          0.09999999999999999 0.09999999999999999 0 0.09999999999999999 0 0
          0.09999999999999999 0.09999999999999999 0 0.09999999999999999 0 0
          0.09999999999999999 0.09999999999999999 0 0.09999999999999999 0 0
          0.09999999999999999 0.09999999999999999 0 0.09999999999999999 0 0
          0.09999999999999999 0.09999999999999999 0 0.09999999999999999 0 0
          0.09999999999999999 0.09999999999999999 0 0.09999999999999999 0 0
          0.09999999999999999 0.09999999999999999 0 0.09999999999999999 0 0
          0.09999999999999999 0.09999999999999999 0 0.09999999999999999 0 0
          0.09999999999999999 0.09999999999999999 0 0.09999999999999999 0 0
          0.09999999999999999 0.09999999999999999 0 0.09999999999999999 0 0
          0.09999999999999999 0.09999999999999999 0 0.09999999999999999 0 0
          0.09999999999999999 0.09999999999999999 0 0.09999999999999999 0 0
          0.09999999999999999 0.09999999999999999 0 0.09999999999999999 0 0
          0.09999999999999999 0.09999999999999999 0 0.09999999999999999 0 0
          0.09999999999999999 0.09999999999999999 0 0.09999999999999999 0 0
          0.09999999999999999 0.09999999999999999 0 0.09999999999999999 0 0
          0.09999999999999999 0.09999999999999999 0 0.09999999999999999 0 0
          0.09999999999999999 0.09999999999999999 0 0.09999999999999999 0 0
          0.09999999999999999 0.09999999999999999 0 0.09999999999999999 0 0
          0.09999999999999999 0.09999999999999999 0 0.09999999999999999 0 0
          0.09999999999999999 0.09999999999999999 0 0.09999999999999999 0 0
          0.09999999999999999 0.09999999999999999 0 0.09999999999999999 0 0
          0.09999999999999999 0.09999999999999999 0 0.09999999999999999 0 0
          0.09999999999999999 0.09999999999999999 0 0.09999999999999999 0 0
          0.09999999999999999 0.09999999999999999 0 0.09999999999999999 0 0
          0.09999999999999999 0.09999999999999999 0 0.09999999999999999 0 0
          0.09999999999999999 0.09999999999999999 0 0.09999999999999999 0 0
          0.09999999999999999 0.09999999999999999 0 0.09999999999999999 0 0
          0.09999999999999999 0.09999999999999999 0 0.09999999999999999 0 0
          0.09999999999999999 0.09999999999999999 0 0.09999999999999999 0 0
          0.09999999999999999 0.09999999999999999 0 0.09999999999999999 0 0
          0.09999999999999999 0.09999999999999999 0 0.09999999999999999 0 0
          0.09999999999999999 0.09999999999999999 0 0.09999999999999999 0 0
          0.09999999999999999 0.09999999999999999 0 0.09999999999999999 0 0
          0.09999999999999999 0.09999999999999999 0 0.09999999999999999 0 0
          0.09999999999999999 0.09999999999999999 0 0.09999999999999999 0 0
          0.09999999999999999 0.09999999999999999 0 0.09999999999999999 0 0
          0.09999999999999999 0.09999999999999999 0 0.09999999999999999 0 0
          0.09999999999999999 0.09999999999999999 0 0.09999999999999999 0 0
          0.09999999999999999 0.09999999999999999 0 0.09999999999999999 0 0
          0.09999999999999999 0.09999999999999999 0 0.09999999999999999 0 0
          0.09999999999999999 0.09999999999999999 0 0.09999999999999999 0 0
          0.09999999999999999 0.09999999999999999 0 0.09999999999999999 0 0
          0.09999999999999999 0.09999999999999999 0 0.09999999999999999 0 0
          0.09999999999999999 0.09999999999999999 0 0.09999999999999999 0 0
          0.09999999999999999 0.09999999999999999 0 0.09999999999999999 0 0
          0.09999999999999999 0.09999999999999999 0 0.09999999999999999 0 0
          0.09999999999999999 0.09999999999999999 0 0.09999999999999999 0 0
          0.09999999999999999 0.09999999999999999 0 0.09999999999999999 0 0
          0.09999999999999999 0.09999999999999999 0 0.09999999999999999 0 0
          0.09999999999999999 0.09999999999999999 0 0.09999999999999999 0 0
          0.09999999999999999 0.09999999999999999 0 0.09999999999999999 0 0
          0.09999999999999999 0.09999999999999999 0 0.09999999999999999 0 0
          0.09999999999999999 0.09999999999999999 0 0.09999999999999999 0 0
          0.09999999999999999 0.09999999999999999 0 0.09999999999999999 0 0
          0.09999999999999999 0.09999999999999999 0 0.09999999999999999 0 0
          0.09999999999999999 0.09999999999999999 0 0.09999999999999999 0 0
          0.09999999999999999 0.09999999999999999 0 0.09999999999999999 0 0
          0.09999999999999999 0.09999999999999999 0 0.09999999999999999 0 0
          0.09999999999999999 0.09999999999999999 0 0.09999999999999999 0 0
          0.09999999999999999 0.09999999999999999 0 0.09999999999999999 0 0
          0.09999999999999999 0.09999999999999999 0 0.09999999999999999 0 0
          0.09999999999999999 0.09999999999999999 0 0.09999999999999999 0 0
          0.09999999999999999 0.09999999999999999 0 0.09999999999999999 0 0
          0.09999999999999999 0.09999999999999999 0 0.09999999999999999 0 0
          0.09999999999999999 0.09999999999999999 0 0.09999999999999999 0 0
          0.09999999999999999 0.09999999999999999 0 0.09999999999999999 0 0
          0.09999999999999999 0.09999999999999999 0 0.09999999999999999 0 0
          0.09999999999999999 0.09999999999999999 0 0.09999999999999999 0 0
          0.09999999999999999 0.09999999999999999 0 0.09999999999999999 0 0
          0.09999999999999999 0.09999999999999999 0 0.09999999999999999 0 0
          0.09999999999999999 0.09999999999999999 0 0.09999999999999999 0 0
          0.09999999999999999 0.09999999999999999 0 0.09999999999999999 0 0
          0.09999999999999999 0.09999999999999999 0 0.09999999999999999 0 0
          0.09999999999999999 0.09999999999999999 0 0.09999999999999999 0 0
          0.09999999999999999 0.09999999999999999 0 0.09999999999999999 0 0
          0.09999999999999999 0.09999999999999999 0 0.09999999999999999 0 0
          0.09999999999999999 0.09999999999999999 0 0.09999999999999999 0 0
          0.09999999999999999 0.09999999999999999 0 0.09999999999999999 0 0
          0.09999999999999999 0.09999999999999999 0 0.09999999999999999 0 0
          0.09999999999999999 0.09999999999999999 0 0.09999999999999999 0 0
          0.09999999999999999 0.09999999999999999 0 0.09999999999999999 0 0
          0.09999999999999999 0.09999999999999999 0 0.09999999999999999 0 0
          0.09999999999999999 0.09999999999999999 0 0.09999999999999999 0 0
          0.09999999999999999 0.09999999999999999 0 0.09999999999999999 0 0
          0.09999999999999999 0.09999999999999999 0 0.09999999999999999 0 0
          0.09999999999999999 0.09999999999999999 0 0.09999999999999999 0 0
          0.09999999999999999 0.09999999999999999 0 0.09999999999999999 0 0