<?xml version="1.0"?>
<VTKFile type="UnstructuredGrid" version="0.1" byte_order="LittleEndian" header_type="UInt32" compressor="vtkZLibDataCompressor">
  <UnstructuredGrid>
    <Piece NumberOfPoints="97" NumberOfCells="154">
      <PointData>
        <DataArray type="Float64" Name="Velocity" NumberOfComponents="3" format="ascii" RangeMin="0" RangeMax="5.035513612224782">
          0.6512016184967415 0.5408580340512158 0 1.1515837077542619 0 0
          0.856925023604389 -0.008206977103137258 0 0.9565350555614436 0.03046010297296441 0
          1.0571682903839212 0.05742888717459472 0 0.9953765083928653 0 0
          0.7352663060498058 -0.4873499982284136 0 1.0640968246626636 0 0
          1.0003159980441845 -0.042090362176800636 0 1.0032761654908777 0.004075414382945364 0
          0.9993477881662792 0 0 0.9614467588277188 0 0
          1.0095101806324003 0 0 0.997747226306226 0 0
          0.9965787232969384 0.0025619265644774084 0 0.9979784269560333 0.0024465285015111277 0
          1.0035384527515236 0 0 0.9930456707963589 0 0
          1.003066371622252 0.0040995904145085995 0 0.9959638879702354 -0.0003822297561847422 0
          0.999689525404825 -0.0007631361452197536 0 1.0129282848830958 0 0
          0.9911990954534212 0 0 1.0018834679935307 0.012369291032186787 0
          0.9979730109111509 -0.01918067391727945 0 0.9989692403928583 -0.00844625281006446 0
          1.0283133716633386 0 0 1.0298972555929038 0 0
          0.977252794590672 -0.006499969096596774 0 1.0186537209322326 -0.06262461543492867 0
          0.9737876148107887 -0.04155571197766969 0 1.0166676811734578 -0.038484500013872686 0
          1.088970029244772 0 0 1.047218907872784 0 0
          1.0428301702449485 -0.1608221452987284 0 0.9429691882859159 -0.17652306706313026 0
          0.9283267436477968 0.002885713037253732 0 1.0107614204460997 0 0
          1.2423247872191714 -0.18649977648685795 0 1.039420044493234 -0.36879175647082185 0
          0.7669246076927323 -0.33794218939960247 0 1.227497714012732 -0.577431777062043 0
          0.8244394127498976 -0.07365143136123037 0 1.0360132456358055 -0.7543814286213352 0
          1.0633079024392973 -0.4766985192001849 0 0.610466936042427 -0.36576907759042543 0
          1.1870020260007454 0 0 1.2055711103583544 -0.6647973345357054 0
          0.5398707537188154 -0.18813572616811983 0 1.689984656302351 -0.6008310519469235 0
          0.910323012991907 -1.0444293847732677 0 0.7247213696811113 0.05036256853842358 0
          0.4679346987096262 -0.7584329853626144 0 1.599314936811049 -1.1050535232457583 0
          0.6782035262207007 -0.29396070291739074 0 0.715070465424207 -1.1292813847430558 0
          1.3424524429076778 -0.7842996147471891 0 0.3077943200178802 -0.5742295193195496 0
          0.989560467908665 -1.6092633400902407 0 1.4151720523259224 0 0
          0.2693933586802342 -1.154891655544455 0 0.4193627542732154 -0.24243672441590958 0
          1.325665562305696 -1.3636741765788105 0 -0.10748199270940698 -0.5928346164408123 0
          0.2388254810746206 -1.4640705657137403 0 2.4676079403287656 -1.1662376160298755 0
          0.17155393463599594 -0.7056315582865323 0 1.3423555210882423 -2.844783012980564 0
          -0.419444146867047 -1.1686396320345271 0 3.7006652351793083 -3.414890065000094 0
          0.9310597155184579 -0.37092548558009725 0 -0.9900318435448094 -2.850759385830191 0
          0.9285778830483015 0 0 0.00852875349225125 -0.3936575487682601 0
          1.1721849685260426 -1.9259499111016263 0 -0.6036690987789731 -0.9788398838028693 0
          -0.9712029703044255 -0.06748946826902223 0 -1.8110338949564888 0.8536102108194861 0
          0.10484786289179394 0 0 0.22331061161665805 -0.37465413142582954 0
          -0.4262419157293735 -0.15612862060581117 0 -0.01437542214794784 -0.6434362208330848 0
          0 0 0 0.20145263284205486 0 0
          0 0 0 0 0 0
          0 0 0 0 0 0
          1.3185116926592875 -0.10438371940095942 0 1.5168735868885077 -0.33399033639306647 0
          1.0772401144661177 0 0 2.5192022758089845 0.16183577498411217 0
          2.0760687396092234 -1.6158654133058836 0 2.8565784004020243 -1.0816976810908931 0
          1.1214225480711666 -0.8888945445730158 0 1.6070670509755256 4.019602434168087 0
          0 0 0
          <InformationKey name="L2_NORM_RANGE" location="vtkDataArray" length="2">
            <Value index="0">
              0
            </Value>
            <Value index="1">
              5.0355136122
            </Value>
          </InformationKey>
        </DataArray>
        <DataArray type="Float64" Name="Pressure" format="ascii" RangeMin="-21.288977951827857" RangeMax="0.728332144340772">
          0.0739969608442828 -0.2065291280285006 0.14290208198722482 -0.13517702660727893 -0.141804988095171 -0.09783516850180785
          0.034419225328844914 -0.30598110103892373 -0.10950169091448973 -0.14209731253789148 -0.10778329642391175 -0.07387812003901373
          -0.12740718683844535 -0.11365233625804005 -0.14184533829942686 -0.1253532485573061 -0.13208320162530715 -0.11964106007361405
          -0.1347764877014115 -0.11756469223726998 -0.1381444693826258 -0.1420196082629322 -0.10649031495223688 -0.14401223870055316
          -0.12926201326903405 -0.14116755463933311 -0.0936781150298962 -0.14734317278908288 -0.13940870569236044 -0.19229414308869938
          -0.11237083740931127 -0.07671054387969338 -0.28011702849353864 -0.13296639588816866 -0.15871110931395027 -0.21067033081625564
          -0.2251092144452776 -0.2760092770755419 -0.2596769930476549 -0.3050264522857985 -0.30824257105969705 -0.2917000048346915
          -0.410421091477816 -0.6024591878157733 -0.2357714626628511 -0.26690240005684807 -0.498804014499355 -0.6736021482667086
          -0.3172548416276808 -1.2941518278441113 -0.7457527623133124 -0.4452759215249802 -0.6395998053207372 -1.9465952311069643
          -0.6869716455799524 -1.0079394531599963 -0.37767847986084413 -0.6260271317476614 -2.4523812802038005 -0.9355514110491949
          -1.6245188355189455 -0.3139692727438138 -0.3585719307555886 -0.8956721489577784 -2.261156075248436 -4.241011467921872
          -1.75307010894146 -4.4174389718198945 -3.1047007904588395 -13.752465959951161 -1.1617532945502096 -10.50316980706433
          -0.6146707024302093 -1.4062932098891372 -21.288977951827857 -3.2271578592477157 -5.28762357458315 -13.665105024033931
          -0.236818021548532 -1.5392114073529701 -2.1685392324024053 -1.2338638021829549 -0.7739221259189201 -0.6276331058001194
          -1.4338286543568262 -1.6379397761494796 -1.4793753735348767 -1.479913256444204 -0.1878776954675472 0.020790968941253984
          0.22158741494125866 -9.478683811038419 0.728332144340772 -4.803692265920201 -0.2529215996008348 -16.280814603347114
          -2.480723855600134
        </DataArray>
        <DataArray type="Float64" Name="BTraction" NumberOfComponents="3" format="ascii" RangeMin="0" RangeMax="2.932625713963578">
          -0.06219846657040185 0.026611921049767062 0 0.007351460156344826 0.14960299568177124 0
          -0.13029305084790338 0.0014988830584292325 0 0 0 0
          0 0 0 0.0022829124790156564 0.11653583626090183 0
          -0.04200686867492929 -0.04682772144507635 0 0.006486938270143632 -0.21468491583381108 0
          0 0 0 0 0 0
          0.00013049803466938634 0.10650790390203756 0 -0.0028664296126399993 -0.11987846005498197 0
          -0.0006012239154135488 -0.11854995785768119 0 -0.00011635075593351275 0.11343554023290882 0
          0 0 0 0 0 0
          0.00039099405860993654 -0.1331161249478006 0 -0.0002093460217217486 0.11674562320962407 0
          0 0 0 0 0 0
          0 0 0 0.0008379091497910456 -0.13455624632376534 0
          -0.00009744839702014219 0.11576408842029703 0 0 0 0
          0 0 0 0 0 0
          0.0030634066603443394 -0.1324063157705219 0 0.00045643237696098066 0.13892964032206803 0
          0 0 0 0 0 0
          0 0 0 0 0 0
          0.008530852593412774 -0.248235175482684 0 -0.004317917422613747 0.08559531982160655 0
          0 0 0 0 0 0
          0 0 0 0.011566429349933334 -0.31812110186075815 0
          0 0 0 0 0 0
          0 0 0 0 0 0
          0 0 0 0 0 0
          0 0 0 0 0 0
          0.04429405357197388 -0.5202245693043894 0 0 0 0
          0 0 0 0 0 0
          0 0 0 0 0 0
          0 0 0 0 0 0
          0 0 0 0 0 0
          0 0 0 0 0 0
          0 0 0 0.06609305901853652 -0.767578638016216 0
          0 0 0 0 0 0
          0 0 0 0 0 0
          0 0 0 0 0 0
          0 0 0 0 0 0
          0 0 0 0 0 0
          0 0 0 0 0 0
          0.019987710739477204 -0.5524994735087527 0 0 0 0
          0 0 0 0 0 0
          0 0 0 0 0 0
          -0.03567890024394847 -0.2687256373773474 0 0 0 0
          0 0 0 0 0 0
          -0.8918902077964153 -0.2089410243208802 0 0.0009311167393645233 -0.6364382325502792 0
          -1.3175698615726417 0.09276490063697228 0 -1.5949567593947875 0.0691578778101582 0
          -1.5138566383610175 0.02767135444948473 0 -0.7127717193013802 -0.5732894046879629 0
          0 0 0 0 0 0
          -0.005261701605471919 -0.024019064843511805 0 0 0 0
          0 0 0 0 0 0
          0 0 0 0 0 0
          -2.852602643007946 -0.6804055697188732 0
          <InformationKey name="L2_NORM_RANGE" location="vtkDataArray" length="2">
            <Value index="0">
              0
            </Value>
            <Value index="1">
              2.932625714
            </Value>
          </InformationKey>
        </DataArray>
        <DataArray type="Float64" Name="Sigma" NumberOfComponents="6" format="ascii" RangeMin="0.00013909934013686085" RangeMax="1.0948376493432388">
          -0.03880501030530363 0.03900182445646292 0 0.013117240296747153 0 0
          -0.002874048302073515 0.0027145098239839877 0 0.00733826515090916 0 0
          -0.01073650269846577 0.010750266319627378 0 0.001610880869206238 0 0
          0.0030304878381410276 -0.002855107605718059 0 0.0006125303611477126 0 0
          -0.0022841694984109856 0.0021689353381927905 0 -0.0037541993958322348 0 0
          0.002092729018116888 -0.0021966094332990637 0 0.0016384600376851586 0 0
          -0.019982769866226588 0.019832662464443075 0 -0.010567465422996714 0 0
          -0.0013376445395212953 0.0019141768633283603 0 -0.008755284901842386 0 0
          -0.000921750073741414 0.0008884026617874526 0 -0.0002195836960759036 0 0
          -0.0015063214464353131 0.0014881592088081624 0 -0.0004324352502366113 0 0
          0.0004234838559008943 -0.0003661529850203675 0 -0.00019463042755585457 0 0
          0.0025259902446192885 -0.00276317378075393 0 0.006666975409504467 0 0
          0.0006083197170233061 -0.0004914894438446 0 -0.0007140390603354957 0 0
          -0.00007544097930558336 0.00008795433011091607 0 -0.00007695011944542163 0 0
          0.00020377474864233572 -0.0002638818158846716 0 0.0002025098729985096 0 0
          0.00014613622649401018 -0.00012550488175206058 0 -0.00022171857333112813 0 0
          -0.0004701649075936214 0.0004388096841171842 0 -0.00020347567568118957 0 0
          0.00004700309381572182 -0.000056468696477922 0 -0.00019580378293546587 0 0
          0.00021326698567918377 -0.00016166928243015167 0 -0.00041400787442589246 0 0
          -0.0001849635056155397 0.0002343362020261694 0 0.00022482991458166256 0 0
          0.00022274959435746424 -0.0002976929924204175 0 0.00029096851457692557 0 0
          -0.0015890769736429488 0.0015408465868140902 0 -0.0008311632627184596 0 0
          -0.0009562521316974844 0.0010979995700529147 0 -0.00044405261011031975 0 0
          0.001331880830786249 -0.0014229614727392 0 -0.00028547256700846844 0 0
          -0.0000635123168834733 0.00012268419336980302 0 0.0014124459863074474 0 0
          -0.001966782028097482 0.0019227378072829743 0 0.0002611696240834101 0 0
          -0.0015360394224295578 0.0017623368129313782 0 -0.0017075325698930057 0 0
          0.00007661880215117852 -0.0002337343360081914 0 0.0015428918452747495 0 0
          0.0007114166527580711 -0.000758341038461676 0 -0.0006176778886312046 0 0
          -0.0006663034537977661 0.0003451564881074952 0 0.006677088181454143 0 0
          0.004181120933339313 -0.0039127793394181844 0 0.003528856051421084 0 0
          -0.0070532553697934255 0.007588823336294769 0 0.002529022674968061 0 0
          -0.0012166725573508994 0.0011388868268679823 0 -0.011675243295735452 0 0
          -0.007203593146671087 0.006703801333916076 0 -0.0031688432699602713 0 0
          -0.008243918856490534 0.008503472428791042 0 0.005748088500149365 0 0
          0.005448852959229283 -0.005529501173461537 0 0.016611697142149894 0 0
          0.009729251544997763 -0.009842050002739893 0 0.002053260113928498 0 0
          -0.006942499671855972 0.006559593467800627 0 -0.002860542669726969 0 0
          -0.020401344952171708 0.019739312732364764 0 0.011337660099188641 0 0
          -0.013185240551606626 0.013316376954096577 0 0.03605251528585716 0 0
          0.02387679988105284 -0.02384352502760332 0 0.01845127672036568 0 0
          -0.03559144913807087 0.03695897465807848 0 0.027500178644269707 0 0
          0.023235445001133545 -0.022885192509783697 0 -0.01370342862966794 0 0
          0.022795474291240323 -0.024547972541803832 0 0.02138205827911162 0 0
          -0.01622560583733227 0.015494864271915359 0 0.05585216734147556 0 0
          0.04700085810981213 -0.047871254359855994 0 0.10844003269797371 0 0
          -0.0077698432614899254 0.009487202897772705 0 -0.04805938131533292 0 0
          -0.15208715182808313 0.1623019756376205 0 0.07411419524453468 0 0
          0.04098121803053168 -0.0389738735272818 0 0.021312683173633454 0 0
          0.08165075376591283 -0.09147290402142254 0 0.037741299230428134 0 0
          -0.026828539030477466 0.033085549449944164 0 0.13625524561382268 0 0
          -0.0034329746041499437 0.003806586370320141 0 -0.006665098277570208 0 0
          0.036090781751272755 -0.036758320939316 0 0.07459601529372795 0 0
          -0.018572140261693904 0.008482065890330688 0 0.025902805590853742 0 0
          0.08675832939841022 -0.09323274268477945 0 0.017013278110948004 0 0
          0.043627887049506715 -0.04189548131846235 0 0.04726728409969578 0 0
          0.057554342570115005 -0.061790371164038724 0 -0.08280320493361745 0 0
          0.060286053077442704 -0.0588509110428623 0 0.021998774603538856 0 0
          -0.016508005928904963 0.01058475955033173 0 0.1526090381472215 0 0
          0.04704172303779991 -0.051179898107631544 0 -0.0808761458187322 0 0
          0.06554185618923053 -0.0660574226830033 0 0.017470672568678007 0 0
          0.01427676160474695 -0.009059691242913843 0 -0.026707329969255927 0 0
          -0.37325190614619663 0.3848258696288597 0 0.3098010553436956 0 0
          0.02720910668718976 -0.025908635208003013 0 -0.01674273352407859 0 0
          0.26612944863562243 -0.27182727650552263 0 0.32316926479847635 0 0
          -0.3520752697389992 0.35578374050488115 0 0.18535462487608145 0 0
          0.12404897901471588 -0.12455969100564149 0 0.049086492657895935 0 0
          0.06284167797585342 -0.048225427010188476 0 0.4832219284363302 0 0
          0.22080235765215808 -0.2164623682960949 0 -0.05934951238571475 0 0
          -0.20603816303292583 0.18056446116548125 0 -0.14347777044723442 0 0
          0.05449215552347182 -0.05357002506412345 0 -0.019202646092557094 0 0
          0.40832313708240675 -0.40675235681071487 0 0.11538694749000877 0 0
          0.04813362988081028 -0.04963161652916235 0 -0.022596267784970443 0 0
          0.004980482314910486 -0.004140474500305823 0 -0.06057293072542248 0 0
          -0.050936203169866356 0.04695230322722564 0 -0.12932084339691305 0 0
          0.04609178984293763 -0.050408472244704544 0 -0.0890356829230547 0 0
          -0.022530298439558352 0.016729367721773098 0 -0.44751438559391143 0 0
          -0.16809212427603226 0.16113073152108878 0 -0.46809719960990626 0 0
          0.11551457261580005 -0.11800488147405043 0 0.06090135081294407 0 0
          -0.027819706240914746 0.033541466059227545 0 -0.034589406414867574 0 0
          -0.03628993789937036 0.035374920001454105 0 -0.0759025965034899 0 0
          0.0459131705382155 -0.05039267829087556 0 -0.04109659169214742 0 0
          -0.3073470796562212 0.33042293726026206 0 0.16287333720029645 0 0
          0.06797791318341749 -0.05502899472465693 0 -0.005727297602475783 0 0
          0.016068175351810435 -0.021607270993714137 0 -0.16683224682924136 0 0
          0.020795706264253692 -0.02665022732921413 0 -0.05570510107095715 0 0
          0.007989271327163967 -0.0048558177281967305 0 -0.015336439000432996 0 0
          -0.012299707880223786 -0.00714531692854117 0 -0.04870886538417944 0 0
          -0.02179952117424079 0.021688042789561105 0 0.0010594910203171987 0 0
          -0.040625869074565134 0.039174370169300324 0 -0.01351082461341615 0 0
          -0.014676476907038986 0.016602049434237515 0 -0.01538897767494559 0 0
          0.7037456320873678 -0.6863993893722578 0 -0.48194132631137937 0 0
          -0.2962613535630072 0.30730575128752025 0 -0.18375523783624334 0 0
          0.13636254393324126 -0.14480685559571593 0 0.056092778123130814 0 0
          -0.2992241224902725 0.3108173417776188 0 0.03630154546707475 0 0
          0.10453515654503355 -0.10315015743646747 0 0.3383988277001803 0 0
          -0.401119458714538 0.39027107365788916 0 0.8400773561428394 0 0
          <InformationKey name="L2_NORM_RANGE" location="vtkDataArray" length="2">
            <Value index="0">
              0.00013909934014
            </Value>
            <Value index="1">
              1.0948376493
            </Value>
          </InformationKey>
        </DataArray>
        <DataArray type="Float64" Name="ALEdispl" NumberOfComponents="3" format="ascii" RangeMin="0" RangeMax="0">
          0 0 0 0 0 0
          0 0 0 0 0 0
          0 0 0 0 0 0
          0 0 0 0 0 0
          0 0 0 0 0 0
          0 0 0 0 0 0
          0 0 0 0 0 0
          0 0 0 0 0 0
          0 0 0 0 0 0
          0 0 0 0 0 0
          0 0 0 0 0 0
          0 0 0 0 0 0
          0 0 0 0 0 0
          0 0 0 0 0 0
          0 0 0 0 0 0
          0 0 0 0 0 0
          0 0 0 0 0 0
          0 0 0 0 0 0
          0 0 0 0 0 0
          0 0 0 0 0 0
          0 0 0 0 0 0
          0 0 0 0 0 0
          0 0 0 0 0 0
          0 0 0 0 0 0
          0 0 0 0 0 0
          0 0 0 0 0 0
          0 0 0 0 0 0
          0 0 0 0 0 0
          0 0 0 0 0 0
          0 0 0 0 0 0
          0 0 0 0 0 0
          0 0 0 0 0 0
          0 0 0 0 0 0
          0 0 0 0 0 0
          0 0 0 0 0 0
          0 0 0 0 0 0
          0 0 0 0 0 0
          0 0 0 0 0 0
          0 0 0 0 0 0
          0 0 0 0 0 0
          0 0 0 0 0 0
          0 0 0 0 0 0
          0 0 0 0 0 0
          0 0 0 0 0 0
          0 0 0 0 0 0
          0 0 0 0 0 0
          0 0 0 0 0 0
          0 0 0 0 0 0
          0 0 0
          <InformationKey name="L2_NORM_RANGE" location="vtkDataArray" length="2">
            <Value index="0">
              0
            </Value>
            <Value index="1">
              0
            </Value>
          </InformationKey>
        </DataArray>
        <DataArray type="Float64" Name="ALEveloc" NumberOfComponents="3" format="ascii" RangeMin="0" RangeMax="0">
          0 0 0 0 0 0
          0 0 0 0 0 0
          0 0 0 0 0 0
          0 0 0 0 0 0
          0 0 0 0 0 0
          0 0 0 0 0 0
          0 0 0 0 0 0
          0 0 0 0 0 0
          0 0 0 0 0 0
          0 0 0 0 0 0
          0 0 0 0 0 0
          0 0 0 0 0 0
          0 0 0 0 0 0
          0 0 0 0 0 0
          0 0 0 0 0 0
          0 0 0 0 0 0
          0 0 0 0 0 0
          0 0 0 0 0 0
          0 0 0 0 0 0
          0 0 0 0 0 0
          0 0 0 0 0 0
          0 0 0 0 0 0
          0 0 0 0 0 0
          0 0 0 0 0 0
          0 0 0 0 0 0
          0 0 0 0 0 0
          0 0 0 0 0 0
          0 0 0 0 0 0
          0 0 0 0 0 0
          0 0 0 0 0 0
          0 0 0 0 0 0
          0 0 0 0 0 0
          0 0 0 0 0 0
          0 0 0 0 0 0
          0 0 0 0 0 0
          0 0 0 0 0 0
          0 0 0 0 0 0
          0 0 0 0 0 0
          0 0 0 0 0 0
          0 0 0 0 0 0
          0 0 0 0 0 0
          0 0 0 0 0 0
          0 0 0 0 0 0
          0 0 0 0 0 0
          0 0 0 0 0 0
          0 0 0 0 0 0
          0 0 0 0 0 0
          0 0 0 0 0 0
          0 0 0
          <InformationKey name="L2_NORM_RANGE" location="vtkDataArray" length="2">
            <Value index="0">
              0
            </Value>
            <Value index="1">
              0
            </Value>
          </InformationKey>
        </DataArray>
      </PointData>
      <CellData>
        <DataArray type="UInt8" Name="vtkGhostType" format="ascii" RangeMin="0" RangeMax="0">
          0 0 0 0 0 0
          0 0 0 0 0 0
          0 0 0 0 0 0
          0 0 0 0 0 0
          0 0 0 0 0 0
          0 0 0 0 0 0
          0 0 0 0 0 0
          0 0 0 0 0 0
          0 0 0 0 0 0
          0 0 0 0 0 0
          0 0 0 0 0 0
          0 0 0 0 0 0
          0 0 0 0 0 0
          0 0 0 0 0 0
          0 0 0 0 0 0
          0 0 0 0 0 0
          0 0 0 0 0 0
          0 0 0 0 0 0
          0 0 0 0 0 0
          0 0 0 0 0 0
          0 0 0 0 0 0
          0 0 0 0 0 0
          0 0 0 0 0 0
          0 0 0 0 0 0
          0 0 0 0 0 0
          0 0 0 0
        </DataArray>
        <DataArray type="Float64" Name="PStrain" NumberOfComponents="6" format="ascii" RangeMin="0.1732050807568877" RangeMax="0.1732050807568877">
          0.09999999999999999 0.09999999999999999 0 0.09999999999999999 0 0
          0.09999999999999999 0.09999999999999999 0 0.09999999999999999 0 0
          0.09999999999999999 0.09999999999999999 0 0.09999999999999999 0 0
          0.09999999999999999 0.09999999999999999 0 0.09999999999999999 0 0
          0.09999999999999999 0.09999999999999999 0 0.09999999999999999 0 0
          0.09999999999999999 0.09999999999999999 0 0.09999999999999999 0 0
          0.09999999999999999 0.09999999999999999 0 0.09999999999999999 0 0
          0.09999999999999999 0.09999999999999999 0 0.09999999999999999 0 0
          0.09999999999999999 0.09999999999999999 0 0.09999999999999999 0 0
          0.09999999999999999 0.09999999999999999 0 0.09999999999999999 0 0
          0.09999999999999999 0.09999999999999999 0 0.09999999999999999 0 0
          0.09999999999999999 0.09999999999999999 0 0.09999999999999999 0 0
          0.09999999999999999 0.09999999999999999 0 0.09999999999999999 0 0
          0.09999999999999999 0.09999999999999999 0 0.09999999999999999 0 0
          0.09999999999999999 0.09999999999999999 0 0.09999999999999999 0 0
          0.09999999999999999 0.09999999999999999 0 0.09999999999999999 0 0
          0.09999999999999999 0.09999999999999999 0 0.09999999999999999 0 0
          0.09999999999999999 0.09999999999999999 0 0.09999999999999999 0 0
          0.09999999999999999 0.09999999999999999 0 0.09999999999999999 0 0
          0.09999999999999999 0.09999999999999999 0 0.09999999999999999 0 0
          0.09999999999999999 0.09999999999999999 0 0.09999999999999999 0 0
          0.09999999999999999 0.09999999999999999 0 0.09999999999999999 0 0
          0.09999999999999999 0.09999999999999999 0 0.09999999999999999 0 0
          0.09999999999999999 0.09999999999999999 0 0.09999999999999999 0 0
          0.09999999999999999 0.09999999999999999 0 0.09999999999999999 0 0
          0.09999999999999999 0.09999999999999999 0 0.09999999999999999 0 0
          0.09999999999999999 0.09999999999999999 0 0.09999999999999999 0 0
          0.09999999999999999 0.09999999999999999 0 0.09999999999999999 0 0
          0.09999999999999999 0.09999999999999999 0 0.09999999999999999 0 0
          0.09999999999999999 0.09999999999999999 0 0.09999999999999999 0 0
          0.09999999999999999 0.09999999999999999 0 0.09999999999999999 0 0
          0.09999999999999999 0.09999999999999999 0 0.09999999999999999 0 0
          0.09999999999999999 0.09999999999999999 0 0.09999999999999999 0 0
          0.09999999999999999 0.09999999999999999 0 0.09999999999999999 0 0
          0.09999999999999999 0.09999999999999999 0 0.09999999999999999 0 0
          0.09999999999999999 0.09999999999999999 0 0.09999999999999999 0 0
          0.09999999999999999 0.09999999999999999 0 0.09999999999999999 0 0
          0.09999999999999999 0.09999999999999999 0 0.09999999999999999 0 0
          0.09999999999999999 0.09999999999999999 0 0.09999999999999999 0 0
          0.09999999999999999 0.09999999999999999 0 0.09999999999999999 0 0
          0.09999999999999999 0.09999999999999999 0 0.09999999999999999 0 0
          0.09999999999999999 0.09999999999999999 0 0.09999999999999999 0 0
          0.09999999999999999 0.09999999999999999 0 0.09999999999999999 0 0
          0.09999999999999999 0.09999999999999999 0 0.09999999999999999 0 0
          0.09999999999999999 0.09999999999999999 0 0.09999999999999999 0 0
          0.09999999999999999 0.09999999999999999 0 0.09999999999999999 0 0
          0.09999999999999999 0.09999999999999999 0 0.09999999999999999 0 0
          0.09999999999999999 0.09999999999999999 0 0.09999999999999999 0 0
          0.09999999999999999 0.09999999999999999 0 0.09999999999999999 0 0
          0.09999999999999999 0.09999999999999999 0 0.09999999999999999 0 0
          0.09999999999999999 0.09999999999999999 0 0.09999999999999999 0 0
          0.09999999999999999 0.09999999999999999 0 0.09999999999999999 0 0
          0.09999999999999999 0.09999999999999999 0 0.09999999999999999 0 0
          0.09999999999999999 0.09999999999999999 0 0.09999999999999999 0 0
          0.09999999999999999 0.09999999999999999 0 0.09999999999999999 0 0
          0.09999999999999999 0.09999999999999999 0 0.09999999999999999 0 0
          0.09999999999999999 0.09999999999999999 0 0.09999999999999999 0 0
          0.09999999999999999 0.09999999999999999 0 0.09999999999999999 0 0
          0.09999999999999999 0.09999999999999999 0 0.09999999999999999 0 0
          0.09999999999999999 0.09999999999999999 0 0.09999999999999999 0 0
          0.09999999999999999 0.09999999999999999 0 0.09999999999999999 0 0
          0.09999999999999999 0.09999999999999999 0 0.09999999999999999 0 0
          0.09999999999999999 0.09999999999999999 0 0.09999999999999999 0 0
          0.09999999999999999 0.09999999999999999 0 0.09999999999999999 0 0
          0.09999999999999999 0.09999999999999999 0 0.09999999999999999 0 0
          0.09999999999999999 0.09999999999999999 0 0.09999999999999999 0 0
          0.09999999999999999 0.09999999999999999 0 0.09999999999999999 0 0
          0.09999999999999999 0.09999999999999999 0 0.09999999999999999 0 0
          0.09999999999999999 0.09999999999999999 0 0.09999999999999999 0 0
          0.09999999999999999 0.09999999999999999 0 0.09999999999999999 0 0
          0.09999999999999999 0.09999999999999999 0 0.09999999999999999 0 0
          0.09999999999999999 0.09999999999999999 0 0.09999999999999999 0 0
          0.09999999999999999 0.09999999999999999 0 0.09999999999999999 0 0
          0.09999999999999999 0.09999999999999999 0 0.09999999999999999 0 0
          0.09999999999999999 0.09999999999999999 0 0.09999999999999999 0 0
          0.09999999999999999 0.09999999999999999 0 0.09999999999999999 0 0
          0.09999999999999999 0.09999999999999999 0 0.09999999999999999 0 0
          0.09999999999999999 0.09999999999999999 0 0.09999999999999999 0 0
          0.09999999999999999 0.09999999999999999 0 0.09999999999999999 0 0
          0.09999999999999999 0.09999999999999999 0 0.09999999999999999 0 0
          0.09999999999999999 0.09999999999999999 0 0.09999999999999999 0 0
          0.09999999999999999 0.09999999999999999 0 0.09999999999999999 0 0
          0.09999999999999999 0.09999999999999999 0 0.09999999999999999 0 0
          0.09999999999999999 0.09999999999999999 0 0.09999999999999999 0 0
          0.09999999999999999 0.09999999999999999 0 0.09999999999999999 0 0
          0.09999999999999999 0.09999999999999999 0 0.09999999999999999 0 0
          0.09999999999999999 0.09999999999999999 0 0.09999999999999999 0 0
          0.09999999999999999 0.09999999999999999 0 0.09999999999999999 0 0
          0.09999999999999999 0.09999999999999999 0 0.09999999999999999 0 0
          0.09999999999999999 0.09999999999999999 0 0.09999999999999999 0 0
          0.09999999999999999 0.09999999999999999 0 0.09999999999999999 0 0
          0.09999999999999999 0.09999999999999999 0 0.09999999999999999 0 0
          0.09999999999999999 0.09999999999999999 0 0.09999999999999999 0 0
          0.09999999999999999 0.09999999999999999 0 0.09999999999999999 0 0
          0.09999999999999999 0.09999999999999999 0 0.09999999999999999 0 0
          0.09999999999999999 0.09999999999999999 0 0.09999999999999999 0 0
          0.09999999999999999 0.09999999999999999 0 0.09999999999999999 0 0
          0.09999999999999999 0.09999999999999999 0 0.09999999999999999 0 0
          0.09999999999999999 0.09999999999999999 0 0.09999999999999999 0 0
          0.09999999999999999 0.09999999999999999 0 0.09999999999999999 0 0
          0.09999999999999999 0.09999999999999999 0 0.09999999999999999 0 0
          0.09999999999999999 0.09999999999999999 0 0.09999999999999999 0 0
          0.09999999999999999 0.09999999999999999 0 0.09999999999999999 0 0
          0.09999999999999999 0.09999999999999999 0 0.09999999999999999 0 0
          0.09999999999999999 0.09999999999999999 0 0.09999999999999999 0 0
          0.09999999999999999 0.09999999999999999 0 0.09999999999999999 0 0
          0.09999999999999999 0.09999999999999999 0 0.09999999999999999 0 0
          0.09999999999999999 0.09999999999999999 0 0.09999999999999999 0 0
          0.09999999999999999 0.09999999999999999 0 0.09999999999999999 0 0
          0.09999999999999999 0.09999999999999999 0 0.09999999999999999 0 0
          0.09999999999999999 0.09999999999999999 0 0.09999999999999999 0 0
          0.09999999999999999 0.09999999999999999 0 0.09999999999999999 0 0