<?xml version="1.0"?>
<VTKFile type="UnstructuredGrid" version="0.1" byte_order="LittleEndian" header_type="UInt32" compressor="vtkZLibDataCompressor">
  <UnstructuredGrid>
    <Piece NumberOfPoints="38" NumberOfCells="54">
      <PointData>
        <DataArray type="Float64" Name="ale_BC" NumberOfComponents="3" format="ascii" RangeMin="0" RangeMax="1">
          0 0 0 0 0 0
          0 0 0 0 0 0
          0 0 0 0 0 0
          0 0 0 0 0 0
          0 0 0 1 0 0
          0 0 0 0 0 0
          0 0 0 0 0 0
          1 0 0 0 0 0
          0 0 0 1 0 0
          0 0 0 0 0 0
          1 0 0 0 0 0
          0 0 0 0 0 0
          0 0 0 0 0 0
          0 0 0 0 0 0
          0 0 0 0 0 0
          0 0 0 0 0 0
          0 0 0 0 0 0
          0 0 0 0 0 0
          0 0 0 0 0 0
          <InformationKey name="L2_NORM_RANGE" location="vtkDataArray" length="2">
            <Value index="0">
              0
            </Value>
            <Value index="1">
              1
            </Value>
          </InformationKey>
        </DataArray>
        <DataArray type="Float64" Name="ale_FIXNO" NumberOfComponents="3" format="ascii" RangeMin="1.4142135623730951" RangeMax="3.1622776601683795">
          1 1 0 1 1 0
          1 1 0 -1 -1 0
          -1 -1 0 1 1 0
          1 1 0 -1 -1 0
          -1 -1 0 1 1 0
          -1 -1 0 1 1 0
          1 1 0 -1 -1 0
          1 1 0 -1 -1 0
          -1 -1 0 1 1 0
          -1 -1 0 1 1 0
          1 1 0 -1 -1 0
          1 1 0 1 3 0
          -1 -1 0 -1 -1 0
          1 3 0 -1 -1 0
          -1 -1 0 -1 -1 0
          1 1 0 1 1 0
          1 3 0 1 1 0
          -1 -1 0 1 3 0
          1 1 0 1 1 0
          <InformationKey name="L2_NORM_RANGE" location="vtkDataArray" length="2">
            <Value index="0">
              1.4142135624
            </Value>
            <Value index="1">
              3.1622776602
            </Value>
          </InformationKey>
        </DataArray>
        <DataArray type="Float64" Name="nsi_BC" NumberOfComponents="3" format="ascii" RangeMin="0" RangeMax="1">
          0 0 0 0 0 0
          0 0 0 0 0 0
          0 0 0 0 0 0
          0 0 0 0 0 0
          0 0 0 0 0 0
          0 0 0 0 0 0
          0 0 0 0 0 0
          0 0 0 0 0 0
          0 0 0 0 0 0
          0 0 0 0 0 0
          0 0 0 0 0 0
          0 0 0 0 0 0
          0 0 0 0 0 0
          0 0 0 0 0 0
          0 0 0 0 0 0
          0 0 0 1 0 0
          0 0 0 1 0 0
          0 0 0 0 0 0
          1 0 0 0 0 0
          <InformationKey name="L2_NORM_RANGE" location="vtkDataArray" length="2">
            <Value index="0">
              0
            </Value>
            <Value index="1">
              1
            </Value>
          </InformationKey>
        </DataArray>
        <DataArray type="Float64" Name="nsi_FIXNO" NumberOfComponents="3" format="ascii" RangeMin="1.4142135623730951" RangeMax="1.4142135623730951">
          1 1 0 1 1 0
          -1 -1 0 -1 -1 0
          -1 -1 0 1 1 0
          -1 -1 0 -1 -1 0
          -1 -1 0 1 1 0
          -1 -1 0 1 1 0
          -1 -1 0 -1 -1 0
          1 1 0 -1 -1 0
          -1 -1 0 1 1 0
          -1 -1 0 1 1 0
          1 1 0 -1 -1 0
          1 1 0 1 1 0
          -1 -1 0 -1 -1 0
          1 1 0 -1 -1 0
          -1 -1 0 -1 -1 0
          1 1 0 1 1 0
          1 1 0 1 1 0
          -1 -1 0 1 1 0
          1 1 0 1 1 0
          <InformationKey name="L2_NORM_RANGE" location="vtkDataArray" length="2">
            <Value index="0">
              1.4142135624
            </Value>
            <Value index="1">
              1.4142135624
            </Value>
          </InformationKey>
        </DataArray>
        <DataArray type="Float64" Name="Velocity" NumberOfComponents="3" format="ascii" RangeMin="0" RangeMax="1.2387366756945724">
          0 0 0 0 0 0
          0.9165648273658996 -0.026786285815533637 0 1.0121970137990226 0.3077033589609085 0
          0.9040385705632413 0.17942102215965655 0 0 0 0
          1.0241417695419337 0.038992830564366275 0 1.1925561480386617 0.07519123510465799 0
          0.5665544928704638 0.010165173772247517 0 0.00999683350593914 0 0
          0.9556694986876438 -0.05462744408097995 0 0 0 0
          0.9850575061701429 0.03868593883266279 0 1.2358213181550155 -0.08493657224329289 0
          0.009996833505939136 0 0 0.9033603713899144 0.027279301483624268 0
          1.1818759457988375 -0.17856297675571683 0 0.009996833505939128 0 0
          1.0890329323018462 -0.3068529106474162 0 0 0 0
          0.009996833505939138 0 0 1.238262672669309 0.029606671394679433 0
          0 0 0 0 0 0
          0.6167153764388842 -0.024973485783903522 0 0.7848985485775208 -0.07670923374429943 0
          0 0 0 1.100578288706079 -0.11499776422033647 0
          1.1315758745436155 0.20978773318286859 0 0.8910022170590192 0.2580626553355593 0
          0 0 0 0.9999999998629491 0 0
          0 0 0 0.9999999998629491 0 0
          0.8521336025259303 0.1755463517614319 0 0 0 0
          0.9999999998629491 0 0 0 0 0
          <InformationKey name="L2_NORM_RANGE" location="vtkDataArray" length="2">
            <Value index="0">
              0
            </Value>
            <Value index="1">
              1.2387366757
            </Value>
          </InformationKey>
        </DataArray>
        <DataArray type="Float64" Name="Pressure" format="ascii" RangeMin="0" RangeMax="22.678119034579275">
          0 3.992243994452502 0 4.458938660350039 2.1792618568265008 8.818396607160635
          0 8.755669941180967 4.937583286703742 8.497514979162442 2.4007326351931697 14.525974026398442
          0 14.814282262046907 8.599479067608089 2.9026980504078788 6.094602312062179 16.7043122144453
          19.07456146520531 19.49897434818145 16.84334726990693 11.927155148071888 0 4.213124695359334
          20.1137333633088 21.309871246796337 9.022279074984267 21.654680928118 17.236170815847213 20.52769439427755
          22.04741478397144 22.359340906206373 14.364206542178726 22.678119034579275 19.94220511839187 18.826785396147987
          21.73380194828333 20.817990092946644
        </DataArray>
        <DataArray type="Float64" Name="ALEdispl" NumberOfComponents="3" format="ascii" RangeMin="0" RangeMax="0.00299955001969346">
          0 0 0 0 0 0
          0 0 0 0.0009670747846240547 0 0
          0.0006056153634891718 0 0 0 0 0
          0 0 0 0.0011491200559061083 0 0
          0.0016896263395866796 0 0 0.00299955001969346 0 0
          0.0006327859694948228 0 0 0 0 0
          0 0 0 0.0013422636079863399 0 0
          0.0029995500196934597 0 0 0.0003790020706885839 0 0
          0.0010898847365266408 0 0 0.0029995500196934592 0 0
          0.001284762621856116 0 0 0 0 0
          0.0029995500196934597 0 0 0.0013552943460487274 0 0
          0 0 0 0 0 0
          0.0016300909270801783 0 0 0.00035167524097692095 0 0
          0 0 0 0.000616295907830212 0 0
          0.0009787791171655296 0 0 0.0010207552209746445 0 0
          0 0 0 0 0 0
          0 0 0 0 0 0
          0.00041134213622345795 0 0 0 0 0
          0 0 0 0 0 0
          <InformationKey name="L2_NORM_RANGE" location="vtkDataArray" length="2">
            <Value index="0">
              0
            </Value>
            <Value index="1">
              0.0029995500197
            </Value>
          </InformationKey>
        </DataArray>
        <DataArray type="Float64" Name="ALEveloc" NumberOfComponents="3" format="ascii" RangeMin="0" RangeMax="0.009996833507309212">
          0 0 0 0 0 0
          0 0 0 0.003223045305972786 0 0
          0.0020183813967164692 0 0 0 0 0
          0 0 0 0.0038297617320537892 0 0
          0.005631149037527473 0 0 0.009996833507309212 0 0
          0.002108934987337688 0 0 0 0 0
          0 0 0 0.004473466261226371 0 0
          0.009996833507309212 0 0 0.0012631296610237574 0 0
          0.0036323435787638057 0 0 0.009996833507309202 0 0
          0.004281828255166823 0 0 0 0 0
          0.009996833507309212 0 0 0.004516894814853343 0 0
          0 0 0 0 0 0
          0.005432730740546614 0 0 0.00117205541151416 0 0
          0 0 0 0.0020539772770464563 0 0
          0.0032620532448179827 0 0 0.0034019502688083115 0 0
          0 0 0 0 0 0
          0 0 0 0 0 0
          0.0013709119112429577 0 0 0 0 0
          0 0 0 0 0 0
          <InformationKey name="L2_NORM_RANGE" location="vtkDataArray" length="2">
            <Value index="0">
              0
            </Value>
            <Value index="1">
              0.0099968335073
            </Value>
          </InformationKey>
        </DataArray>
      </PointData>
      <CellData>
        <DataArray type="UInt8" Name="vtkGhostType" format="ascii" RangeMin="0" RangeMax="0">
          0 0 0 0 0 0
          0 0 0 0 0 0
          0 0 0 0 0 0
          0 0 0 0 0 0
          0 0 0 0 0 0
          0 0 0 0 0 0
          0 0 0 0 0 0
          0 0 0 0 0 0
          0 0 0 0 0 0
        </DataArray>
      </CellData>
      <Points>
        <DataArray type="Float32" Name="Points" NumberOfComponents="3" format="ascii" RangeMin="0.27486616442409084" RangeMax="4.3142984182665565">
          3.42372989654541 -1.1242899894714355 0 2.454237937927246 -1.1288100481033325 0
          3.361582040786743 -0.11299250274896622 0 2.235898971557617 0.03558244928717613 0
          2.7337710857391357 0.5622639060020447 0 1.484745979309082 -1.13332998752594 0
          3.2994349002838135 0.8983049988746643 0 1.4636809825897217 -0.3740426003932953 0
          2.0009939670562744 0.8546469211578369 0 1.401129961013794 0.41242900490760803 0
          2.639246940612793 1.318418025970459 0 0.515254020690918 -1.137850046157837 0
          3.2372870445251465 1.9096020460128784 0 0.4851810038089752 -0.291694700717926 0
          1.31072998046875 1.1355899572372437 0 2.5410780906677246 2.125011920928955 0
          1.834494948387146 1.8600540161132812 0 0.2598870098590851 0.4802260100841522 0
          -0.27462801337242126 0.011439519934356213 0 -0.45423799753189087 -1.1423699855804443 0
          0.1468929946422577 1.1468900442123413 0 0.7959300875663757 1.9558650255203247 0
          3.175139904022217 2.9209001064300537 0 2.228247880935669 2.8711841106414795 0
          -0.39127838611602783 0.712766706943512 0 -0.9148772954940796 -0.4425585865974426 0
          1.2813559770584106 2.8214681148529053 0 -0.9641628861427307 0.2571151852607727 0
          -0.13235770165920258 1.9994369745254517 0 -0.6724379062652588 1.3821619749069214 0
          -1.4237300157546997 -1.1468900442123413 0 -1.4576270580291748 -0.19208750128746033 0
          0.33446401357650757 2.771752119064331 0 -1.4915250539779663 0.7627149820327759 0
          -0.8304513096809387 2.0797200202941895 0 -0.6124280095100403 2.7220358848571777 0
          -1.5254219770431519 1.7175179719924927 0 -1.5593199729919434 2.6723198890686035 0
          <InformationKey name="L2_NORM_RANGE" location="vtkDataArray" length="2">
            <Value index="0">
              0.27486616442
            </Value>
            <Value index="1">
              4.3142984183
            </Value>
          </InformationKey>
        </DataArray>
      </Points>
      <Cells>
        <DataArray type="Int64" Name="connectivity" format="ascii" RangeMin="0" RangeMax="37">
          17 20 24 24 20 29
          17 24 18 29 20 28
          24 29 33 18 24 27
          17 18 13 14 9 8
          28 20 21 27 24 33
          27 33 31 27 31 25
          13 18 19 29 28 34
          18 27 25 18 25 19
          19 25 30 17 13 9
          8 9 3 14 8 16
          21 20 14 21 14 16
          28 21 32 34 28 35
          29 34 36 3 9 7
          8 3 4 16 8 10
          25 31 30 7 9 13
          4 3 2 10 8 4
          10 4 6 6 4 2
          10 6 12 3 7 1
          16 10 15 10 12 15
          15 12 22 16 23 26
          22 23 15 15 23 16
          26 32 21 35 37 34
          35 28 32 37 36 34
          36 33 29 11 5 7
          7 5 1 1 0 2
          19 11 13 13 11 7
          21 16 26 2 3 1
        </DataArray>
        <DataArray type="Int64" Name="offsets" format="ascii" RangeMin="3" RangeMax="162">
          3 6 9 12 15 18
          21 24 27 30 33 36
          39 42 45 48 51 54
          57 60 63 66 69 72
          75 78 81 84 87 90
          93 96 99 102 105 108
          111 114 117 120 123 126
          129 132 135 138 141 144
          147 150 153 156 159 162
        </DataArray>
        <DataArray type="UInt8" Name="types" format="ascii" RangeMin="5" RangeMax="5">
          5 5 5 5 5 5
          5 5 5 5 5 5
          5 5 5 5 5 5
          5 5 5 5 5 5
          5 5 5 5 5 5
          5 5 5 5 5 5
          5 5 5 5 5 5
          5 5 5 5 5 5
          5 5 5 5 5 5
        </DataArray>
      </Cells>
    </Piece>
  </UnstructuredGrid>
</VTKFile>
