<?xml version="1.0"?>
<VTKFile type="UnstructuredGrid" version="0.1" byte_order="LittleEndian" header_type="UInt32" compressor="vtkZLibDataCompressor">
  <UnstructuredGrid>
    <Piece NumberOfPoints="13" NumberOfCells="14">
      <PointData>
        <DataArray type="Float64" Name="Disp" NumberOfComponents="3" format="ascii" RangeMin="0" RangeMax="0.08503426866285513">
          0.04696865104727352 -0.0048918945882827965 0 0.07467030327770519 0.006713185541642798 0
          0.015470105310040925 -0.006714313458683962 0 0.031225045803640165 0.0010697881111199133 0
          0 0 0 0.04626840248836833 0.008008855162674897 0
          0.005796874348514914 -0.000010739906038341883 0 0.01603551429147219 0.007592971382582803 0
          0 0 0 0.061296441190722695 0.0020322953460045604 0
          0.08026293652864258 0.003254238675137541 0 0.08487308218101969 0.005233236868373482 0
          0.07485066782537111 -0.000996827530278681 0
          <InformationKey name="L2_NORM_RANGE" location="vtkDataArray" length="2">
            <Value index="0">
              0
            </Value>
            <Value index="1">
              0.085034268663
            </Value>
          </InformationKey>
        </DataArray>
        <DataArray type="Float64" Name="Nodal Stress" NumberOfComponents="6" format="ascii" RangeMin="0.813330452515488" RangeMax="39.98224362074854">
          0.7601767505868253 15.059569800783645 0 1.7173645410957379 0 0
          -1.4851993774986407 -1.2839954078685396 0 0.1366001111587768 0 0
          -1.4122955282624758 -6.1275747545289905 0 2.9481600830579713 0 0
          -1.919569465686615 8.545486662483686 0 5.7788225619151605 0 0
          11.48270735648377 -17.09976336753293 0 17.34548632077081 0 0
          -1.676121912869539 1.9852891655803395 0 1.5370879287213248 0 0
          2.9363773945991754 7.909232606827763 0 10.309195035511495 0 0
          -2.33880728803904 21.782164069330058 0 3.341670273731542 0 0
          2.7383074419269584 36.11428050294742 0 16.936357963175166 0 0
          -0.3195053543583144 8.445244166443102 0 0.6472868613332766 0 0
          0.8005792184128899 7.683751676150458 0 -0.9445410735148736 0 0
          -0.4331270314680449 -0.43034330659094167 0 -0.5373193073704894 0 0
          0.8681195589658629 17.376588444442138 0 0.5160858853069339 0 0
          <InformationKey name="L2_NORM_RANGE" location="vtkDataArray" length="2">
            <Value index="0">
              0.81333045252
            </Value>
            <Value index="1">
              39.982243621
            </Value>
          </InformationKey>
        </DataArray>
        <DataArray type="Float64" Name="Nodal Strain" NumberOfComponents="6" format="ascii" RangeMin="0" RangeMax="0">
          0 0 0 0 0 0
          0 0 0 0 0 0
          0 0 0 0 0 0
          0 0 0 0 0 0
          0 0 0 0 0 0
          0 0 0 0 0 0
          0 0 0 0 0 0
          0 0 0 0 0 0
          0 0 0 0 0 0
          0 0 0 0 0 0
          0 0 0 0 0 0
          0 0 0 0 0 0
          0 0 0 0 0 0
          <InformationKey name="L2_NORM_RANGE" location="vtkDataArray" length="2">
            <Value index="0">
              0
            </Value>
            <Value index="1">
              0
            </Value>
          </InformationKey>
        </DataArray>
        <DataArray type="Float64" Name="Sld_traction" NumberOfComponents="3" format="ascii" RangeMin="0" RangeMax="22.345214635061108">
          1.5686242612209411 0.09098356193390494 0 2.8237911204277126 -0.3309875621822084 0
          0.5956867536096588 2.5095202556310174 0 0 0 0
          -0.6068937113160541 13.476686649589363 0 2.9024937601431517 -0.057737168526993406 0
          0 0 0 2.5993640081486276 -2.5728105467229496 0
          -7.954820644949983 -20.881318100005725 0 0 0 0
          0 0 0 2.2659314489136335 -0.09872796293101643 0
          2.15787511939333 0.7574160385314079 0
          <InformationKey name="L2_NORM_RANGE" location="vtkDataArray" length="2">
            <Value index="0">
              0
            </Value>
            <Value index="1">
              22.345214635
            </Value>
          </InformationKey>
        </DataArray>
        <DataArray type="Float64" Name="Fld_traction" NumberOfComponents="3" format="ascii" RangeMin="0" RangeMax="3.754085919462962">
          1.7075589586342939 -0.051230317912063394 0 3.074120001105328 -0.04476307308022066 0
          0.9823541989741598 -0.02710455312466098 0 0 0 0
          0.33247658732572816 0.27846031079810113 0 3.3116437424114062 -0.0385035943725291 0
          0 0 0 3.753679913533796 0.055210483089587786 0
          1.868186425351254 -1.880663509694582 0 0 0 0
          0 0 0 2.153575846420466 0.21550534155146975 0
          3.1940257605947084 0.19162969300201801 0
          <InformationKey name="L2_NORM_RANGE" location="vtkDataArray" length="2">
            <Value index="0">
              0
            </Value>
            <Value index="1">
              3.7540859195
            </Value>
          </InformationKey>
        </DataArray>
        <DataArray type="Float64" Name="Velocity" NumberOfComponents="3" format="ascii" RangeMin="0" RangeMax="0.23053016115780814">
          0.1226057284831435 -0.018604644050581466 0 0.2041026765349326 0.012074554417095412 0
          0.03431283904019279 -0.017783606983509805 0 0.07697935736302298 0.0006167740163873772 0
          0 0 0 0.11944236028640445 0.020082545850032132 0
          0.01209772000051457 -0.00005609774555379807 0 0.034858559899418634 0.018253590968103035 0
          0 0 0 0.1650387532067027 0.00045689230673986135 0
          0.219343534621335 0.0006127711629764724 0 0.23048470984967429 0.00457752432614518 0
          0.2060743275081996 -0.010084031349293317 0
          <InformationKey name="L2_NORM_RANGE" location="vtkDataArray" length="2">
            <Value index="0">
              0
            </Value>
            <Value index="1">
              0.23053016116
            </Value>
          </InformationKey>
        </DataArray>
        <DataArray type="Float64" Name="Sigma" NumberOfComponents="6" format="ascii" RangeMin="3.9191174892803176" RangeMax="57.05074533264798">
          -11.881828999774182 11.881828999773862 0 0.6469948841572837 0 0
          4.221571098816377 -4.221571098816313 0 0.28277029240704543 0 0
          9.507144553981384 -9.50714455398124 0 -2.221664810814105 0 0
          -5.538482273789675 5.538482273789825 0 12.123380273755224 0 0
          36.33779495960804 -36.337794959607834 0 24.777345660050813 0 0
          3.386435029700816 -3.3864350297010053 0 0.15149826776428696 0 0
          -2.2576950913610823 2.257695091360838 0 9.394533686625202 0 0
          -20.877552766840275 20.877552766840452 0 -0.830133611987327 0 0
          -36.158444491160566 36.15844449116098 0 23.167942505042888 0 0
          -4.453738612543619 4.453738612543467 0 0.7496422629903698 0 0
          -3.298973632514537 3.2989736325143197 0 -2.4833826186146157 0 0
          2.7680067781302777 -2.768006778130564 0 0.18910009844247577 0 0
          -12.974066891056289 12.974066891056028 0 1.0986498180986328 0 0
          <InformationKey name="L2_NORM_RANGE" location="vtkDataArray" length="2">
            <Value index="0">
              3.9191174893
            </Value>
            <Value index="1">
              57.050745333
            </Value>
          </InformationKey>
        </DataArray>
        <DataArray type="Float64" Name="Press" format="ascii" RangeMin="-14.65327400348971" RangeMax="35.389049413175975">
          15.029624206956084 -6.946889630861962 -14.65327400348971 3.6476901511873874 -12.999131285761088 -6.345773500214243
          4.475926904160049 18.001687861054712 35.389049413175975 4.157366815017939 4.7106505380072115 -5.855426797592801
          14.141455538859649
        </DataArray>
      </PointData>
      <CellData>
        <DataArray type="UInt8" Name="vtkGhostType" format="ascii" RangeMin="0" RangeMax="1">
          0 0 1 1 1 1
          1 1 0 0 0 0
          0 0
        </DataArray>
        <DataArray type="Float64" Name="Gauss Stress" NumberOfComponents="6" format="ascii" RangeMin="4.245748390851516" RangeMax="40.463326491342976">
          -1.2963754549762367 3.979069024745405 0 3.516236782366135 0 0
          -0.567445128644605 8.788472367263966 0 4.3072911418922635 0 0
          -0.03597168695240163 8.596783368125365 0 0.5160451383039801 0 0
          -1.4670205486718109 -3.9274233782933674 0 -0.6705040759216986 0 0
          -0.04875099291651752 7.9855619569196445 0 -0.3673208360363124 0 0
          -0.618100560589302 8.18605570926627 0 0.7103541244986828 0 0
          1.3396040191531942 20.879360354735674 0 0.8317623217487621 0 0
          -1.9936762666948977 -4.09652127734404 0 0.3946369410539008 0 0
          8.26250013622044 9.648063218162985 0 19.11327395057297 0 0
          6.8035886790458635 -22.25457426910632 0 10.650071511953971 0 0
          -0.47567605699039517 39.05345217591767 0 10.577447526560258 0 0
          -1.9345875141649724 7.150814688648367 0 2.114245087941258 0 0
          -3.304262159298725 7.968331498467148 0 3.0238606169845963 0 0
          -2.575331832967092 12.777734840985715 0 3.814914976510726 0 0
          <InformationKey name="L2_NORM_RANGE" location="vtkDataArray" length="2">
            <Value index="0">
              4.2457483909
            </Value>
            <Value index="1">
              40.463326491
            </Value>
          </InformationKey>
        </DataArray>
        <DataArray type="Float64" Name="Gauss Strain" NumberOfComponents="6" format="ascii" RangeMin="0" RangeMax="0">
          0 0 0 0 0 0
          0 0 0 0 0 0
          0 0 0 0 0 0
          0 0 0 0 0 0
          0 0 0 0 0 0
          0 0 0 0 0 0
          0 0 0 0 0 0
          0 0 0 0 0 0
          0 0 0 0 0 0
          0 0 0 0 0 0
          0 0 0 0 0 0
          0 0 0 0 0 0
          0 0 0 0 0 0
          0 0 0 0 0 0
          <InformationKey name="L2_NORM_RANGE" location="vtkDataArray" length="2">
            <Value index="0">
              0
            </Value>
            <Value index="1">
              0
            </Value>
          </InformationKey>
        </DataArray>
        <DataArray type="Float64" Name="Btraction" NumberOfComponents="3" format="ascii" RangeMin="0" RangeMax="2.3551144695791435">
          0.8966377192028179 -0.02611162367890812 0 0 0 0
          0 0 0 1.7425652825085978 0.05691408949041636 0
          0 0 0 0 0 0
          1.633861573076334 0.04679979169665152 0 2.128587914505578 -0.027755555817583245 0
          0 0 0 0.43827692876662916 0.08378525255781337 0
          1.8739554462950165 -0.6084843422016648 0 0 0 0
          0 0 0 2.355107885315067 0.005568962905686228 0
          <InformationKey name="L2_NORM_RANGE" location="vtkDataArray" length="2">
            <Value index="0">
              0
            </Value>
            <Value index="1">
              2.3551144696
            </Value>
          </InformationKey>
        </DataArray>
      </CellData>
      <Points>
        <DataArray type="Float32" Name="Points" NumberOfComponents="3" format="ascii" RangeMin="10" RangeMax="13.021927811442218">
          11 3.7184319496154785 0 10 6.2815680503845215 0
          11 1.6591010093688965 0 10.5 2.6568450927734375 0
          11 0 0 10 3.61250901222229 0
          10.5 0.8241099119186401 0 10 1.6373380422592163 0
          10 0 0 10.5 5 0
          10.5 7.3431549072265625 0 10 8.340899467468262 0
          11 6.387491226196289 0
          <InformationKey name="L2_NORM_RANGE" location="vtkDataArray" length="2">
            <Value index="0">
              10
            </Value>
            <Value index="1">
              13.021927811
            </Value>
          </InformationKey>
        </DataArray>
      </Points>
      <Cells>
        <DataArray type="Int64" Name="connectivity" format="ascii" RangeMin="0" RangeMax="12">
          3 2 0 5 3 0
          5 0 9 10 11 1
          12 10 1 12 1 9
          9 0 12 5 9 1
          8 4 6 6 4 2
          8 6 7 6 2 7
          7 2 3 7 3 5
        </DataArray>
        <DataArray type="Int64" Name="offsets" format="ascii" RangeMin="3" RangeMax="42">
          3 6 9 12 15 18
          21 24 27 30 33 36
          39 42
        </DataArray>
        <DataArray type="UInt8" Name="types" format="ascii" RangeMin="5" RangeMax="5">
          5 5 5 5 5 5
          5 5 5 5 5 5
          5 5
        </DataArray>
      </Cells>
    </Piece>
  </UnstructuredGrid>
</VTKFile>
