<?xml version="1.0"?>
<VTKFile type="UnstructuredGrid" version="0.1" byte_order="LittleEndian" header_type="UInt32" compressor="vtkZLibDataCompressor">
  <UnstructuredGrid>
    <Piece NumberOfPoints="13" NumberOfCells="14">
      <PointData>
        <DataArray type="Float64" Name="Disp" NumberOfComponents="3" format="ascii" RangeMin="0" RangeMax="0.14431915909960522">
          0.07772597113179008 -0.010193940470797582 0 0.12695207622316812 0.009233042038109375 0
          0.02385765886466805 -0.011245412848160824 0 0.050298700175474054 0.0009303513009601635 0
          0 0 0 0.07610311026491677 0.012783517111972422 0
          0.008706033649964773 -0.000029559181794485735 0 0.02442629547639856 0.012001938122820686 0
          0 0 0 0.10323108753084442 0.0015676992632855102 0
          0.1366561588907216 0.002648793224125108 0 0.1442095020918438 0.005624872410967211 0
          0.1277266581248773 -0.00441303772087172 0
          <InformationKey name="L2_NORM_RANGE" location="vtkDataArray" length="2">
            <Value index="0">
              0
            </Value>
            <Value index="1">
              0.1443191591
            </Value>
          </InformationKey>
        </DataArray>
        <DataArray type="Float64" Name="Nodal Stress" NumberOfComponents="6" format="ascii" RangeMin="3.090125500936947" RangeMax="59.16717318633076">
          0.9484265660987677 17.955194773934426 0 3.1041452014807818 0 0
          -1.2364004900191585 -7.953378660015065 0 0.18939523759456142 0 0
          -1.6170690063039534 -16.83585959155831 0 4.54033993756057 0 0
          -1.765687138269871 9.268266930798164 0 10.344974604687762 0 0
          14.828036912304746 -33.067433581713715 0 24.326266888370107 0 0
          -1.539064544994368 -0.1255311647352666 0 2.6766392854776497 0 0
          3.3882394227147867 8.537563813596796 0 13.65074677488651 0 0
          -1.8673507932870281 34.06448202058605 0 5.352604063439816 0 0
          1.1511156437123489 53.79543731683844 0 24.606508072584468 0 0
          -0.2700166515915835 8.712550529240898 0 1.7659780358593273 0 0
          1.208951529530931 6.9256000819201535 0 -2.675413670940715 0 0
          -0.3346758043281864 -5.014310281215943 0 -1.1552976226564113 0 0
          0.8080523484627803 23.635189513910017 0 0.8471507326987339 0 0
          <InformationKey name="L2_NORM_RANGE" location="vtkDataArray" length="2">
            <Value index="0">
              3.0901255009
            </Value>
            <Value index="1">
              59.167173186
            </Value>
          </InformationKey>
        </DataArray>
        <DataArray type="Float64" Name="Nodal Strain" NumberOfComponents="6" format="ascii" RangeMin="0" RangeMax="0">
          0 0 0 0 0 0
          0 0 0 0 0 0
          0 0 0 0 0 0
          0 0 0 0 0 0
          0 0 0 0 0 0
          0 0 0 0 0 0
          0 0 0 0 0 0
          0 0 0 0 0 0
          0 0 0 0 0 0
          0 0 0 0 0 0
          0 0 0 0 0 0
          0 0 0 0 0 0
          0 0 0 0 0 0
          <InformationKey name="L2_NORM_RANGE" location="vtkDataArray" length="2">
            <Value index="0">
              0
            </Value>
            <Value index="1">
              0
            </Value>
          </InformationKey>
        </DataArray>
        <DataArray type="Float64" Name="Sld_traction" NumberOfComponents="3" format="ascii" RangeMin="0" RangeMax="31.969059957079978">
          1.626644395465245 0.03388542527584149 0 2.5333207221987086 -0.6567984643359269 0
          0.5755933290762735 4.011232397479547 0 0 0 0
          -1.797052599833689 22.201133409187136 0 2.6670816162055204 0.08323603730964481 0
          0 0 0 2.212447549222727 -3.7164851301542643 0
          -10.129402910268988 -30.321873148287008 0 0 0 0
          0 0 0 2.2503044547896915 -0.23421536352717906 0
          1.930889122865854 1.029546776533622 0
          <InformationKey name="L2_NORM_RANGE" location="vtkDataArray" length="2">
            <Value index="0">
              0
            </Value>
            <Value index="1">
              31.969059957
            </Value>
          </InformationKey>
        </DataArray>
        <DataArray type="Float64" Name="Fld_traction" NumberOfComponents="3" format="ascii" RangeMin="0" RangeMax="3.341824362524699">
          1.9594636704004613 -0.040351158376939235 0 2.9206665707381276 -0.026215505799464328 0
          1.464607285966181 -0.02487372710991957 0 0 0 0
          0.5926385076880503 0.5086546114619146 0 2.9140390552129327 -0.029405986911361245 0
          0 0 0 3.341362407841113 0.0555637420432633 0
          1.7368981431635722 -1.783597374941928 0 0 0 0
          0 0 0 2.0379655574377007 0.20900497062755038 0
          2.882826162642502 0.20493125971854745 0
          <InformationKey name="L2_NORM_RANGE" location="vtkDataArray" length="2">
            <Value index="0">
              0
            </Value>
            <Value index="1">
              3.3418243625
            </Value>
          </InformationKey>
        </DataArray>
        <DataArray type="Float64" Name="Velocity" NumberOfComponents="3" format="ascii" RangeMin="0" RangeMax="0.36104505195231934">
          0.18398468136641818 -0.0343120567287494 0 0.3171416983674309 0.01297600231454938 0
          0.04919545086413672 -0.027382402832746927 0 0.113078733956164 -0.0020270369187343155 0
          0 0 0 0.17793511379916221 0.027514513583122 0
          0.016852455663273425 -0.00013169975185785922 0 0.0486737511647605 0.02567750200267968 0
          0 0 0 0.2530252496906505 -0.005138929148457497 0
          0.34287513509397105 -0.0067433048588831715 0 0.36104418349459183 -0.0007918989685931979 0
          0.3211144867159771 -0.024047630745843478 0
          <InformationKey name="L2_NORM_RANGE" location="vtkDataArray" length="2">
            <Value index="0">
              0
            </Value>
            <Value index="1">
              0.36104505195
            </Value>
          </InformationKey>
        </DataArray>
        <DataArray type="Float64" Name="Sigma" NumberOfComponents="6" format="ascii" RangeMin="7.140814349453007" RangeMax="89.40789265809876">
          -15.573013452617127 15.573013452616483 0 0.9090392826801628 0 0
          11.890678852891185 -11.890678852891174 0 0.4879625424970665 0 0
          21.3643161432629 -21.36431614326258 0 -3.153273098547151 0 0
          -5.902194393161551 5.9021943931616025 0 21.500827219359277 0 0
          58.06894101915962 -58.068941019158956 0 35.35205011578411 0 0
          6.959737824374411 -6.959737824374809 0 -0.2615464638171286 0 0
          -2.318217249160799 2.3182172491607145 0 10.631609068687954 0 0
          -33.62486788679953 33.62486788679992 0 -0.7240255301249459 0 0
          -57.66851003416697 57.66851003416815 0 35.211768081655066 0 0
          -4.699449518742859 4.699449518742779 0 2.7790065321974002 0 0
          -2.380440499304239 2.380440499303659 0 -6.297478513810198 0 0
          7.033267552434623 -7.03326755243533 0 0.3322437527460484 0 0
          -20.422366231442645 20.42236623144241 0 1.8771206971868946 0 0
          <InformationKey name="L2_NORM_RANGE" location="vtkDataArray" length="2">
            <Value index="0">
              7.1408143495
            </Value>
            <Value index="1">
              89.407892658
            </Value>
          </InformationKey>
        </DataArray>
        <DataArray type="Float64" Name="Press" format="ascii" RangeMin="-28.603107754991548" RangeMax="50.93601984402446">
          19.408876320531284 -14.15796495651209 -28.603107754991548 4.22064026641226 -26.154731245706593 -10.1431647418831
          4.788376607523545 32.80601645464259 50.93601984402446 4.394139375727558 4.594348407036569 -9.91901592939432
          21.100341306927113
        </DataArray>
      </PointData>
      <CellData>
        <DataArray type="UInt8" Name="vtkGhostType" format="ascii" RangeMin="0" RangeMax="1">
          0 0 1 1 1 1
          1 1 0 0 0 0
          0 0
        </DataArray>
        <DataArray type="Float64" Name="Gauss Stress" NumberOfComponents="6" format="ascii" RangeMin="6.833855278119777" RangeMax="62.57199001497059">
          -1.6948276235212612 -1.620899821844164 0 6.418864467830767 0 0
          -0.34303939211460777 9.333940622154568 0 7.382773346074104 0 0
          0.11570860246338885 8.990858700453394 0 1.1421664503534779 0 0
          -0.9797088576160906 -12.008712794964225 0 -1.8257574061890285 0 0
          0.2081989598652979 7.482950878435503 0 -1.310798424708745 0 0
          -0.6315403903839126 8.189217541145537 0 1.7146965906271205 0 0
          1.402842600127774 28.532728735329204 0 1.855055504021486 0 0
          -1.918674388048299 -11.352652493730279 0 1.0018075369591126 0 0
          9.21729298055775 10.495817156670459 0 27.06514242204238 0 0
          9.04852584002904 -42.361500768811794 0 14.27679536197497 0 0
          -1.6937274213122384 60.714002692106455 0 15.039783873406027 0 0
          -1.8624945618409467 7.856684766624213 0 2.2514368133386213 0 0
          -3.246399056878292 8.862098367587421 0 5.874509530229059 0 0
          -1.8946108254716394 19.81693881158616 0 6.8384184084724 0 0
          <InformationKey name="L2_NORM_RANGE" location="vtkDataArray" length="2">
            <Value index="0">
              6.8338552781
            </Value>
            <Value index="1">
              62.571990015
            </Value>
          </InformationKey>
        </DataArray>
        <DataArray type="Float64" Name="Gauss Strain" NumberOfComponents="6" format="ascii" RangeMin="0" RangeMax="0">
          0 0 0 0 0 0
          0 0 0 0 0 0
          0 0 0 0 0 0
          0 0 0 0 0 0
          0 0 0 0 0 0
          0 0 0 0 0 0
          0 0 0 0 0 0
          0 0 0 0 0 0
          0 0 0 0 0 0
          0 0 0 0 0 0
          0 0 0 0 0 0
          0 0 0 0 0 0
          0 0 0 0 0 0
          0 0 0 0 0 0
          <InformationKey name="L2_NORM_RANGE" location="vtkDataArray" length="2">
            <Value index="0">
              0
            </Value>
            <Value index="1">
              0
            </Value>
          </InformationKey>
        </DataArray>
        <DataArray type="Float64" Name="Btraction" NumberOfComponents="3" format="ascii" RangeMin="0" RangeMax="2.0851520512671446">
          1.141356985455547 -0.021741628495619593 0 0 0 0
          0 0 0 1.6528773760586093 0.060929821609362 0
          0 0 0 0 0 0
          1.614096611014321 0.054860033780536055 0 1.94490187531702 -0.018540497570275188 0
          0 0 0 0.6857485978847435 0.1612602947839983 0
          1.6927535170015613 -0.5760112109662214 0 0 0 0
          0 0 0 2.0851338210180153 0.008719251710634018 0
          <InformationKey name="L2_NORM_RANGE" location="vtkDataArray" length="2">
            <Value index="0">
              0
            </Value>
            <Value index="1">
              2.0851520513
            </Value>
          </InformationKey>
        </DataArray>
      </CellData>
      <Points>
        <DataArray type="Float32" Name="Points" NumberOfComponents="3" format="ascii" RangeMin="10" RangeMax="13.021927811442218">
          11 3.7184319496154785 0 10 6.2815680503845215 0
          11 1.6591010093688965 0 10.5 2.6568450927734375 0
          11 0 0 10 3.61250901222229 0
          10.5 0.8241099119186401 0 10 1.6373380422592163 0
          10 0 0 10.5 5 0
          10.5 7.3431549072265625 0 10 8.340899467468262 0
          11 6.387491226196289 0
          <InformationKey name="L2_NORM_RANGE" location="vtkDataArray" length="2">
            <Value index="0">
              10
            </Value>
            <Value index="1">
              13.021927811
            </Value>
          </InformationKey>
        </DataArray>
      </Points>
      <Cells>
        <DataArray type="Int64" Name="connectivity" format="ascii" RangeMin="0" RangeMax="12">
          3 2 0 5 3 0
          5 0 9 10 11 1
          12 10 1 12 1 9
          9 0 12 5 9 1
          8 4 6 6 4 2
          8 6 7 6 2 7
          7 2 3 7 3 5
        </DataArray>
        <DataArray type="Int64" Name="offsets" format="ascii" RangeMin="3" RangeMax="42">
          3 6 9 12 15 18
          21 24 27 30 33 36
          39 42
        </DataArray>
        <DataArray type="UInt8" Name="types" format="ascii" RangeMin="5" RangeMax="5">
          5 5 5 5 5 5
          5 5 5 5 5 5
          5 5
        </DataArray>
      </Cells>
    </Piece>
  </UnstructuredGrid>
</VTKFile>
