<?xml version="1.0"?>
<VTKFile type="UnstructuredGrid" version="0.1" byte_order="LittleEndian" header_type="UInt32" compressor="vtkZLibDataCompressor">
  <UnstructuredGrid>
    <Piece NumberOfPoints="13" NumberOfCells="14">
      <PointData>
        <DataArray type="Float64" Name="Disp" NumberOfComponents="3" format="ascii" RangeMin="0" RangeMax="0.051873143379902974">
          0.029174933136983303 -0.0022894963205300142 0 0.04521883358949183 0.004886242851273533 0
          0.010475944721639527 -0.004146031103887431 0 0.02002784490566857 0.0009324343418099219 0
          0 0 0 0.028914679752905854 0.0050460330848760915 0
          0.004030856657404409 -0.000003401662042467009 0 0.010940133131365149 0.004917668920111147 0
          0 0 0 0.037425748947619186 0.001874559685965747 0
          0.04865376987419999 0.0030528082994076364 0 0.05168082364674484 0.004462675352972806 0
          0.045125580302881975 0.00032693369889211644 0
          <InformationKey name="L2_NORM_RANGE" location="vtkDataArray" length="2">
            <Value index="0">
              0
            </Value>
            <Value index="1">
              0.05187314338
            </Value>
          </InformationKey>
        </DataArray>
        <DataArray type="Float64" Name="Nodal Stress" NumberOfComponents="6" format="ascii" RangeMin="1.77896358606557" RangeMax="27.132179730700845">
          0.6102526203934819 11.84343263844227 0 0.9588082804345781 0 0
          -1.7172937761772127 1.5963300524067983 0 0.13773088028662536 0 0
          -1.1753262576584027 -1.5383546646548338 0 1.954423970148865 0 0
          -1.8635174709419544 6.656287384596454 0 3.082096648069623 0 0
          8.237944065289598 -9.42782008866957 0 12.842558138387982 0 0
          -1.8213101433064125 2.237127701368886 0 0.8922312497358591 0 0
          1.9929398020235125 6.0692106446022445 0 8.091146821309536 0 0
          -2.571702886934751 13.48801331764704 0 2.156178314924399 0 0
          2.4189387832104017 24.0785641392819 0 12.268930723279103 0 0
          -0.4466691537189598 7.288194880677631 0 0.19516200020302685 0 0
          0.5265919494067363 7.669175978562089 0 0.028415794017095108 0 0
          -0.5616459407970659 1.6765192504518391 0 -0.19633766983911896 0 0
          0.8866504119402832 13.227054522579376 0 0.3876444943993536 0 0
          <InformationKey name="L2_NORM_RANGE" location="vtkDataArray" length="2">
            <Value index="0">
              1.7789635861
            </Value>
            <Value index="1">
              27.132179731
            </Value>
          </InformationKey>
        </DataArray>
        <DataArray type="Float64" Name="Nodal Strain" NumberOfComponents="6" format="ascii" RangeMin="0" RangeMax="0">
          0 0 0 0 0 0
          0 0 0 0 0 0
          0 0 0 0 0 0
          0 0 0 0 0 0
          0 0 0 0 0 0
          0 0 0 0 0 0
          0 0 0 0 0 0
          0 0 0 0 0 0
          0 0 0 0 0 0
          0 0 0 0 0 0
          0 0 0 0 0 0
          0 0 0 0 0 0
          0 0 0 0 0 0
          <InformationKey name="L2_NORM_RANGE" location="vtkDataArray" length="2">
            <Value index="0">
              0
            </Value>
            <Value index="1">
              0
            </Value>
          </InformationKey>
        </DataArray>
        <DataArray type="Float64" Name="Sld_traction" NumberOfComponents="3" format="ascii" RangeMin="0" RangeMax="15.675731791510717">
          1.5412605917697797 0.11907257906939439 0 3.113720830374671 -0.1860750996260693 0
          0.6257244356635137 1.7113003419006605 0 0 0 0
          -0.4798046062383091 8.893451783245073 0 3.096370012670375 -0.13257335126833278 0
          0 0 0 2.940963179503279 -1.8054952188452338 0
          -5.888621043497079 -14.52765326559879 0 0 0 0
          0 0 0 2.3730230433217896 -0.03612265927676699 0
          2.2929998000372334 0.5579674719106075 0
          <InformationKey name="L2_NORM_RANGE" location="vtkDataArray" length="2">
            <Value index="0">
              0
            </Value>
            <Value index="1">
              15.675731792
            </Value>
          </InformationKey>
        </DataArray>
        <DataArray type="Float64" Name="Fld_traction" NumberOfComponents="3" format="ascii" RangeMin="0" RangeMax="3.550894047349117">
          1.1305318876125074 -0.0640716885718252 0 2.9238912403186603 -0.06125093340738266 0
          0.449914970615631 -0.029570922068069938 0 0 0 0
          0.05155601717869416 -0.011420663682944374 0 3.032912522561022 -0.04770606391677335 0
          0 0 0 3.5504406822203234 0.056740616266291954 0
          1.8334945833681546 -1.8470420699582981 0 0 0 0
          0 0 0 2.0340665073749333 0.2471216186773116 0
          2.520219759983489 0.16915007853149502 0
          <InformationKey name="L2_NORM_RANGE" location="vtkDataArray" length="2">
            <Value index="0">
              0
            </Value>
            <Value index="1">
              3.5508940473
            </Value>
          </InformationKey>
        </DataArray>
        <DataArray type="Float64" Name="Velocity" NumberOfComponents="3" format="ascii" RangeMin="0" RangeMax="0.09904829129573824">
          0.053304241522741505 -0.007508581704148742 0 0.0877778780289386 0.005743965963484518 0
          0.015269640574389495 -0.007682431683842632 0 0.033772204712098824 0.0005170821629836564 0
          0 0 0 0.052052626260938595 0.008912179427930211 0
          0.005444272295790548 -0.000020613222382981293 0 0.01561786292750944 0.008091635786212248 0
          0 0 0 0.07126128829680117 0.0007101504021462222 0
          0.0942168315917577 0.0009932938066687068 0 0.0990098265214836 0.002760119705943174 0
          0.08852252092952612 -0.0035997329246137766 0
          <InformationKey name="L2_NORM_RANGE" location="vtkDataArray" length="2">
            <Value index="0">
              0
            </Value>
            <Value index="1">
              0.099048291296
            </Value>
          </InformationKey>
        </DataArray>
        <DataArray type="Float64" Name="Sigma" NumberOfComponents="6" format="ascii" RangeMin="0.6135860089647704" RangeMax="37.73352873846788">
          -8.74391495041564 8.743914950415425 0 0.5043850984924604 0 0
          0.4239236670861707 -0.4239236670860891 0 0.130633990086086 0 0
          3.803411471546164 -3.8034114715460543 0 -1.6480671408232939 0 0
          -4.440591336631012 4.440591336631277 0 6.570870451191729 0 0
          23.47066530872316 -23.47066530872324 0 17.94644619384507 0 0
          1.508342013733587 -1.508342013733723 0 0.3230996008079076 0 0
          -1.8612322312347223 1.8612322312343714 0 8.28286942535856 0 0
          -12.952841933619165 12.952841933619318 0 -0.7990084630493092 0 0
          -23.388256381007697 23.388256381007782 0 16.094235131238253 0 0
          -3.883163679337491 3.883163679337234 0 -0.017602712054867187 0 0
          -3.627955024422419 3.6279550244224117 0 -0.35126043498250814 0 0
          0.679298773204431 -0.6792987732045233 0 0.11356692826278143 0 0
          -8.596241266308084 8.59624126630782 0 0.6736269541697946 0 0
          <InformationKey name="L2_NORM_RANGE" location="vtkDataArray" length="2">
            <Value index="0">
              0.61358600896
            </Value>
            <Value index="1">
              37.733528738
            </Value>
          </InformationKey>
        </DataArray>
        <DataArray type="Float64" Name="Press" format="ascii" RangeMin="-7.2266639000354775" RangeMax="24.344221906532198">
          11.37595950310943 -3.5402275776131313 -7.2266639000354775 2.5823140965590787 -7.09874659973071 -4.446799787008714
          3.3098769508680737 9.145261569115188 24.344221906532198 3.4675014869322944 4.566427659513572 -4.00281288448504
          10.108764752001505
        </DataArray>
      </PointData>
      <CellData>
        <DataArray type="UInt8" Name="vtkGhostType" format="ascii" RangeMin="0" RangeMax="1">
          0 0 1 1 1 1
          1 1 0 0 0 0
          0 0
        </DataArray>
        <DataArray type="Float64" Name="Gauss Stress" NumberOfComponents="6" format="ascii" RangeMin="1.8403036746954071" RangeMax="26.210999788613492">
          -0.8831617052891534 5.370901505044559 0 1.809062802953632 0 0
          -0.7215634868844236 7.0625460286575885 0 2.466118383497365 0 0
          -0.24069180432884443 7.171799273017314 0 0.269960662415167 0 0
          -1.8337817955721387 -0.15062673948426553 0 -0.035686505544546956 0 0
          -0.22176926324746127 7.645079152515364 0 0.1510001697577909 0 0
          -0.6731475390795776 7.36383997995988 0 0.2622194107336713 0 0
          1.2429686153273378 15.391848546034568 0 0.3868031135357959 0 0
          -2.1568079587357616 -0.8562092930573768 0 0.14537695961304214 0 0
          6.258842984716766 7.444725187062833 0 14.107850250147294 0 0
          4.799103666712162 -12.14279269931101 0 8.193749492793446 0 0
          -0.4676567064487084 25.000563657458983 0 7.859365364515835 0 0
          -1.9273960244533122 5.413045771085141 0 1.9452646071619863 0 0
          -3.0297033443550756 6.030311188114447 0 1.374598282439708 0 0
          -2.868105125950346 7.721955711727476 0 2.0316538629834415 0 0
          <InformationKey name="L2_NORM_RANGE" location="vtkDataArray" length="2">
            <Value index="0">
              1.8403036747
            </Value>
            <Value index="1">
              26.210999789
            </Value>
          </InformationKey>
        </DataArray>
        <DataArray type="Float64" Name="Gauss Strain" NumberOfComponents="6" format="ascii" RangeMin="0" RangeMax="0">
          0 0 0 0 0 0
          0 0 0 0 0 0
          0 0 0 0 0 0
          0 0 0 0 0 0
          0 0 0 0 0 0
          0 0 0 0 0 0
          0 0 0 0 0 0
          0 0 0 0 0 0
          0 0 0 0 0 0
          0 0 0 0 0 0
          0 0 0 0 0 0
          0 0 0 0 0 0
          0 0 0 0 0 0
          0 0 0 0 0 0
          <InformationKey name="L2_NORM_RANGE" location="vtkDataArray" length="2">
            <Value index="0">
              0
            </Value>
            <Value index="1">
              0
            </Value>
          </InformationKey>
        </DataArray>
        <DataArray type="Float64" Name="Btraction" NumberOfComponents="3" format="ascii" RangeMin="0" RangeMax="2.1944531346617477">
          0.5268156194093794 -0.031214203546631708 0 0 0 0
          0 0 0 1.652652582564531 0.0619568950899763 0
          0 0 0 0 0 0
          1.2169172158653316 0.035026129986556596 0 1.9856012542932266 -0.036318999108052 0
          0 0 0 0.16715699593144168 -0.013663861917004768 0
          1.7946450885294927 -0.5967671512306687 0 0 0 0
          0 0 0 2.194451068260448 0.0030115174498395354 0
          <InformationKey name="L2_NORM_RANGE" location="vtkDataArray" length="2">
            <Value index="0">
              0
            </Value>
            <Value index="1">
              2.1944531347
            </Value>
          </InformationKey>
        </DataArray>
      </CellData>
      <Points>
        <DataArray type="Float32" Name="Points" NumberOfComponents="3" format="ascii" RangeMin="10" RangeMax="13.021927811442218">
          11 3.7184319496154785 0 10 6.2815680503845215 0
          11 1.6591010093688965 0 10.5 2.6568450927734375 0
          11 0 0 10 3.61250901222229 0
          10.5 0.8241099119186401 0 10 1.6373380422592163 0
          10 0 0 10.5 5 0
          10.5 7.3431549072265625 0 10 8.340899467468262 0
          11 6.387491226196289 0
          <InformationKey name="L2_NORM_RANGE" location="vtkDataArray" length="2">
            <Value index="0">
              10
            </Value>
            <Value index="1">
              13.021927811
            </Value>
          </InformationKey>
        </DataArray>
      </Points>
      <Cells>
        <DataArray type="Int64" Name="connectivity" format="ascii" RangeMin="0" RangeMax="12">
          3 2 0 5 3 0
          5 0 9 10 11 1
          12 10 1 12 1 9
          9 0 12 5 9 1
          8 4 6 6 4 2
          8 6 7 6 2 7
          7 2 3 7 3 5
        </DataArray>
        <DataArray type="Int64" Name="offsets" format="ascii" RangeMin="3" RangeMax="42">
          3 6 9 12 15 18
          21 24 27 30 33 36
          39 42
        </DataArray>
        <DataArray type="UInt8" Name="types" format="ascii" RangeMin="5" RangeMax="5">
          5 5 5 5 5 5
          5 5 5 5 5 5
          5 5
        </DataArray>
      </Cells>
    </Piece>
  </UnstructuredGrid>
</VTKFile>
