<?xml version="1.0"?>
<VTKFile type="UnstructuredGrid" version="0.1" byte_order="LittleEndian" header_type="UInt32" compressor="vtkZLibDataCompressor">
  <UnstructuredGrid>
    <Piece NumberOfPoints="13" NumberOfCells="14">
      <PointData>
        <DataArray type="Float64" Name="Disp" NumberOfComponents="3" format="ascii" RangeMin="0" RangeMax="0.18314823689747206">
          0.09724604036101703 -0.01406296255859489 0 0.16099022552943087 0.010428087022330166 0
          0.02900676479072946 -0.01417660898950362 0 0.06221554629954429 0.0006081546662676401 0
          0 0 0 0.09493521426920334 0.015604301175695506 0
          0.010452908023920331 -0.000045275077328922714 0 0.029471237322114353 0.01466493335835456 0
          0 0 0 0.13026757712316395 0.000812803127665218 0
          0.17353282965017716 0.0016619122876964753 0 0.18307231355956916 0.005273014943970823 0
          0.16222088983450264 -0.0072852176639823015 0
          <InformationKey name="L2_NORM_RANGE" location="vtkDataArray" length="2">
            <Value index="0">
              0
            </Value>
            <Value index="1">
              0.1831482369
            </Value>
          </InformationKey>
        </DataArray>
        <DataArray type="Float64" Name="Nodal Stress" NumberOfComponents="6" format="ascii" RangeMin="4.4902288738147975" RangeMax="69.52806740759459">
          1.021209842628326 18.1217173909772 0 4.032858437604402 0 0
          -1.145532799449744 -13.273633958994292 0 0.25404921378114786 0 0
          -1.6153216168790172 -25.3624900978604 0 5.471975509711014 0 0
          -1.4974993841626156 8.16359597119881 0 13.202110702996888 0 0
          15.56285627576204 -44.85694943927865 0 28.21116216650835 0 0
          -1.4964652204831783 -2.4997324784433617 0 3.4167359744849675 0 0
          2.964391928690676 7.37385884360024 0 15.423551314708194 0 0
          -1.4928268878216377 40.63139369963853 0 6.603458130087568 0 0
          -1.158186630348779 63.09735774683154 0 29.181059037201802 0 0
          -0.33304648408565624 7.7810997106248285 0 2.6841256996079594 0 0
          1.4280462400360157 5.884824394082833 0 -3.822746377670679 0 0
          -0.33746438828051095 -8.547929284599107 0 -1.5689715278373095 0 0
          0.7423764774433734 26.984336428523783 0 1.1204208249058016 0 0
          <InformationKey name="L2_NORM_RANGE" location="vtkDataArray" length="2">
            <Value index="0">
              4.4902288738
            </Value>
            <Value index="1">
              69.528067408
            </Value>
          </InformationKey>
        </DataArray>
        <DataArray type="Float64" Name="Nodal Strain" NumberOfComponents="6" format="ascii" RangeMin="0" RangeMax="0">
          0 0 0 0 0 0
          0 0 0 0 0 0
          0 0 0 0 0 0
          0 0 0 0 0 0
          0 0 0 0 0 0
          0 0 0 0 0 0
          0 0 0 0 0 0
          0 0 0 0 0 0
          0 0 0 0 0 0
          0 0 0 0 0 0
          0 0 0 0 0 0
          0 0 0 0 0 0
          0 0 0 0 0 0
          <InformationKey name="L2_NORM_RANGE" location="vtkDataArray" length="2">
            <Value index="0">
              0
            </Value>
            <Value index="1">
              0
            </Value>
          </InformationKey>
        </DataArray>
        <DataArray type="Float64" Name="Sld_traction" NumberOfComponents="3" format="ascii" RangeMin="0" RangeMax="36.926891686034914">
          1.6518064637623615 0.024203827245514745 0 2.433077072798861 -0.9408554953533246 0
          0.5760789881642174 5.081899052065385 0 0 0 0
          -3.124238706364527 28.219605776700494 0 2.536602591338976 0.16061545300945176 0
          0 0 0 2.0496970345789203 -4.334391658381786 0
          -10.643665675900857 -35.35969047618777 0 0 0 0
          0 0 0 2.3125361424052864 -0.34745959960363804 0
          1.7604948221199923 1.1527753646176455 0
          <InformationKey name="L2_NORM_RANGE" location="vtkDataArray" length="2">
            <Value index="0">
              0
            </Value>
            <Value index="1">
              36.926891686
            </Value>
          </InformationKey>
        </DataArray>
        <DataArray type="Float64" Name="Fld_traction" NumberOfComponents="3" format="ascii" RangeMin="0" RangeMax="3.0337731401755197">
          2.009659517678336 -0.03591221161264399 0 2.795873744786741 -0.017543113514089975 0
          1.6741534612382527 -0.0239297846170586 0 0 0 0
          0.7072009161536454 0.6019155610890355 0 2.6023322028437397 -0.025380319540988037 0
          0 0 0 3.0332543220836663 0.056104220974816814 0
          1.6440750436550204 -1.7131527936388042 0 0 0 0
          0 0 0 1.9455561905791847 0.21124429501792116 0
          2.5452461134471664 0.2089706697626465 0
          <InformationKey name="L2_NORM_RANGE" location="vtkDataArray" length="2">
            <Value index="0">
              0
            </Value>
            <Value index="1">
              3.0337731402
            </Value>
          </InformationKey>
        </DataArray>
        <DataArray type="Float64" Name="Velocity" NumberOfComponents="3" format="ascii" RangeMin="0" RangeMax="0.41854765789703874">
          0.208358217991154 -0.0428297597816288 0 0.3659345988202549 0.011531853564091303 0
          0.05445328423160306 -0.031458467175109125 0 0.12664094040722018 -0.004151894278004584 0
          0 0 0 0.20070439689382252 0.029464805123443842 0
          0.018353552566702708 -0.00017928940035691012 0 0.05301721341338879 0.028014344607040817 0
          0 0 0 0.2898727235369782 -0.009457964643791195 0
          0.39693974966574175 -0.012360581017943156 0 0.4185106012537023 -0.005569431691039687 0
          0.37103986609100337 -0.03280052872195657 0
          <InformationKey name="L2_NORM_RANGE" location="vtkDataArray" length="2">
            <Value index="0">
              0
            </Value>
            <Value index="1">
              0.4185476579
            </Value>
          </InformationKey>
        </DataArray>
        <DataArray type="Float64" Name="Sigma" NumberOfComponents="6" format="ascii" RangeMin="7.6547172857130565" RangeMax="109.2398448013701">
          -16.836674529215742 16.836674529214804 0 1.0812769779768254 0 0
          17.487983967123753 -17.487983967123792 0 0.5852145626764989 0 0
          30.150270382002894 -30.150270382002393 0 -3.7001213680803025 0 0
          -5.184433840503486 5.184433840503531 0 27.351102533263347 0 0
          71.52681524290657 -71.52681524290561 0 41.245279664972344 0 0
          9.44206806485843 -9.442068064859031 0 -0.6005859916823133 0 0
          -1.9687209802533607 1.9687209802533698 0 10.930072766812449 0 0
          -41.147312524746745 41.14731252474737 0 -0.5520356200529084 0 0
          -70.95317077455883 70.95317077456065 0 42.69145612187952 0 0
          -4.37724228173593 4.377242281735833 0 4.5026877238113645 0 0
          -1.538598979809107 1.5385989798082902 0 -8.832851944962517 0 0
          10.163760432475557 -10.16376043247659 0 0.43057404670400884 0 0
          -25.061582210646762 25.061582210646563 0 2.3978065398251154 0 0
          <InformationKey name="L2_NORM_RANGE" location="vtkDataArray" length="2">
            <Value index="0">
              7.6547172857
            </Value>
            <Value index="1">
              109.2398448
            </Value>
          </InformationKey>
        </DataArray>
        <DataArray type="Float64" Name="Press" format="ascii" RangeMin="-38.180323587472444" RangeMax="58.60886704007618">
          20.966733349454564 -19.551532952721583 -38.180323587472444 3.8153493158306127 -36.30216304377773 -12.84655994368171
          3.9513568865686755 41.9626997281108 58.60886704007618 3.944487139897395 4.250255860607115 -13.002364594794319
          25.468807942032605
        </DataArray>
      </PointData>
      <CellData>
        <DataArray type="UInt8" Name="vtkGhostType" format="ascii" RangeMin="0" RangeMax="1">
          0 0 1 1 1 1
          1 1 0 0 0 0
          0 0
        </DataArray>
        <DataArray type="Float64" Name="Gauss Stress" NumberOfComponents="6" format="ascii" RangeMin="6.725095327926123" RangeMax="75.04814823713764">
          -1.7563596366345346 -7.175800978157108 0 8.244086047719957 0 0
          -0.21450586108577752 8.171521008820918 0 9.277264506519282 0 0
          0.09760393319233443 7.945503097253946 0 1.6611262367019584 0 0
          -0.73016542237286 -18.138929035566957 0 -2.605687778527337 0 0
          0.3517778755286727 6.426576024416406 0 -1.9499436141536333 0 0
          -0.6963594653501747 7.270867551489013 0 2.4952362754376596 0 0
          1.368176469928708 32.21850915099391 0 2.660590413871102 0 0
          -1.9669320020865486 -17.002138502250965 0 1.4957720982685159 0 0
          8.287661456987166 9.2177124649252 0 31.622269517888107 0 0
          9.725744966658201 -56.7464981297787 0 16.158410354568165 0 0
          -3.1820935416010934 72.86404264477235 0 17.68983108954636 0 0
          -1.7440100319300595 6.899832050068461 0 2.225971926226414 0 0
          -2.8612501755927906 7.926400479905841 0 7.699648515043376 0 0
          -1.319396400044032 23.273722466883868 0 8.732826973842705 0 0
          <InformationKey name="L2_NORM_RANGE" location="vtkDataArray" length="2">
            <Value index="0">
              6.7250953279
            </Value>
            <Value index="1">
              75.048148237
            </Value>
          </InformationKey>
        </DataArray>
        <DataArray type="Float64" Name="Gauss Strain" NumberOfComponents="6" format="ascii" RangeMin="0" RangeMax="0">
          0 0 0 0 0 0
          0 0 0 0 0 0
          0 0 0 0 0 0
          0 0 0 0 0 0
          0 0 0 0 0 0
          0 0 0 0 0 0
          0 0 0 0 0 0
          0 0 0 0 0 0
          0 0 0 0 0 0
          0 0 0 0 0 0
          0 0 0 0 0 0
          0 0 0 0 0 0
          0 0 0 0 0 0
          0 0 0 0 0 0
          <InformationKey name="L2_NORM_RANGE" location="vtkDataArray" length="2">
            <Value index="0">
              0
            </Value>
            <Value index="1">
              0
            </Value>
          </InformationKey>
        </DataArray>
        <DataArray type="Float64" Name="Btraction" NumberOfComponents="3" format="ascii" RangeMin="0" RangeMax="1.878556758024115">
          1.2279376596388625 -0.01994733207656753 0 0 0 0
          0 0 0 1.580476645121975 0.06456706050127706 0
          0 0 0 0 0 0
          1.518301877041834 0.057686152716667494 0 1.7994019825434933 -0.014307811018359333 0
          0 0 0 0.7937847924639658 0.19266192549065894 0
          1.559109788579562 -0.5523495242213291 0 0 0 0
          0 0 0 1.8785288416424684 0.010241300477942921 0
          <InformationKey name="L2_NORM_RANGE" location="vtkDataArray" length="2">
            <Value index="0">
              0
            </Value>
            <Value index="1">
              1.878556758
            </Value>
          </InformationKey>
        </DataArray>
      </CellData>
      <Points>
        <DataArray type="Float32" Name="Points" NumberOfComponents="3" format="ascii" RangeMin="10" RangeMax="13.021927811442218">
          11 3.7184319496154785 0 10 6.2815680503845215 0
          11 1.6591010093688965 0 10.5 2.6568450927734375 0
          11 0 0 10 3.61250901222229 0
          10.5 0.8241099119186401 0 10 1.6373380422592163 0
          10 0 0 10.5 5 0
          10.5 7.3431549072265625 0 10 8.340899467468262 0
          11 6.387491226196289 0
          <InformationKey name="L2_NORM_RANGE" location="vtkDataArray" length="2">
            <Value index="0">
              10
            </Value>
            <Value index="1">
              13.021927811
            </Value>
          </InformationKey>
        </DataArray>
      </Points>
      <Cells>
        <DataArray type="Int64" Name="connectivity" format="ascii" RangeMin="0" RangeMax="12">
          3 2 0 5 3 0
          5 0 9 10 11 1
          12 10 1 12 1 9
          9 0 12 5 9 1
          8 4 6 6 4 2
          8 6 7 6 2 7
          7 2 3 7 3 5
        </DataArray>
        <DataArray type="Int64" Name="offsets" format="ascii" RangeMin="3" RangeMax="42">
          3 6 9 12 15 18
          21 24 27 30 33 36
          39 42
        </DataArray>
        <DataArray type="UInt8" Name="types" format="ascii" RangeMin="5" RangeMax="5">
          5 5 5 5 5 5
          5 5 5 5 5 5
          5 5
        </DataArray>
      </Cells>
    </Piece>
  </UnstructuredGrid>
</VTKFile>
