<?xml version="1.0"?>
<VTKFile type="UnstructuredGrid" version="0.1" byte_order="LittleEndian" header_type="UInt32" compressor="vtkZLibDataCompressor">
  <UnstructuredGrid>
    <Piece NumberOfPoints="11" NumberOfCells="12">
      <PointData>
        <DataArray type="Float64" Name="Disp" NumberOfComponents="3" format="ascii" RangeMin="0.0771693054377592" RangeMax="0.1504176266176121">
          0.1503006330941249 0.0013281769678311504 0 0.14387230676375748 0.0005085590760173222 0
          0.1277266581248773 -0.00441303772087172 0 0.14733162927936388 0.00325763406707834 0
          0.1366561588907216 0.002648793224125108 0 0.15032306770565412 0.005332702207764141 0
          0.1442095020918438 0.005624872410967211 0 0.10323108753084442 0.0015676992632855102 0
          0.07610311026491677 0.012783517111972422 0 0.07772597113179008 -0.010193940470797582 0
          0.12695207622316812 0.009233042038109375 0
          <InformationKey name="L2_NORM_RANGE" location="vtkDataArray" length="2">
            <Value index="0">
              0.077169305438
            </Value>
            <Value index="1">
              0.15041762662
            </Value>
          </InformationKey>
        </DataArray>
        <DataArray type="Float64" Name="Nodal Stress" NumberOfComponents="6" format="ascii" RangeMin="2.7600418784053407" RangeMax="23.66416692639338">
          5.814842642032622 10.567606409857584 0 -2.2569097973833054 0 0
          3.4520607668762633 17.883866971775078 0 -0.8087762719430563 0 0
          0.8080523484627803 23.635189513910017 0 0.8471507326987339 0 0
          2.6466317199189215 5.475779409504879 0 -2.697968378617885 0 0
          1.208951529530931 6.9256000819201535 0 -2.675413670940715 0 0
          1.6393242307476168 0.7890119233253046 0 -2.0755499083099687 0 0
          -0.3346758043281864 -5.014310281215943 0 -1.1552976226564113 0 0
          -0.2700166515915835 8.712550529240898 0 1.7659780358593273 0 0
          -1.539064544994368 -0.1255311647352666 0 2.6766392854776497 0 0
          0.9484265660987677 17.955194773934426 0 3.1041452014807818 0 0
          -1.2364004900191585 -7.953378660015065 0 0.18939523759456142 0 0
          <InformationKey name="L2_NORM_RANGE" location="vtkDataArray" length="2">
            <Value index="0">
              2.7600418784
            </Value>
            <Value index="1">
              23.664166926
            </Value>
          </InformationKey>
        </DataArray>
        <DataArray type="Float64" Name="Nodal Strain" NumberOfComponents="6" format="ascii" RangeMin="0" RangeMax="0">
          0 0 0 0 0 0
          0 0 0 0 0 0
          0 0 0 0 0 0
          0 0 0 0 0 0
          0 0 0 0 0 0
          0 0 0 0 0 0
          0 0 0 0 0 0
          0 0 0 0 0 0
          0 0 0 0 0 0
          0 0 0 0 0 0
          0 0 0 0 0 0
          <InformationKey name="L2_NORM_RANGE" location="vtkDataArray" length="2">
            <Value index="0">
              0
            </Value>
            <Value index="1">
              0
            </Value>
          </InformationKey>
        </DataArray>
        <DataArray type="Float64" Name="Sld_traction" NumberOfComponents="3" format="ascii" RangeMin="0" RangeMax="5.1126907205199466">
          4.185957152549316 2.2398623289643025 0 5.078844024844167 0.5873242503042736 0
          1.930889122865854 1.029546776533622 0 0 0 0
          0 0 0 -0.22525487172885658 2.0046221967578473 0
          2.2503044547896915 -0.23421536352717906 0 0 0 0
          2.6670816162055204 0.08323603730964481 0 1.626644395465245 0.03388542527584149 0
          2.5333207221987086 -0.6567984643359269 0
          <InformationKey name="L2_NORM_RANGE" location="vtkDataArray" length="2">
            <Value index="0">
              0
            </Value>
            <Value index="1">
              5.1126907205
            </Value>
          </InformationKey>
        </DataArray>
        <DataArray type="Float64" Name="Fld_traction" NumberOfComponents="3" format="ascii" RangeMin="0" RangeMax="5.266368643377174">
          3.849193531983408 2.2168074984799064 0 5.254412836109004 0.3546610151669757 0
          2.882826162642502 0.20493125971854745 0 0 0 0
          0 0 0 -0.26508646318981904 1.7327107758801994 0
          2.0379655574377007 0.20900497062755038 0 0 0 0
          0 0 0 1.9594636704004613 -0.040351158376939235 0
          2.9206665707381276 -0.026215505799464328 0
          <InformationKey name="L2_NORM_RANGE" location="vtkDataArray" length="2">
            <Value index="0">
              0
            </Value>
            <Value index="1">
              5.2663686434
            </Value>
          </InformationKey>
        </DataArray>
        <DataArray type="Float64" Name="Velocity" NumberOfComponents="3" format="ascii" RangeMin="0.1800498630392054" RangeMax="0.37837982054013825">
          0.37816011957837836 -0.012892344722890105 0 0.3613300885062941 -0.013697716191874335 0
          0.3211144867159771 -0.024047630745843478 0 0.3699332411823262 -0.00743828483098509 0
          0.34287513509397105 -0.0067433048588831715 0 0.3780407118842138 -0.0021670757556606704 0
          0.36104418349459183 -0.0007918989685931979 0 0.2530252496906505 -0.005138929148457497 0
          0.17793511379916221 0.027514513583122 0 0.18398468136641818 -0.0343120567287494 0
          0.3171416983674309 0.01297600231454938 0
          <InformationKey name="L2_NORM_RANGE" location="vtkDataArray" length="2">
            <Value index="0">
              0.18004986304
            </Value>
            <Value index="1">
              0.37837982054
            </Value>
          </InformationKey>
        </DataArray>
        <DataArray type="Float64" Name="Sigma" NumberOfComponents="6" format="ascii" RangeMin="1.2662888669156005" RangeMax="28.942523509433926">
          -1.038953890659523 1.0389538906604672 0 -2.0036160188699927 0 0
          -12.380776675780304 12.380776675780709 0 1.1116396711724923 0 0
          -20.422366231442645 20.42236623144241 0 1.8771206971868946 0 0
          -1.2407901579098695 1.2407901579097262 0 -4.939556201317182 0 0
          -2.380440499304239 2.380440499303659 0 -6.297478513810198 0 0
          -0.03435948016894386 0.03435948016984876 0 -1.2653562133720975 0 0
          7.033267552434623 -7.03326755243533 0 0.3322437527460484 0 0
          -4.699449518742859 4.699449518742779 0 2.7790065321974002 0 0
          6.959737824374411 -6.959737824374809 0 -0.2615464638171286 0 0
          -15.573013452617127 15.573013452616483 0 0.9090392826801628 0 0
          11.890678852891185 -11.890678852891174 0 0.4879625424970665 0 0
          <InformationKey name="L2_NORM_RANGE" location="vtkDataArray" length="2">
            <Value index="0">
              1.2662888669
            </Value>
            <Value index="1">
              28.942523509
            </Value>
          </InformationKey>
        </DataArray>
        <DataArray type="Float64" Name="Press" format="ascii" RangeMin="-14.15796495651209" RangeMax="21.100341306927113">
          10.027964453290432 17.788159301123812 21.100341306927113 3.5134574923412814 4.594348407036569 0.6604036585409341
          -9.91901592939432 4.394139375727558 -10.1431647418831 19.408876320531284 -14.15796495651209
        </DataArray>
      </PointData>
      <CellData>
        <DataArray type="UInt8" Name="vtkGhostType" format="ascii" RangeMin="0" RangeMax="0">
          0 0 0 0 0 0
          0 0 0 0 0 0
        </DataArray>
        <DataArray type="Float64" Name="Gauss Stress" NumberOfComponents="6" format="ascii" RangeMin="4.305212446717483" RangeMax="28.627361166681336">
          3.9625740251447716 5.505309710970897 0 -2.7361761445197574 0 0
          0.004321045281235558 -3.8344242309559506 0 -1.9575562206477444 0 0
          5.556353507468611 15.330033990368811 0 -1.943844183004894 0 0
          1.5981005276050744 5.990300048441961 0 -1.1652242591328812 0 0
          1.5785140520387144 6.730480467138371 0 -1.617865029963885 0 0
          0.11570860246338885 8.990858700453394 0 1.1421664503534779 0 0
          -0.9797088576160906 -12.008712794964225 0 -1.8257574061890285 0 0
          2.7664218695201024 26.22214414053809 0 -1.1029060484836033 0 0
          0.2081989598652979 7.482950878435503 0 -1.310798424708745 0 0
          -0.6315403903839126 8.189217541145537 0 1.7146965906271205 0 0
          1.402842600127774 28.532728735329204 0 1.855055504021486 0 0
          -1.918674388048299 -11.352652493730279 0 1.0018075369591126 0 0
          <InformationKey name="L2_NORM_RANGE" location="vtkDataArray" length="2">
            <Value index="0">
              4.3052124467
            </Value>
            <Value index="1">
              28.627361167
            </Value>
          </InformationKey>
        </DataArray>
        <DataArray type="Float64" Name="Gauss Strain" NumberOfComponents="6" format="ascii" RangeMin="0" RangeMax="0">
          0 0 0 0 0 0
          0 0 0 0 0 0
          0 0 0 0 0 0
          0 0 0 0 0 0
          0 0 0 0 0 0
          0 0 0 0 0 0
          0 0 0 0 0 0
          0 0 0 0 0 0
          0 0 0 0 0 0
          0 0 0 0 0 0
          0 0 0 0 0 0
          0 0 0 0 0 0
          <InformationKey name="L2_NORM_RANGE" location="vtkDataArray" length="2">
            <Value index="0">
              0
            </Value>
            <Value index="1">
              0
            </Value>
          </InformationKey>
        </DataArray>
        <DataArray type="Float64" Name="Btraction" NumberOfComponents="3" format="ascii" RangeMin="0" RangeMax="3.1532716558776075">
          1.1947023562645294 1.3165060914533684 0 0.590959698082627 0.6472385821692498 0
          3.0345354560308033 0.8571561712156273 0 0 0 0
          0 0 0 0 0 0
          1.6528773760586093 0.060929821609362 0 2.712412999583835 0.18653075829517435 0
          0 0 0 0 0 0
          1.614096611014321 0.054860033780536055 0 0 0 0
          <InformationKey name="L2_NORM_RANGE" location="vtkDataArray" length="2">
            <Value index="0">
              0
            </Value>
            <Value index="1">
              3.1532716559
            </Value>
          </InformationKey>
        </DataArray>
      </CellData>
      <Points>
        <DataArray type="Float32" Name="Points" NumberOfComponents="3" format="ascii" RangeMin="10.632507764558053" RangeMax="14.866068747318506">
          11 10 0 11 8.362662315368652 0
          11 6.387491226196289 0 10.5 9.17588996887207 0
          10.5 7.3431549072265625 0 10 10 0
          10 8.340899467468262 0 10.5 5 0
          10 3.61250901222229 0 11 3.7184319496154785 0
          10 6.2815680503845215 0
          <InformationKey name="L2_NORM_RANGE" location="vtkDataArray" length="2">
            <Value index="0">
              10.632507765
            </Value>
            <Value index="1">
              14.866068747
            </Value>
          </InformationKey>
        </DataArray>
      </Points>
      <Cells>
        <DataArray type="Int64" Name="connectivity" format="ascii" RangeMin="0" RangeMax="10">
          0 5 3 3 5 6
          0 3 1 3 6 1
          1 6 4 8 9 7
          4 6 10 1 4 2
          2 4 10 2 10 7
          7 9 2 8 7 10
        </DataArray>
        <DataArray type="Int64" Name="offsets" format="ascii" RangeMin="3" RangeMax="36">
          3 6 9 12 15 18
          21 24 27 30 33 36
        </DataArray>
        <DataArray type="UInt8" Name="types" format="ascii" RangeMin="5" RangeMax="5">
          5 5 5 5 5 5
          5 5 5 5 5 5
        </DataArray>
      </Cells>
    </Piece>
  </UnstructuredGrid>
</VTKFile>
