<?xml version="1.0"?>
<VTKFile type="UnstructuredGrid" version="0.1" byte_order="LittleEndian" header_type="UInt32" compressor="vtkZLibDataCompressor">
  <UnstructuredGrid>
    <Piece NumberOfPoints="13" NumberOfCells="14">
      <PointData>
        <DataArray type="Float64" Name="Disp" NumberOfComponents="3" format="ascii" RangeMin="0" RangeMax="0.11146227499129226">
          0.06083740704234003 -0.007152826163731415 0 0.09802454806843083 0.007954277798265262 0
          0.01930099793280443 -0.008743517859154263 0 0.03987634988470738 0.0010665623494368168 0
          0 0 0 0.05974767763082155 0.010214125945491941 0
          0.007136121041438636 -0.000018269375262556812 0 0.019894912621928943 0.009615821337627232 0
          0 0 0 0.08009616346128147 0.0019407947413881477 0
          0.1054140965455033 0.003137319829822375 0 0.11132318793940818 0.005566558473748439 0
          0.0984519362142019 -0.0023566036359312864 0
          <InformationKey name="L2_NORM_RANGE" location="vtkDataArray" length="2">
            <Value index="0">
              0
            </Value>
            <Value index="1">
              0.11146227499
            </Value>
          </InformationKey>
        </DataArray>
        <DataArray type="Float64" Name="Nodal Stress" NumberOfComponents="6" format="ascii" RangeMin="2.4947938721101264" RangeMax="49.10905857981354">
          0.8575330472217396 16.795598808084556 0 2.3299244195379747 0 0
          -1.3614518949254795 -4.005822954423945 0 0.15302722063095073 0 0
          -1.5391795364995835 -10.512330466976456 0 3.686416468231613 0 0
          -1.896734756536409 9.267623111741036 0 7.844449644964484 0 0
          13.342371040417193 -23.881752375821655 0 20.642003162276534 0 0
          -1.6083014764176142 1.2966514585681397 0 2.0463238574471987 0 0
          3.3173706763991806 8.587302554702115 0 11.91328153952271 0 0
          -2.1520289595303037 27.624404071624216 0 4.255220421701277 0 0
          2.3499766326454905 44.57332154478328 0 20.479166264448775 0 0
          -0.27534572770894966 8.852148147568613 0 1.0987644569760218 0 0
          0.9948728907128153 7.499630894002979 0 -1.708826087391949 0 0
          -0.37438389539728384 -2.329842496807498 0 -0.8097327356944376 0 0
          0.8501207995382595 20.3689546907853 0 0.6501439916451781 0 0
          <InformationKey name="L2_NORM_RANGE" location="vtkDataArray" length="2">
            <Value index="0">
              2.4947938721
            </Value>
            <Value index="1">
              49.10905858
            </Value>
          </InformationKey>
        </DataArray>
        <DataArray type="Float64" Name="Nodal Strain" NumberOfComponents="6" format="ascii" RangeMin="0" RangeMax="0">
          0 0 0 0 0 0
          0 0 0 0 0 0
          0 0 0 0 0 0
          0 0 0 0 0 0
          0 0 0 0 0 0
          0 0 0 0 0 0
          0 0 0 0 0 0
          0 0 0 0 0 0
          0 0 0 0 0 0
          0 0 0 0 0 0
          0 0 0 0 0 0
          0 0 0 0 0 0
          0 0 0 0 0 0
          <InformationKey name="L2_NORM_RANGE" location="vtkDataArray" length="2">
            <Value index="0">
              0
            </Value>
            <Value index="1">
              0
            </Value>
          </InformationKey>
        </DataArray>
        <DataArray type="Float64" Name="Sld_traction" NumberOfComponents="3" format="ascii" RangeMin="0" RangeMax="26.986854817963078">
          1.601219280031285 0.06302471317278993 0 2.6805632018417893 -0.46278658532647343 0
          0.5851593854489084 3.164937010475652 0 0 0 0
          -1.0022454990408902 17.297547976922452 0 2.7997551370301457 0.0052589369237345624 0
          0 0 0 2.4130601080282568 -3.1171172427289062 0
          -9.155936633910185 -25.38620013553896 0 0 0 0
          0 0 0 2.2471295977212806 -0.15428387748003763 0
          2.0680418886195304 0.8921456553046825 0
          <InformationKey name="L2_NORM_RANGE" location="vtkDataArray" length="2">
            <Value index="0">
              0
            </Value>
            <Value index="1">
              26.986854818
            </Value>
          </InformationKey>
        </DataArray>
        <DataArray type="Float64" Name="Fld_traction" NumberOfComponents="3" format="ascii" RangeMin="0" RangeMax="3.597306745339411">
          1.864167321726593 -0.045477466204794426 0 3.020658112790693 -0.035437953087174554 0
          1.232265643571423 -0.025939671602114224 0 0 0 0
          0.4666540953068947 0.4007555951360033 0 3.167031989471738 -0.033829919005363446 0
          0 0 0 3.5968828364084233 0.05522391886603757 0
          1.8158726127844658 -1.8427629944565609 0 0 0 0
          0 0 0 2.1128612657336983 0.2099299404006629 0
          3.121707936463153 0.19926986611923334 0
          <InformationKey name="L2_NORM_RANGE" location="vtkDataArray" length="2">
            <Value index="0">
              0
            </Value>
            <Value index="1">
              3.5973067453
            </Value>
          </InformationKey>
        </DataArray>
        <DataArray type="Float64" Name="Velocity" NumberOfComponents="3" format="ascii" RangeMin="0" RangeMax="0.2976541377189909">
          0.15513776041734897 -0.02600981478439292 0 0.26247366561688495 0.013314066882101523 0
          0.042642478845902665 -0.02278181131768139 0 0.09652822075278802 -0.00037427214098078015 0
          0 0 0 0.15063638364586898 0.024354897682499113 0
          0.014856748279839065 -0.00008974479697993082 0 0.042807108531862814 0.022435223505551112 0
          0 0 0 0.21089778045282648 -0.0016839017209796716 0
          0.28292005827952377 -0.0021587634401339997 0 0.29764008574556533 0.002892241104837205 0
          0.2653440845523004 -0.016220932211002258 0
          <InformationKey name="L2_NORM_RANGE" location="vtkDataArray" length="2">
            <Value index="0">
              0
            </Value>
            <Value index="1">
              0.29765413772
            </Value>
          </InformationKey>
        </DataArray>
        <DataArray type="Float64" Name="Sigma" NumberOfComponents="6" format="ascii" RangeMin="5.905751481329598" RangeMax="71.82972054071544">
          -13.82246934580402 13.822469345803576 0 0.7643865138251384 0 0
          7.484197924390843 -7.4841979243908 0 0.38313161148440117 0 0
          14.52745269922309 -14.527452699222884 0 -2.654531475637723 0 0
          -5.944039856907742 5.944039856907835 0 16.370387561394214 0 0
          46.225238211311435 -46.22523821131103 0 29.765138292511615 0 0
          4.94053072597929 -4.940530725979556 0 -0.014170622781118303 0 0
          -2.3840818519940714 2.3840818519938995 0 10.089094889303459 0 0
          -26.765843775772836 26.765843775773085 0 -0.8101044925036116 0 0
          -45.954542410335876 45.9545424103366 0 28.650567717747442 0 0
          -4.690383688693597 4.690383688693491 0 1.553545065327669 0 0
          -2.9593389376533494 2.9593389376529706 0 -4.166836529479705 0 0
          4.579622054634065 -4.579622054634527 0 0.25179868201423194 0 0
          -16.357824432625804 16.357824432625556 0 1.4429793829380178 0 0
          <InformationKey name="L2_NORM_RANGE" location="vtkDataArray" length="2">
            <Value index="0">
              5.9057514813
            </Value>
            <Value index="1">
              71.829720541
            </Value>
          </InformationKey>
        </DataArray>
        <DataArray type="Float64" Name="Press" format="ascii" RangeMin="-20.751730252988786" RangeMax="42.95846433569293">
          17.320182426546907 -9.990504457271479 -20.751730252988786 4.098695219548292 -18.479243463275324 -7.988404811876724
          4.8768461103343554 24.72312697328097 42.95846433569293 4.418711415851933 4.735984564273059 -7.564992353717949
          17.29972920122725
        </DataArray>
      </PointData>
      <CellData>
        <DataArray type="UInt8" Name="vtkGhostType" format="ascii" RangeMin="0" RangeMax="1">
          0 0 1 1 1 1
          1 1 0 0 0 0
          0 0
        </DataArray>
        <DataArray type="Float64" Name="Gauss Stress" NumberOfComponents="6" format="ascii" RangeMin="5.431012010507477" RangeMax="50.825920004572914">
          -1.5239697034607524 1.9687346321983146 0 4.826747533193877 0 0
          -0.4651685475046654 9.418817103650108 0 5.706867817479409 0 0
          0.0593889073345967 9.107603779679874 0 0.767920318790563 0 0
          -1.2383437351149365 -7.307997762696241 0 -1.1773020786603579 0 0
          0.07074795411350598 7.959391584705521 0 -0.7802418450190951 0 0
          -0.6120246790402842 8.430648785578654 0 1.1265520199166958 0 0
          1.3893151921675573 24.6364335035829 0 1.2536369873636084 0 0
          -1.941950963873244 -7.098180938324378 0 0.6408353513436507 0 0
          9.080893643911148 10.489817677923824 0 22.834933633187504 0 0
          8.00482715087023 -30.907578888156586 0 12.399900568725784 0 0
          -0.848676872931511 49.22096848580395 0 12.643186038182431 0 0
          -1.924743365972427 7.823571919723545 0 2.208152973720709 0 0
          -3.3707796645390045 8.750840957766176 0 4.301917197750958 0 0
          -2.311978508582917 16.20092342921797 0 5.1820374820364945 0 0
          <InformationKey name="L2_NORM_RANGE" location="vtkDataArray" length="2">
            <Value index="0">
              5.4310120105
            </Value>
            <Value index="1">
              50.825920005
            </Value>
          </InformationKey>
        </DataArray>
        <DataArray type="Float64" Name="Gauss Strain" NumberOfComponents="6" format="ascii" RangeMin="0" RangeMax="0">
          0 0 0 0 0 0
          0 0 0 0 0 0
          0 0 0 0 0 0
          0 0 0 0 0 0
          0 0 0 0 0 0
          0 0 0 0 0 0
          0 0 0 0 0 0
          0 0 0 0 0 0
          0 0 0 0 0 0
          0 0 0 0 0 0
          0 0 0 0 0 0
          0 0 0 0 0 0
          0 0 0 0 0 0
          0 0 0 0 0 0
          <InformationKey name="L2_NORM_RANGE" location="vtkDataArray" length="2">
            <Value index="0">
              0
            </Value>
            <Value index="1">
              0
            </Value>
          </InformationKey>
        </DataArray>
        <DataArray type="Float64" Name="Btraction" NumberOfComponents="3" format="ascii" RangeMin="0" RangeMax="2.2546495533302697">
          1.0321443217660051 -0.02380571260230288 0 0 0 0
          0 0 0 1.7111731261747969 0.05816399577116277 0
          0 0 0 0 0 0
          1.6619584193965817 0.05126413330481296 0 2.06256336742081 -0.023089290697512664 0
          0 0 0 0.5663065796261058 0.124938641177963 0
          1.8042518163976295 -0.5958463585301743 0 0 0 0
          0 0 0 2.2546382752933867 0.007131333286891375 0
          <InformationKey name="L2_NORM_RANGE" location="vtkDataArray" length="2">
            <Value index="0">
              0
            </Value>
            <Value index="1">
              2.2546495533
            </Value>
          </InformationKey>
        </DataArray>
      </CellData>
      <Points>
        <DataArray type="Float32" Name="Points" NumberOfComponents="3" format="ascii" RangeMin="10" RangeMax="13.021927811442218">
          11 3.7184319496154785 0 10 6.2815680503845215 0
          11 1.6591010093688965 0 10.5 2.6568450927734375 0
          11 0 0 10 3.61250901222229 0
          10.5 0.8241099119186401 0 10 1.6373380422592163 0
          10 0 0 10.5 5 0
          10.5 7.3431549072265625 0 10 8.340899467468262 0
          11 6.387491226196289 0
          <InformationKey name="L2_NORM_RANGE" location="vtkDataArray" length="2">
            <Value index="0">
              10
            </Value>
            <Value index="1">
              13.021927811
            </Value>
          </InformationKey>
        </DataArray>
      </Points>
      <Cells>
        <DataArray type="Int64" Name="connectivity" format="ascii" RangeMin="0" RangeMax="12">
          3 2 0 5 3 0
          5 0 9 10 11 1
          12 10 1 12 1 9
          9 0 12 5 9 1
          8 4 6 6 4 2
          8 6 7 6 2 7
          7 2 3 7 3 5
        </DataArray>
        <DataArray type="Int64" Name="offsets" format="ascii" RangeMin="3" RangeMax="42">
          3 6 9 12 15 18
          21 24 27 30 33 36
          39 42
        </DataArray>
        <DataArray type="UInt8" Name="types" format="ascii" RangeMin="5" RangeMax="5">
          5 5 5 5 5 5
          5 5 5 5 5 5
          5 5
        </DataArray>
      </Cells>
    </Piece>
  </UnstructuredGrid>
</VTKFile>
