<?xml version="1.0"?>
<VTKFile type="UnstructuredGrid" version="0.1" byte_order="LittleEndian" header_type="UInt32" compressor="vtkZLibDataCompressor">
  <UnstructuredGrid>
    <Piece NumberOfPoints="44" NumberOfCells="60">
      <PointData>
      </PointData>
      <CellData>
        <DataArray type="UInt8" Name="vtkGhostType" format="ascii" RangeMin="0" RangeMax="0">
          0 0 0 0 0 0
          0 0 0 0 0 0
          0 0 0 0 0 0
          0 0 0 0 0 0
          0 0 0 0 0 0
          0 0 0 0 0 0
          0 0 0 0 0 0
          0 0 0 0 0 0
          0 0 0 0 0 0
          0 0 0 0 0 0
        </DataArray>
        <DataArray type="Float64" Name="arvis" format="ascii" RangeMin="0.11000054428892013" RangeMax="0.8274532936026096">
          0.5375060014643572 0.7341659166512992 0.54936040081262 0.8274532936026096 0.5411628986325218 0.7699089698291568
          0.5403674729138161 0.768117386550286 0.5403340644256442 0.7682389726254947 0.540344659078202 0.7682556181379153
          0.5407139870940044 0.7685044599718474 0.5385883070599279 0.7721136896812868 0.5184621554709935 0.7134834488838249
          0.6035966641006951 0.8082022124647144 0.31819019640332324 0.487008023075633 0.32614499581236606 0.3956305637693006
          0.3219735049961968 0.3851401862203996 0.3213745592214707 0.3854164462521296 0.3213366289823632 0.3854169323583216
          0.32133506033938125 0.385415952334704 0.32133014256778447 0.3854191384371959 0.32104758265316974 0.3850779577073711
          0.32002218987768444 0.37905363283834514 0.29802613503010034 0.4390282461962346 0.1457495814536649 0.2840105596454421
          0.1314482488575034 0.13094622470047382 0.12677250339168852 0.12501596729488407 0.126510182744287 0.12472385557276601
          0.1265248946638984 0.12473507662780074 0.12652660245740904 0.12473639375384968 0.12652558891806542 0.12473640982847461
          0.12659621909918978 0.12473596796407903 0.12842503841651215 0.1247757170826537 0.11000054428892013 0.12528610294200992
        </DataArray>
        <DataArray type="Float64" Name="artco" format="ascii" RangeMin="0.13819892772968745" RangeMax="0.8885198415354842">
          0.5661301156934763 0.7285118486061625 0.5449130615232707 0.8082263870001454 0.5180057190969629 0.7507303485736226
          0.5144755853441001 0.7478338799564425 0.5142409818058111 0.7478689294340999 0.5142552333232064 0.7478883867018555
          0.5148007114260804 0.7482509076742772 0.5114879155520157 0.752737181229464 0.47473479506145033 0.6866185665563037
          0.5931077477933859 0.8885198415354842 0.34989313725350923 0.4747667954386684 0.3493920418704326 0.37782103956476465
          0.33844626184750376 0.36989223505606167 0.33665369910435006 0.3688684412899287 0.33651473799172643 0.36862365400664987
          0.33650755594129256 0.368607599135891 0.33648367599235945 0.36861430200465706 0.3356991228054411 0.3680110893702421
          0.3373420691145693 0.3542226184309599 0.31689491217654464 0.471709571524665 0.17460656747343156 0.28494173164435543
          0.159143631931777 0.15110945666280046 0.15377672473575882 0.14420917707741332 0.15345574883290705 0.14383102051552332
          0.1534677670241852 0.1438371938192522 0.15346906815521777 0.14383798750138313 0.15346793401035747 0.14383797338796978
          0.15356226557075076 0.14383748947760427 0.15622595735844813 0.1438882794252285 0.13819892772968745 0.14467444144609326
        </DataArray>
      </CellData>
      <Points>
        <DataArray type="Float32" Name="Points" NumberOfComponents="3" format="ascii" RangeMin="0" RangeMax="4.2201894765504395">
          4.099999904632568 1 0 4.099999904632568 0.6666666865348816 0
          3.690000057220459 1 0 3.690000057220459 0.6666666865348816 0
          4.099999904632568 0.3333333134651184 0 3.690000057220459 0.3333333134651184 0
          3.2799999713897705 1 0 3.2799999713897705 0.6666666865348816 0
          4.099999904632568 0 0 3.2799999713897705 0.3333333134651184 0
          3.690000057220459 0 0 2.869999885559082 1 0
          2.869999885559082 0.6666666865348816 0 3.2799999713897705 0 0
          2.869999885559082 0.3333333134651184 0 2.869999885559082 0 0
          2.4600000381469727 1 0 2.4600000381469727 0.6666666865348816 0
          2.4600000381469727 0.3333333134651184 0 2.4600000381469727 0 0
          2.049999952316284 1 0 2.049999952316284 0.6666666865348816 0
          2.049999952316284 0.3333333134651184 0 2.049999952316284 0 0
          1.6399999856948853 1 0 1.6399999856948853 0.6666666865348816 0
          1.6399999856948853 0.3333333134651184 0 1.6399999856948853 0 0
          1.2300000190734863 1 0 1.2300000190734863 0.6666666865348816 0
          1.2300000190734863 0.3333333134651184 0 1.2300000190734863 0 0
          0.8199999928474426 1 0 0.8199999928474426 0.6666666865348816 0
          0.8199999928474426 0.3333333134651184 0 0.8199999928474426 0 0
          0.4099999964237213 1 0 0.4099999964237213 0.6666666865348816 0
          0.4099999964237213 0.3333333134651184 0 0.4099999964237213 0 0
          0 1 0 0 0.6666666865348816 0
          0 0.3333333134651184 0 0 0 0
          <InformationKey name="L2_NORM_RANGE" location="vtkDataArray" length="2">
            <Value index="0">
              0
            </Value>
            <Value index="1">
              4.2201894766
            </Value>
          </InformationKey>
        </DataArray>
      </Points>
      <Cells>
        <DataArray type="Int64" Name="connectivity" format="ascii" RangeMin="0" RangeMax="43">
          39 38 43 38 42 43
          35 34 39 34 38 39
          31 30 35 30 34 35
          27 26 31 26 30 31
          23 22 27 22 26 27
          19 18 23 18 22 23
          15 14 19 14 18 19
          13 9 15 9 14 15
          10 5 13 5 9 13
          8 4 10 4 5 10
          38 37 42 37 41 42
          34 33 38 33 37 38
          30 29 34 29 33 34
          26 25 30 25 29 30
          22 21 26 21 25 26
          18 17 22 17 21 22
          14 12 18 12 17 18
          9 7 14 7 12 14
          5 3 9 3 7 9
          4 1 5 1 3 5
          37 36 41 36 40 41
          33 32 37 32 36 37
          29 28 33 28 32 33
          25 24 29 24 28 29
          21 20 25 20 24 25
          17 16 21 16 20 21
          12 11 17 11 16 17
          7 6 12 6 11 12
          3 2 7 2 6 7
          1 0 3 0 2 3
        </DataArray>
        <DataArray type="Int64" Name="offsets" format="ascii" RangeMin="3" RangeMax="180">
          3 6 9 12 15 18
          21 24 27 30 33 36
          39 42 45 48 51 54
          57 60 63 66 69 72
          75 78 81 84 87 90
          93 96 99 102 105 108
          111 114 117 120 123 126
          129 132 135 138 141 144
          147 150 153 156 159 162
          165 168 171 174 177 180
        </DataArray>
        <DataArray type="UInt8" Name="types" format="ascii" RangeMin="5" RangeMax="5">
          5 5 5 5 5 5
          5 5 5 5 5 5
          5 5 5 5 5 5
          5 5 5 5 5 5
          5 5 5 5 5 5
          5 5 5 5 5 5
          5 5 5 5 5 5
          5 5 5 5 5 5
          5 5 5 5 5 5
          5 5 5 5 5 5
        </DataArray>
      </Cells>
    </Piece>
  </UnstructuredGrid>
</VTKFile>
