<?xml version="1.0"?>
<VTKFile type="UnstructuredGrid" version="0.1" byte_order="LittleEndian" header_type="UInt32" compressor="vtkZLibDataCompressor">
  <UnstructuredGrid>
    <Piece NumberOfPoints="44" NumberOfCells="60">
      <PointData>
      </PointData>
      <CellData>
        <DataArray type="UInt8" Name="vtkGhostType" format="ascii" RangeMin="0" RangeMax="0">
          0 0 0 0 0 0
          0 0 0 0 0 0
          0 0 0 0 0 0
          0 0 0 0 0 0
          0 0 0 0 0 0
          0 0 0 0 0 0
          0 0 0 0 0 0
          0 0 0 0 0 0
          0 0 0 0 0 0
          0 0 0 0 0 0
        </DataArray>
        <DataArray type="Float64" Name="arvis" format="ascii" RangeMin="0.129442853312551" RangeMax="2.304450652112304">
          1.5453641741711563 1.6910280182728803 1.5501098752602043 2.304450652112304 1.5501098752602034 2.2760406133447573
          1.5501098752602178 2.276040613344733 1.5501098752602172 2.2760406133447284 1.550109875260216 2.27604061334472
          1.5501098752602132 2.2760406133447177 1.5510104018186621 2.279013692285879 1.5272988207898195 2.207504808714515
          1.5234022836102707 2.0630229391245734 0.8040699513066887 0.9425798234724289 0.8076258529277266 1.1245257770806492
          0.8070523167156426 1.1206263471612812 0.807052316715643 1.1207874548425374 0.8070523167156433 1.1207874548425376
          0.8070523167156415 1.1207874548425376 0.8070523167156416 1.1207874548425378 0.8070045427040131 1.1207420337256484
          0.8031721108889762 1.1147591288267584 0.7858944161222148 1.2095375963478716 0.16501242383939366 0.2840105596454421
          0.14219344607932322 0.1326683579436104 0.14118849736647554 0.13163877123563608 0.14119130782108738 0.13163968009291954
          0.14119130782108738 0.13163968009291954 0.14119130782108752 0.13163968009291954 0.14119130782108752 0.13163968009291954
          0.1411938063423647 0.13163968009291963 0.14171084367075903 0.13164145247969752 0.129442853312551 0.1319309092828422
        </DataArray>
        <DataArray type="Float64" Name="artco" format="ascii" RangeMin="0.15200589221320948" RangeMax="2.2510112815962064">
          1.5613892177741266 1.670657049491898 1.5421782099188888 2.2510112815962064 1.542178209919221 2.2220048425690884
          1.5421782099195227 2.222004842569793 1.5421782099195227 2.2220048425697914 1.5421782099192511 2.2220048425693135
          1.5421782099188646 2.2220048425686953 1.5435139732128274 2.2256531881015538 1.5093943869729423 2.203145166357806
          1.5106203397719007 2.1763931586819725 0.8444057445391955 0.9116455636949261 0.8272796808092268 1.0910406788321338
          0.8247618575604199 1.0879726913232606 0.8247618575604091 1.0879189424320777 0.8247618575603928 1.087918942432075
          0.8247618575603921 1.087918942432075 0.8247618575604034 1.087918942432075 0.8246128991132569 1.0878421414714698
          0.8186205912432922 1.073985853499085 0.8085500332839629 1.281165909095153 0.19512354786821035 0.28494173164435543
          0.1707143091993046 0.15345642606504387 0.1693264686672964 0.15201416583149255 0.169320516002569 0.15200589221320948
          0.169320516002569 0.15200589221320948 0.16932051600256914 0.15200589221320954 0.16932051600256914 0.15200589221320954
          0.16932464981900563 0.15200589221320956 0.17009843904470368 0.1520087722917418 0.15984285244999158 0.15244956053540576
        </DataArray>
      </CellData>
      <Points>
        <DataArray type="Float32" Name="Points" NumberOfComponents="3" format="ascii" RangeMin="0" RangeMax="4.2201894765504395">
          4.099999904632568 1 0 4.099999904632568 0.6666666865348816 0
          3.690000057220459 1 0 3.690000057220459 0.6666666865348816 0
          4.099999904632568 0.3333333134651184 0 3.690000057220459 0.3333333134651184 0
          3.2799999713897705 1 0 3.2799999713897705 0.6666666865348816 0
          4.099999904632568 0 0 3.2799999713897705 0.3333333134651184 0
          3.690000057220459 0 0 2.869999885559082 1 0
          2.869999885559082 0.6666666865348816 0 3.2799999713897705 0 0
          2.869999885559082 0.3333333134651184 0 2.869999885559082 0 0
          2.4600000381469727 1 0 2.4600000381469727 0.6666666865348816 0
          2.4600000381469727 0.3333333134651184 0 2.4600000381469727 0 0
          2.049999952316284 1 0 2.049999952316284 0.6666666865348816 0
          2.049999952316284 0.3333333134651184 0 2.049999952316284 0 0
          1.6399999856948853 1 0 1.6399999856948853 0.6666666865348816 0
          1.6399999856948853 0.3333333134651184 0 1.6399999856948853 0 0
          1.2300000190734863 1 0 1.2300000190734863 0.6666666865348816 0
          1.2300000190734863 0.3333333134651184 0 1.2300000190734863 0 0
          0.8199999928474426 1 0 0.8199999928474426 0.6666666865348816 0
          0.8199999928474426 0.3333333134651184 0 0.8199999928474426 0 0
          0.4099999964237213 1 0 0.4099999964237213 0.6666666865348816 0
          0.4099999964237213 0.3333333134651184 0 0.4099999964237213 0 0
          0 1 0 0 0.6666666865348816 0
          0 0.3333333134651184 0 0 0 0
          <InformationKey name="L2_NORM_RANGE" location="vtkDataArray" length="2">
            <Value index="0">
              0
            </Value>
            <Value index="1">
              4.2201894766
            </Value>
          </InformationKey>
        </DataArray>
      </Points>
      <Cells>
        <DataArray type="Int64" Name="connectivity" format="ascii" RangeMin="0" RangeMax="43">
          39 38 43 38 42 43
          35 34 39 34 38 39
          31 30 35 30 34 35
          27 26 31 26 30 31
          23 22 27 22 26 27
          19 18 23 18 22 23
          15 14 19 14 18 19
          13 9 15 9 14 15
          10 5 13 5 9 13
          8 4 10 4 5 10
          38 37 42 37 41 42
          34 33 38 33 37 38
          30 29 34 29 33 34
          26 25 30 25 29 30
          22 21 26 21 25 26
          18 17 22 17 21 22
          14 12 18 12 17 18
          9 7 14 7 12 14
          5 3 9 3 7 9
          4 1 5 1 3 5
          37 36 41 36 40 41
          33 32 37 32 36 37
          29 28 33 28 32 33
          25 24 29 24 28 29
          21 20 25 20 24 25
          17 16 21 16 20 21
          12 11 17 11 16 17
          7 6 12 6 11 12
          3 2 7 2 6 7
          1 0 3 0 2 3
        </DataArray>
        <DataArray type="Int64" Name="offsets" format="ascii" RangeMin="3" RangeMax="180">
          3 6 9 12 15 18
          21 24 27 30 33 36
          39 42 45 48 51 54
          57 60 63 66 69 72
          75 78 81 84 87 90
          93 96 99 102 105 108
          111 114 117 120 123 126
          129 132 135 138 141 144
          147 150 153 156 159 162
          165 168 171 174 177 180
        </DataArray>
        <DataArray type="UInt8" Name="types" format="ascii" RangeMin="5" RangeMax="5">
          5 5 5 5 5 5
          5 5 5 5 5 5
          5 5 5 5 5 5
          5 5 5 5 5 5
          5 5 5 5 5 5
          5 5 5 5 5 5
          5 5 5 5 5 5
          5 5 5 5 5 5
          5 5 5 5 5 5
          5 5 5 5 5 5
        </DataArray>
      </Cells>
    </Piece>
  </UnstructuredGrid>
</VTKFile>
