<?xml version="1.0"?>
<VTKFile type="UnstructuredGrid" version="0.1" byte_order="LittleEndian" header_type="UInt32" compressor="vtkZLibDataCompressor">
  <UnstructuredGrid>
    <Piece NumberOfPoints="44" NumberOfCells="60">
      <PointData>
      </PointData>
      <CellData>
        <DataArray type="UInt8" Name="vtkGhostType" format="ascii" RangeMin="0" RangeMax="0">
          0 0 0 0 0 0
          0 0 0 0 0 0
          0 0 0 0 0 0
          0 0 0 0 0 0
          0 0 0 0 0 0
          0 0 0 0 0 0
          0 0 0 0 0 0
          0 0 0 0 0 0
          0 0 0 0 0 0
          0 0 0 0 0 0
        </DataArray>
        <DataArray type="Float64" Name="arvis" format="ascii" RangeMin="0.10646167653407704" RangeMax="0.7315538927334087">
          0.47243990584164824 0.6727507274013675 0.48535302472540465 0.7315538927334087 0.47578191397041797 0.6719812584178627
          0.47464377633075505 0.6695886119943749 0.4745840539783575 0.6697229990717009 0.47459799693538973 0.6697495381801435
          0.4750115429061733 0.6700429734555369 0.4723179087376139 0.6733539472399844 0.45529299913801463 0.6177856794843072
          0.5416653532798785 0.7214283710968117 0.2845465519656952 0.45756781192112705 0.29324294768807624 0.3478452270907392
          0.288328777190809 0.3362815001597453 0.2874759030723043 0.33648367839674204 0.2874111211789073 0.33646833980747304
          0.2874077819769754 0.33646468320737766 0.2874004919542939 0.33646917237648627 0.2870665825665537 0.3360630586660855
          0.28671106829850523 0.33025799438423165 0.2637763254328331 0.3871652069754492 0.14234845891587863 0.2840105596454421
          0.12993187626866376 0.13118329218236485 0.12461740715287886 0.12413656554873817 0.12421297565343169 0.12368817724343001
          0.12422998889643272 0.12370130986243177 0.12423319097615924 0.12370384439103688 0.1242316539469767 0.12370390175987167
          0.12433019577328179 0.12370327656176147 0.12642087324238493 0.12375578959685998 0.10646167653407704 0.12425558210942741
        </DataArray>
        <DataArray type="Float64" Name="artco" format="ascii" RangeMin="0.13411285698071346" RangeMax="0.795332898935742">
          0.501970071705037 0.6688265621575864 0.484608689972602 0.7134662837758108 0.4540627675042854 0.6556066264869904
          0.4491225654363096 0.651742622792887 0.4486962531584079 0.6517076479161266 0.44870443062898413 0.6517329491963794
          0.44931216522342077 0.6521600164431499 0.4450221792928788 0.6563134863369539 0.4120197283982877 0.5898306102040362
          0.5324009579321503 0.795332898935742 0.3145629306778465 0.44707017779269587 0.3170577658476843 0.3316914557379699
          0.3055013065850529 0.3232168310433472 0.30321201536324227 0.32208152657358746 0.3029972071399616 0.3217395775038697
          0.30298315701726064 0.32170954301863164 0.30295173809417675 0.32171853999360495 0.3020744832175053 0.3209981074363095
          0.3050635897978258 0.30779165023366756 0.28209684831832926 0.41732794224684017 0.1709316332353622 0.28494173164435543
          0.15741395314267986 0.15125044483623976 0.15133279390311502 0.14311870928451245 0.1508545087035784 0.14256296867076468
          0.15086888984313407 0.1425699665090709 0.15087154053190494 0.14257170847949946 0.15086968089624245 0.1425716977282122
          0.15099905000962888 0.14257094227641415 0.15404136861356515 0.14263664362987705 0.13411285698071346 0.14341565798666364
        </DataArray>
      </CellData>
      <Points>
        <DataArray type="Float32" Name="Points" NumberOfComponents="3" format="ascii" RangeMin="0" RangeMax="4.2201894765504395">
          4.099999904632568 1 0 4.099999904632568 0.6666666865348816 0
          3.690000057220459 1 0 3.690000057220459 0.6666666865348816 0
          4.099999904632568 0.3333333134651184 0 3.690000057220459 0.3333333134651184 0
          3.2799999713897705 1 0 3.2799999713897705 0.6666666865348816 0
          4.099999904632568 0 0 3.2799999713897705 0.3333333134651184 0
          3.690000057220459 0 0 2.869999885559082 1 0
          2.869999885559082 0.6666666865348816 0 3.2799999713897705 0 0
          2.869999885559082 0.3333333134651184 0 2.869999885559082 0 0
          2.4600000381469727 1 0 2.4600000381469727 0.6666666865348816 0
          2.4600000381469727 0.3333333134651184 0 2.4600000381469727 0 0
          2.049999952316284 1 0 2.049999952316284 0.6666666865348816 0
          2.049999952316284 0.3333333134651184 0 2.049999952316284 0 0
          1.6399999856948853 1 0 1.6399999856948853 0.6666666865348816 0
          1.6399999856948853 0.3333333134651184 0 1.6399999856948853 0 0
          1.2300000190734863 1 0 1.2300000190734863 0.6666666865348816 0
          1.2300000190734863 0.3333333134651184 0 1.2300000190734863 0 0
          0.8199999928474426 1 0 0.8199999928474426 0.6666666865348816 0
          0.8199999928474426 0.3333333134651184 0 0.8199999928474426 0 0
          0.4099999964237213 1 0 0.4099999964237213 0.6666666865348816 0
          0.4099999964237213 0.3333333134651184 0 0.4099999964237213 0 0
          0 1 0 0 0.6666666865348816 0
          0 0.3333333134651184 0 0 0 0
          <InformationKey name="L2_NORM_RANGE" location="vtkDataArray" length="2">
            <Value index="0">
              0
            </Value>
            <Value index="1">
              4.2201894766
            </Value>
          </InformationKey>
        </DataArray>
      </Points>
      <Cells>
        <DataArray type="Int64" Name="connectivity" format="ascii" RangeMin="0" RangeMax="43">
          39 38 43 38 42 43
          35 34 39 34 38 39
          31 30 35 30 34 35
          27 26 31 26 30 31
          23 22 27 22 26 27
          19 18 23 18 22 23
          15 14 19 14 18 19
          13 9 15 9 14 15
          10 5 13 5 9 13
          8 4 10 4 5 10
          38 37 42 37 41 42
          34 33 38 33 37 38
          30 29 34 29 33 34
          26 25 30 25 29 30
          22 21 26 21 25 26
          18 17 22 17 21 22
          14 12 18 12 17 18
          9 7 14 7 12 14
          5 3 9 3 7 9
          4 1 5 1 3 5
          37 36 41 36 40 41
          33 32 37 32 36 37
          29 28 33 28 32 33
          25 24 29 24 28 29
          21 20 25 20 24 25
          17 16 21 16 20 21
          12 11 17 11 16 17
          7 6 12 6 11 12
          3 2 7 2 6 7
          1 0 3 0 2 3
        </DataArray>
        <DataArray type="Int64" Name="offsets" format="ascii" RangeMin="3" RangeMax="180">
          3 6 9 12 15 18
          21 24 27 30 33 36
          39 42 45 48 51 54
          57 60 63 66 69 72
          75 78 81 84 87 90
          93 96 99 102 105 108
          111 114 117 120 123 126
          129 132 135 138 141 144
          147 150 153 156 159 162
          165 168 171 174 177 180
        </DataArray>
        <DataArray type="UInt8" Name="types" format="ascii" RangeMin="5" RangeMax="5">
          5 5 5 5 5 5
          5 5 5 5 5 5
          5 5 5 5 5 5
          5 5 5 5 5 5
          5 5 5 5 5 5
          5 5 5 5 5 5
          5 5 5 5 5 5
          5 5 5 5 5 5
          5 5 5 5 5 5
          5 5 5 5 5 5
        </DataArray>
      </Cells>
    </Piece>
  </UnstructuredGrid>
</VTKFile>
