<?xml version="1.0"?>
<VTKFile type="UnstructuredGrid" version="0.1" byte_order="LittleEndian" header_type="UInt32" compressor="vtkZLibDataCompressor">
  <UnstructuredGrid>
    <Piece NumberOfPoints="44" NumberOfCells="60">
      <PointData>
        <DataArray type="Float64" Name="Density" format="ascii" RangeMin="0.9936301022030654" RangeMax="1.7">
          1.7 1.1885564376425293 1.7 1.2064661442344935 1.000401096485781 1.0102102640759216
          1.7 1.2105432351279088 0.9936301022030654 1.0115799699184433 0.9988104438667822 1.7
          1.2103007729278803 0.9986624580042767 1.0109528525544886 0.998001418431785 1.7 1.2101886122664502
          1.0108189000620207 0.9979760580864238 1.7 1.2102515595394736 1.0107877829684886 0.9979554523291182
          1.7 1.2108564323182287 1.0108989275232034 0.9978571046309026 1.7 1.213153812752566
          1.012236117267032 0.9978494222636499 1.7 1.2178537889898633 1.0167647262195891 0.9992018686479525
          1.7 1.2008335238219077 1.021937227012963 1.0025195721249516 1 1
          1 1
        </DataArray>
        <DataArray type="Float64" Name="Momentum" NumberOfComponents="3" format="ascii" RangeMin="2.881347785850111" RangeMax="4.535233026008696">
          4.4528099999999995 -0.86071 0 3.4181549698053124 -0.1502867045167651 0
          4.4528099999999995 -0.86071 0 3.4548814863358595 -0.16939450191965238 0
          2.902856698921383 0.0011263243272827267 0 2.928822060494671 -0.008030012244410696 0
          4.4528099999999995 -0.86071 0 3.4656852752105936 -0.17444675127485915 0
          2.881344252234947 0.0045125531544270596 0 2.933233266621999 -0.009218079017867227 0
          2.896577497771467 0 0 4.4528099999999995 -0.86071 0
          3.465255685656953 -0.17407486750808424 0 2.89619323436268 0 0
          2.931633892619295 -0.008281527274380427 0 2.89424472431384 0 0
          4.4528099999999995 -0.86071 0 3.4649205086856396 -0.17393952755276582 0
          2.9311937282788936 -0.008122940191796296 0 2.8941221504963517 0 0
          4.4528099999999995 -0.86071 0 3.4651351405767237 -0.17397970236274207 0
          2.931085310939449 -0.008122986504229162 0 2.89404714101472 0 0
          4.4528099999999995 -0.86071 0 3.4670944947041287 -0.17459294923328805 0
          2.9314843259987704 -0.008171299093563853 0 2.8937425687805356 0 0
          4.4528099999999995 -0.86071 0 3.4735255683936597 -0.17806185233423877 0
          2.9357761573696437 -0.009085368487377881 0 2.8937885312796694 0 0
          4.4528099999999995 -0.86071 0 3.4817887870272655 -0.18880872391054232 0
          2.94907748305056 -0.012908440706440732 0 2.8980744200184856 0 0
          4.4528099999999995 -0.86071 0 3.417064055703756 -0.18478939704468614 0
          2.9617360046115686 -0.018869957242375373 0 2.9076406473031993 0 0
          2.9 0 0 2.9 0 0
          2.9 0 0 2.9 0 0
          <InformationKey name="L2_NORM_RANGE" location="vtkDataArray" length="2">
            <Value index="0">
              2.8813477859
            </Value>
            <Value index="1">
              4.535233026
            </Value>
          </InformationKey>
        </DataArray>
        <DataArray type="Float64" Name="Energy" format="ascii" RangeMin="4.888771472804529" RangeMax="7.585636452999999">
          7.585636452999999 5.894652604292077 7.585636452999999 5.958031635334867 4.9261714047888745 4.974440999166087
          7.585636452999999 5.978174111081071 4.888771472804529 4.982680590709184 4.917398572498547 7.585636452999999
          5.977375699097811 4.916548633982667 4.9794792595543695 4.912626349407507 7.585636452999999 5.976734150858469
          4.978620466044918 4.912372663200896 7.585636452999999 5.977165937137991 4.978403428035953 4.912246931058673
          7.585636452999999 5.981247001783789 4.979192328327228 4.91165525716375 7.585636452999999 5.994648054721355
          4.987702243134051 4.9117743437801735 7.585636452999999 6.01056479900722 5.0136317080763 4.920037481876198
          7.585636452999999 5.8781469443231975 5.037531736544613 4.937759323954478 4.923 4.923
          4.923 4.923
        </DataArray>
        <DataArray type="Float64" Name="DERPR" format="ascii" RangeMin="-3.787341463414633" RangeMax="2.1473968353995625">
          2.1473968353995625 1.1040286739249456 2.0776780199661213 1.3309416053116148 0.21743412337601561 0.2891797157592579
          2.0588125760586724 1.2878304323968353 0.047312944903448624 0.2651554967812998 0.05262864851345414 2.0597684418324658
          1.277667636822358 0.028155955585056524 0.258868042766737 0.022797024056097362 2.060445946031297 1.278690843815688
          0.26028493403470915 0.024008916094842767 2.0611708228343004 1.2811126804057704 0.26117332976674734 0.023972168437747472
          2.06011096988217 1.2889581608193494 0.2666928440647972 0.024579737808054787 2.043915839070518 1.2999868572616473
          0.28638675301069433 0.03335316277473735 1.967101624323224 1.231327361813567 0.31108523934568527 0.0569782222558882
          -0.33098309443674756 0.6796956674711558 0.2034223082250288 0.06250535338003016 -3.787341463414633 -1.4272810294291725
          -0.3548416422040173 -0.05630073437273308
        </DataArray>
        <DataArray type="Float64" Name="MORPR" NumberOfComponents="3" format="ascii" RangeMin="0.06708102029041048" RangeMax="10.620259285767293">
          5.1471956259497995 -2.3227753652009704 0 3.0612963886401454 -0.8623746018544162 0
          4.995770498278414 -2.2381313345133917 0 3.691352421413382 -0.9915552999045807 0
          0.6311246209352672 -0.16755888837597527 0 0.8255814969028665 -0.22643527998498966 0
          4.944928468309926 -2.215841655956567 0 3.5895471952190388 -0.942899001647063 0
          0.14487110583988516 -0.03609322465489931 0 0.7693731848934945 -0.19294058171825654 0
          0.15401883471003086 -0.042974318374231886 0 4.94680311078884 -2.2173020216280395 0
          3.561003155887364 -0.9303172803531445 0 0.08265406930808919 -0.018067175783934235 0
          0.7502581311656141 -0.18415365696365563 0 0.06569351788375201 -0.013572950720444581 0
          4.948843902276163 -2.2179521898221637 0 3.5636942741727613 -0.931530935195087 0
          0.7539665267647422 -0.18663906071610928 0 0.06930415129507807 -0.015232177948951717 0
          4.951432241469818 -2.2184101900540565 0 3.571685751901711 -0.9337077652289837 0
          0.7569811739222548 -0.18740917710127744 0 0.06934454454479723 -0.015517541571881226 0
          4.9488713088340885 -2.21879841703965 0 3.595553938089029 -0.944297919273259 0
          0.7750552667839058 -0.19108584302513962 0 0.07155331288480273 -0.015795454914375454 0
          4.89943575155597 -2.212256028698419 0 3.6157096765966332 -0.9759466268761334 0
          0.8351629987992952 -0.2067910930789045 0 0.09976471164636351 -0.019336171888432896 0
          4.669338058087346 -2.1587277524060804 0 3.361562179919107 -0.9613962466525269 0
          0.8974110604721405 -0.2348142098941969 0 0.1702935493087153 -0.03086778433318378 0
          -0.8136867516943417 0.6455560849748744 0 1.825599818149757 -0.4001473644250427 0
          0.5588336823821987 -0.1538972928007622 0 0.17804188374735205 -0.04196919008265548 0
          -8.702113935308102 6.087948780487805 0 -3.2690464785080224 2.5741851657608934 0
          -0.983674308191094 0.41387232870315765 0 -0.17314199864674915 0.05176078910460131 0
          <InformationKey name="L2_NORM_RANGE" location="vtkDataArray" length="2">
            <Value index="0">
              0.06708102029
            </Value>
            <Value index="1">
              10.620259286
            </Value>
          </InformationKey>
        </DataArray>
        <DataArray type="Float64" Name="ENRPR" format="ascii" RangeMin="-15.936461299466677" RangeMax="9.425033670490949">
          9.425033670490949 5.681028964202245 9.148807550826982 6.844369924985315 1.1572385762319413 1.4998785146132079
          9.051801679883308 6.65841256455132 0.2760368056725794 1.388116604037129 0.29054416140765105 9.055467474222331
          6.603480585102516 0.14792319825392664 1.3505622861806916 0.11545895203070776 9.059429489847712 6.608731845922373
          1.3584144727518743 0.12433740295729306 9.064839908976852 6.6251778735023565 1.3642970684505649 0.12448988596727953
          9.060772915723605 6.675869287896876 1.4002717692370439 0.12877342677425377 8.964169428041048 6.721593109821484
          1.5189217583966812 0.1837936382120606 8.511746274939439 6.214629079397072 1.6373663869896598 0.3178347784605775
          -1.329037357086122 3.2498664639907213 0.9768390663585438 0.3253066521542816 -15.936461299466677 -6.31262833536968
          -1.974744332939855 -0.3442930293358124
        </DataArray>
      </PointData>
      <CellData>
        <DataArray type="UInt8" Name="vtkGhostType" format="ascii" RangeMin="0" RangeMax="0">
          0 0 0 0 0 0
          0 0 0 0 0 0
          0 0 0 0 0 0
          0 0 0 0 0 0
          0 0 0 0 0 0
          0 0 0 0 0 0
          0 0 0 0 0 0
          0 0 0 0 0 0
          0 0 0 0 0 0
          0 0 0 0 0 0
        </DataArray>
        <DataArray type="Float64" Name="sgvis" format="ascii" RangeMin="0.3766640499634798" RangeMax="0.48711873385581184">
          0.48653620068403036 0.4852753785495487 0.4868162256425821 0.48429905342449775 0.4868889865285779 0.4852831199838432
          0.48685806331390735 0.48562337766269636 0.48684828344387354 0.48566492942884354 0.486850896336149 0.48566471451002824
          0.4868582781672741 0.48565888347737374 0.4868229741941428 0.4855620361394335 0.4867803683738484 0.48551518856593945
          0.48711873385581184 0.4864928887473571 0.48092536482393566 0.4709819920053432 0.48166081007538997 0.45483051833141386
          0.48231442860947293 0.45706278055016125 0.48238558480894855 0.45839687324554734 0.4823606550464351 0.4586522552263771
          0.48235533186080903 0.45866983255894567 0.48235923682036397 0.4586651579021276 0.4823137491738059 0.4586165910203145
          0.4823256518899611 0.45879152515752075 0.48360979580741426 0.46100243407802277 0.46189426398844724 0.4357051818964428
          0.4567925558979301 0.3766640499634798 0.4580016819112682 0.3774193801519499 0.45840308246702466 0.3781383736593914
          0.4584327286512566 0.3782897794977821 0.45842402970269014 0.37830255078997965 0.4584227843613652 0.3783021722516503
          0.4584042502042137 0.3782980173821369 0.45845872086623685 0.3782676011282761 0.45955791599684137 0.37850586664110863
        </DataArray>
        <DataArray type="Float64" Name="sgtco" format="ascii" RangeMin="0.3766640499634798" RangeMax="0.48711873385581184">
          0.48653620068403036 0.4852753785495487 0.4868162256425821 0.48429905342449775 0.4868889865285779 0.4852831199838432
          0.48685806331390735 0.48562337766269636 0.48684828344387354 0.48566492942884354 0.486850896336149 0.48566471451002824
          0.4868582781672741 0.48565888347737374 0.4868229741941428 0.4855620361394335 0.4867803683738484 0.48551518856593945
          0.48711873385581184 0.4864928887473571 0.48092536482393566 0.4709819920053432 0.48166081007538997 0.45483051833141386
          0.48231442860947293 0.45706278055016125 0.48238558480894855 0.45839687324554734 0.4823606550464351 0.4586522552263771
          0.48235533186080903 0.45866983255894567 0.48235923682036397 0.4586651579021276 0.4823137491738059 0.4586165910203145
          0.4823256518899611 0.45879152515752075 0.48360979580741426 0.46100243407802277 0.46189426398844724 0.4357051818964428
          0.4567925558979301 0.3766640499634798 0.4580016819112682 0.3774193801519499 0.45840308246702466 0.3781383736593914
          0.4584327286512566 0.3782897794977821 0.45842402970269014 0.37830255078997965 0.4584227843613652 0.3783021722516503
          0.4584042502042137 0.3782980173821369 0.45845872086623685 0.3782676011282761 0.45955791599684137 0.37850586664110863
        </DataArray>
        <DataArray type="Float64" Name="MOSGS" NumberOfComponents="3" format="ascii" RangeMin="0" RangeMax="0.28780729695188817">
          6.9087302628454e-310 6.9087302628454e-310 4.68208566378214e-310 -0.004818953818523125 0.0010133461435783198 0
          -0.014500756336769699 0.0016983627630120478 0 -0.013404331918214978 0.004538178120239905 0
          -0.01721137720984682 0.004064034772700729 0 -0.014753290075146312 0.003914502592641945 0
          -0.024244396402980373 0.006122671199299125 0 -0.014099265820055353 0.0034453529679337007 0
          -0.026324581523564795 0.0066082975533707 0 -0.013371967530705145 0.0033165220622238846 0
          -0.0265616267056729 0.006646890516939248 0 -0.013167325520143283 0.003288042537028865 0
          -0.026391577947034277 0.006591519385920935 0 -0.012979004615828564 0.003192335159901069 0
          -0.026416025273652936 0.00658511605279914 0 -0.013934067180868936 0.0034044546718972188 0
          -0.02698161839344013 0.006979807585258749 0 -0.016612180421626675 0.0047309317617152125 0
          -0.02560867500777093 0.0070011500427736555 0 -0.009559689098802983 0.002666900075733084 0
          -0.01658930812161341 0.003864108888432374 0 0.02938866956092072 -0.011226260137659884 0
          -0.1517912761494854 0.024328920057347755 0 -0.0004491438281180593 -0.00015263132323410297 0
          -0.05989327331924234 0.0070301611302114875 0 -0.012798730478137843 0.0027199924481427634 0
          -0.06009259471835105 0.011435333983841264 0 -0.01515549831130434 0.0027846697192701504 0
          -0.0655976501833066 0.01409758394935369 0 -0.015293609400011801 0.0026505963313213973 0
          -0.06668222286251639 0.014440699641469696 0 -0.015008047206098066 0.0025526658954281127 0
          -0.0668374344987193 0.014441814507304297 0 -0.014993767791677451 0.002528406306097384 0
          -0.06684688422823867 0.0144411070529708 0 -0.016553301626930597 0.0032398195047515163 0
          -0.06721490696394608 0.014686249549489706 0 -0.019198603585191883 0.004560941678354316 0
          -0.06603069357345404 0.013976134417368667 0 -0.0007358495212903202 0.000029527649594894914 0
          -0.05307723129366932 0.00845115166776786 0 0.15978084048609617 -0.07226948370689937 0
          -0.24700584966809874 0.14771983755912052 0 0.08389051957002247 -0.02565686877380302 0
          0.1634011347416758 -0.06589380068358491 0 0.08588531114267228 -0.021191567438829592 0
          0.03785819655566145 -0.006672272388326243 0 0.08342569292496962 -0.01866563493542058 0
          0.03338752464150614 -0.0066339959191885015 0 0.0827784923503698 -0.018294496334201233 0
          0.0343409297308003 -0.00747658518442369 0 0.08264111150141346 -0.018291286949189592 0
          0.035011876411262396 -0.007749081388618296 0 0.08256392867081092 -0.018282022556911838 0
          0.03524118783103025 -0.007809755181468108 0 0.08196874069443058 -0.017965802289223745 0
          0.03529221245151948 -0.007851111549543986 0 0.08544277209162332 -0.019028514752464025 0
          0.033833924925102225 -0.007237881982178689 0 0.10864785642480189 -0.026455123576376166 0
          0.030886767196488977 -0.005187998802838011 0
          <InformationKey name="L2_NORM_RANGE" location="vtkDataArray" length="2">
            <Value index="0">
              0
            </Value>
            <Value index="1">
              0.28780729695
            </Value>
          </InformationKey>
        </DataArray>
        <DataArray type="Float64" Name="CORES" format="ascii" RangeMin="-3.7873414634146334" RangeMax="2.2208469691634125">
          0.03797415225835987 -0.15057562100382604 0.06205758766188829 0.08748432021984232 0.037709495355588984 0.07116758375018734
          0.02462600338850507 0.037723989580117995 0.023626102841817872 0.025487107193841417 0.024185873057072087 0.024104529414352444
          0.024545623777139976 0.02329525145031621 0.022901776285269904 0.020943672105882202 0.023152811315926947 0.038413279153972704
          0.04731294490344862 0.08742018932098689 0.34718259885146185 -1.2611318431798937 0.5585751869038846 0.33989302150526646
          0.5393716079130452 0.5478549358614389 0.5097327319585767 0.5226148957389354 0.4985432555232884 0.5040437630720671
          0.4971852300577444 0.49809354047880705 0.49630634966317266 0.4966321577848949 0.4917850054320745 0.4963321418260045
          0.49485241154199855 0.5220366222063143 0.5175691458630955 0.5736702417937495 0.7666301684622486 -3.7873414634146334
          1.8578388314887544 2.027762011642142 2.0680988395810305 2.015704029838776 2.0740369037194935 2.0479446477917467
          2.0649700114367464 2.058351358135271 2.060835115790142 2.060191098930883 2.0590880986582256 2.060311623372863
          2.057742172655291 2.0599056034663072 2.1002974062082345 2.058789952054417 2.2208469691634125 2.0739467016357125
        </DataArray>
        <DataArray type="Float64" Name="MORES" NumberOfComponents="3" format="ascii" RangeMin="0.061803576486234524" RangeMax="10.464034286801086">
          0.10452478284520555 -0.030492310588136964 0 -0.4507674572987326 0.13341453157077546 0
          0.18349209193215898 -0.024094666907022506 0 0.2458632356730363 -0.07297950952385526 0
          0.11344859846548386 -0.018017400419070136 0 0.21391252005152406 -0.0513264157299535 0
          0.07185018053077682 -0.01587647113673635 0 0.11400182192071773 -0.024602317050817495 0
          0.06825422410914504 -0.015604933840828995 0 0.07454891832212121 -0.016322687070104668 0
          0.07003317138823431 -0.015652082436869837 0 0.06973533241251834 -0.01570848636198372 0
          0.07082853082169521 -0.015827610515225056 0 0.0670416570997924 -0.014635154646579274 0
          0.06514367268037735 -0.016034918642672102 0 0.06109584137025971 -0.009326319410673347 0
          0.06709383416359681 -0.014094547476559968 0 0.11567697572173047 -0.024559595276173865 0
          0.14488178729241108 -0.03614381889365942 0 0.2500495613415508 -0.07883801834325924 0
          0.9747447122321646 -0.2406719567099198 0 -3.4883737962376626 1.2920618377610942 0
          1.5963780983271096 -0.45223406152618534 0 0.8288547363321963 -0.37732111730687007 0
          1.5589344552707574 -0.4248942050085468 0 1.5347765040224046 -0.5165144433957032 0
          1.4706066454696294 -0.3986537388198136 0 1.4943269966634702 -0.45369299854526757 0
          1.4342055397291764 -0.39098611868076893 0 1.440795723155623 -0.4283568944371754 0
          1.429454043631506 -0.39047316045532693 0 1.4214992391761887 -0.42289077613615156 0
          1.4265631510776635 -0.3894031450031273 0 1.4167560672967867 -0.42151563818733306 0
          1.4142440559059701 -0.38338763128357295 0 1.417407057165451 -0.4200278975803964 0
          1.427465284098925 -0.39081576914682437 0 1.489036872805411 -0.4562706909458471 0
          1.4902140388088478 -0.41751981968448515 0 1.5674043652397298 -0.5405947626855978 0
          1.9777615075551302 -0.2850954612143254 0 -8.725482841436236 5.775981539024389 0
          4.746143244889465 -1.6188304449457176 0 5.129922944297918 -1.9355986509314729 0
          5.451360725557076 -1.7507456753028723 0 5.082053128219716 -1.9144202638244483 0
          5.50333423897291 -1.7039226323742924 0 5.170189691475348 -1.9382387844495599 0
          5.478496136436727 -1.6834685779274134 0 5.199838817766306 -1.9465554326927577 0
          5.464729198674009 -1.6790444872567858 0 5.205284251448382 -1.9481895069641748 0
          5.459200738230787 -1.677553301610779 0 5.205658203226363 -1.9483069120531065 0
          5.456835769464044 -1.6753746745642952 0 5.204484101465483 -1.948025617118744 0
          5.576485537633639 -1.7211926498951835 0 5.201467416708647 -1.9470404135980486 0
          5.85424615231851 -1.8509910225224906 0 5.244383031752978 -1.9582281722051886 0
          <InformationKey name="L2_NORM_RANGE" location="vtkDataArray" length="2">
            <Value index="0">
              0.061803576486
            </Value>
            <Value index="1">
              10.464034287
            </Value>
          </InformationKey>
        </DataArray>
        <DataArray type="Float64" Name="ENRES" format="ascii" RangeMin="-15.755660713786629" RangeMax="10.783310424994367">
          0.17779761979614472 -0.8656029937058021 0.33821937512237277 0.4606949308549476 0.2097059882852194 0.4062662363381634
          0.12946821233123373 0.21263118241936585 0.1223481883169596 0.1348052075927787 0.12606321175148316 0.12533939877238615
          0.12718544170889495 0.12005675223159265 0.11311694194318792 0.10640987668498272 0.11920108830188109 0.2116651950835759
          0.27606454304413375 0.4763615917963281 1.7392661948468036 -6.758334772326053 2.939397916794506 1.4346816451351376
          2.8703509341228095 2.864815021854711 2.6949914235661843 2.7862723920853436 2.6219957221283883 2.6753058749827483
          2.6125884756028177 2.635553563625181 2.607016740161539 2.6261815485022724 2.5821974323214296 2.627175993711807
          2.611427572321599 2.766708452956723 2.7400974958797857 2.9028791050804053 3.27648848476418 -15.755660713786629
          8.633605536309219 9.434746556548113 10.062344804719391 9.331577872157101 10.157522674121488 9.495374158254066
          10.100331051818761 9.551616401215941 10.070870962470856 9.56213535105163 10.06005513325276 9.562866132344245
          10.055504384629867 9.560669847506796 10.28293450085637 9.555041878836226 10.783310424994367 9.634943150759764
        </DataArray>
      </CellData>
      <Points>
        <DataArray type="Float32" Name="Points" NumberOfComponents="3" format="ascii" RangeMin="0" RangeMax="4.2201894765504395">
          4.099999904632568 1 0 4.099999904632568 0.6666666865348816 0
          3.690000057220459 1 0 3.690000057220459 0.6666666865348816 0
          4.099999904632568 0.3333333134651184 0 3.690000057220459 0.3333333134651184 0
          3.2799999713897705 1 0 3.2799999713897705 0.6666666865348816 0
          4.099999904632568 0 0 3.2799999713897705 0.3333333134651184 0
          3.690000057220459 0 0 2.869999885559082 1 0
          2.869999885559082 0.6666666865348816 0 3.2799999713897705 0 0
          2.869999885559082 0.3333333134651184 0 2.869999885559082 0 0
          2.4600000381469727 1 0 2.4600000381469727 0.6666666865348816 0
          2.4600000381469727 0.3333333134651184 0 2.4600000381469727 0 0
          2.049999952316284 1 0 2.049999952316284 0.6666666865348816 0
          2.049999952316284 0.3333333134651184 0 2.049999952316284 0 0
          1.6399999856948853 1 0 1.6399999856948853 0.6666666865348816 0
          1.6399999856948853 0.3333333134651184 0 1.6399999856948853 0 0
          1.2300000190734863 1 0 1.2300000190734863 0.6666666865348816 0
          1.2300000190734863 0.3333333134651184 0 1.2300000190734863 0 0
          0.8199999928474426 1 0 0.8199999928474426 0.6666666865348816 0
          0.8199999928474426 0.3333333134651184 0 0.8199999928474426 0 0
          0.4099999964237213 1 0 0.4099999964237213 0.6666666865348816 0
          0.4099999964237213 0.3333333134651184 0 0.4099999964237213 0 0
          0 1 0 0 0.6666666865348816 0
          0 0.3333333134651184 0 0 0 0
          <InformationKey name="L2_NORM_RANGE" location="vtkDataArray" length="2">
            <Value index="0">
              0
            </Value>
            <Value index="1">
              4.2201894766
            </Value>
          </InformationKey>
        </DataArray>
      </Points>
      <Cells>
        <DataArray type="Int64" Name="connectivity" format="ascii" RangeMin="0" RangeMax="43">
          39 38 43 38 42 43
          35 34 39 34 38 39
          31 30 35 30 34 35
          27 26 31 26 30 31
          23 22 27 22 26 27
          19 18 23 18 22 23
          15 14 19 14 18 19
          13 9 15 9 14 15
          10 5 13 5 9 13
          8 4 10 4 5 10
          38 37 42 37 41 42
          34 33 38 33 37 38
          30 29 34 29 33 34
          26 25 30 25 29 30
          22 21 26 21 25 26
          18 17 22 17 21 22
          14 12 18 12 17 18
          9 7 14 7 12 14
          5 3 9 3 7 9
          4 1 5 1 3 5
          37 36 41 36 40 41
          33 32 37 32 36 37
          29 28 33 28 32 33
          25 24 29 24 28 29
          21 20 25 20 24 25
          17 16 21 16 20 21
          12 11 17 11 16 17
          7 6 12 6 11 12
          3 2 7 2 6 7
          1 0 3 0 2 3
        </DataArray>
        <DataArray type="Int64" Name="offsets" format="ascii" RangeMin="3" RangeMax="180">
          3 6 9 12 15 18
          21 24 27 30 33 36
          39 42 45 48 51 54
          57 60 63 66 69 72
          75 78 81 84 87 90
          93 96 99 102 105 108
          111 114 117 120 123 126
          129 132 135 138 141 144
          147 150 153 156 159 162
          165 168 171 174 177 180
        </DataArray>
        <DataArray type="UInt8" Name="types" format="ascii" RangeMin="5" RangeMax="5">
          5 5 5 5 5 5
          5 5 5 5 5 5
          5 5 5 5 5 5
          5 5 5 5 5 5
          5 5 5 5 5 5
          5 5 5 5 5 5
          5 5 5 5 5 5
          5 5 5 5 5 5
          5 5 5 5 5 5
          5 5 5 5 5 5
        </DataArray>
      </Cells>
    </Piece>
  </UnstructuredGrid>
</VTKFile>
