<?xml version="1.0"?>
<VTKFile type="UnstructuredGrid" version="0.1" byte_order="LittleEndian" header_type="UInt32" compressor="vtkZLibDataCompressor">
  <UnstructuredGrid>
    <Piece NumberOfPoints="44" NumberOfCells="60">
      <PointData>
        <DataArray type="Float64" Name="Density" format="ascii" RangeMin="0.9938931661632046" RangeMax="1.7">
          1.7 1.0908648724435683 1.7 1.103890989357108 0.9938931661632046 0.9987714818079468
          1.7 1.1070965437707159 0.9977511013574019 0.9996332955632254 0.999204485250552 1.7
          1.1070032879852367 0.9993144219636866 0.999415090076956 0.9991692642253688 1.7 1.1069598632016988
          0.9993704645616484 0.9991555381772736 1.7 1.1069083072048627 0.999386522473086 0.9991592412565828
          1.7 1.1071154679086663 0.999239542595374 0.9991972927075643 1.7 1.1073664659370057
          0.9996289437257916 0.9988950895912594 1.7 1.1126333796183716 1.0000807985420852 0.9994004598187766
          1.7 1.120424453604187 1.005437751980377 0.9995417643118852 1 1
          1 1
        </DataArray>
        <DataArray type="Float64" Name="Momentum" NumberOfComponents="3" format="ascii" RangeMin="2.882757298871631" RangeMax="4.535233026008696">
          4.4528099999999995 -0.86071 0 3.1514904083138973 -0.06863001353093048 0
          4.4528099999999995 -0.86071 0 3.1800295980742317 -0.08321753407083052 0
          2.882752616509736 0.005195787132787003 0 2.896377012296615 0.0008690415876748944 0
          4.4528099999999995 -0.86071 0 3.1887520711154114 -0.08682583328006822 0
          2.8933458153747997 0.0015488596310138487 0 2.898903510653068 -0.000011236300081047439 0
          2.89772751647342 0 0 4.4528099999999995 -0.86071 0
          3.1885648343416033 -0.08668193873641139 0 2.8980344951611796 0 0
          2.898319002298935 0.00029761079403674783 0 2.897600879007033 0 0
          4.4528099999999995 -0.86071 0 3.188435015185495 -0.08663572675841016 0
          2.898175047916583 0.00034914890276304875 0 2.8975484444399027 0 0
          4.4528099999999995 -0.86071 0 3.188264722681379 -0.08659537360299155 0
          2.898226601162753 0.00033526907181205795 0 2.897560684687788 0 0
          4.4528099999999995 -0.86071 0 3.188956578342353 -0.08673142013463955 0
          2.8977475745091454 0.0004423836742231045 0 2.897684759927975 0 0
          4.4528099999999995 -0.86071 0 3.1896724296669965 -0.08716028066025842 0
          2.899046178901186 0.00017930131827742892 0 2.896706370939398 0 0
          4.4528099999999995 -0.86071 0 3.2042151273179407 -0.093961975134606 0
          2.9003515265391804 -0.0001428515169389992 0 2.898396285452309 0 0
          4.4528099999999995 -0.86071 0 3.215966667301337 -0.11007509502855398 0
          2.9158133040412744 -0.004847660238586106 0 2.8986842891503257 0 0
          2.9 0 0 2.9 0 0
          2.9 0 0 2.9 0 0
          <InformationKey name="L2_NORM_RANGE" location="vtkDataArray" length="2">
            <Value index="0">
              2.8827572989
            </Value>
            <Value index="1">
              4.535233026
            </Value>
          </InformationKey>
        </DataArray>
        <DataArray type="Float64" Name="Energy" format="ascii" RangeMin="4.889948475966364" RangeMax="7.585636452999999">
          7.585636452999999 5.395076667103263 7.585636452999999 5.446273320132693 4.889948475966364 4.915886892855661
          7.585636452999999 5.462542478546695 4.91076266546542 4.9207016154193 4.919054954223106 7.585636452999999
          5.462165128297583 4.919621050764584 4.919498663326225 4.918703400495941 7.585636452999999 5.46192228524407
          4.919211919993138 4.9185856775777514 7.585636452999999 5.461570143511605 4.919316479461047 4.91861442033152
          7.585636452999999 5.462969416416515 4.918362944931975 4.91885744402739 7.585636452999999 5.4644850107532745
          4.920939212370766 4.916950410334637 7.585636452999999 5.4936731621616595 4.923429294080104 4.920270412157255
          7.585636452999999 5.513442647364909 4.953096409916697 4.9206881109258624 4.923 4.923
          4.923 4.923
        </DataArray>
        <DataArray type="Float64" Name="DERPR" format="ascii" RangeMin="-3.787341463414633" RangeMax="2.389162803984877">
          2.389162803984877 1.0074741977238288 2.3359607729620984 1.3323473350651402 0.0950256800268287 0.14499294124901232
          2.3216444018637583 1.2996363182028847 -0.0002537077491036044 0.13366861751412737 0.009503668112228606 2.3220250839524734
          1.291125780313389 0.001104537342518048 0.12922498276948205 -0.0014543585784313846 2.32212495591619 1.2913153996826205
          0.12983494130207285 -0.0011456230906960693 2.322770549157398 1.2918985517892896 0.1295002862238845 -0.0008669483400281139
          2.322089104168038 1.2935517885355308 0.1306569308115319 -0.0023040531292518695 2.325671026353178 1.3077240418915135
          0.13391358948609702 0.0008332655736551338 2.293685280662829 1.3276183658712881 0.15971613955231515 0.002775723554632787
          -0.018060663752337267 0.9854787450903651 0.16201074627274226 0.023712556758241788 -3.787341463414633 -1.0255790876450912
          -0.17736875898417215 -0.010408500612044678
        </DataArray>
        <DataArray type="Float64" Name="MORPR" NumberOfComponents="3" format="ascii" RangeMin="0.0024609749120818986" RangeMax="10.620259285767293">
          5.80514908539778 -2.6236831503694926 0 2.852834410001539 -0.681231178594197 0
          5.681737627962195 -2.557746901785288 0 3.771994884459381 -0.8683093948231736 0
          0.2787662994150575 -0.07479461538744776 0 0.4149515655265114 -0.1169404049684495 0
          5.64226546406092 -2.541720602575796 0 3.689082790057768 -0.8326760205185876 0
          0.0021287742533225157 -0.003274874393906616 0 0.38803971858389785 -0.09826526448685477 0
          0.029595242464641725 -0.010412130986969522 0 5.643094325718142 -2.5423102853175714 0
          3.664540056783403 -0.8233241559164413 0 0.0035334294768980257 -0.0015590561013301345 0
          0.37472608260581064 -0.0922722766762417 0 -0.004401267705489825 0.0009745934117005765 0
          5.643337578989003 -2.5424695583914034 0 3.6649467095635924 -0.8236223632285006 0
          0.3764894759058399 -0.09317030019346388 0 -0.003406459602017506 0.0004581996895854194 0
          5.645488896893663 -2.5428441368927217 0 3.6668606613030086 -0.8239506558023356 0
          0.3753833877679352 -0.09297079413272193 0 -0.0024418249894959253 0.0003064118773313663 0
          5.643350115619159 -2.54255456102157 0 3.6722332512572113 -0.8258487469503834 0
          0.37925040070406074 -0.09397337480145612 0 -0.007172945572613165 0.0007695996233228928 0
          5.655771195866159 -2.547273544691167 0 3.7136445148880393 -0.844041050922629 0
          0.38952877095377264 -0.09583022788143028 0 0.003319660309862472 -0.0006525728067730545 0
          5.556307874487099 -2.5291573199090283 0 3.747324476604306 -0.8986107102573493 0
          0.4661725729379533 -0.11885885734645697 0 0.008717882495635544 -0.001161471541644186 0
          0.0045717571800316685 0.31010348989093317 0 2.75495653940369 -0.5916518416196402 0
          0.45973963130629125 -0.12643615989656637 0 0.07090517632106415 -0.017356892458753936 0
          -8.702113935308102 6.087948780487805 0 -2.1763079479379086 2.1732171657922392 0
          -0.5005337861961294 0.2118579810937176 0 -0.033699401419398874 0.012552615928153961 0
          <InformationKey name="L2_NORM_RANGE" location="vtkDataArray" length="2">
            <Value index="0">
              0.0024609749121
            </Value>
            <Value index="1">
              10.620259286
            </Value>
          </InformationKey>
        </DataArray>
        <DataArray type="Float64" Name="ENRPR" format="ascii" RangeMin="-15.936461299466677" RangeMax="10.723176923635036">
          10.723176923635036 5.231760572487231 10.49102622994439 6.913658062354153 0.5139925415036161 0.7570302133923209
          10.415594403960837 6.758883631187547 0.00863779727248841 0.6995465486789166 0.06081500050617031 10.417313758549206
          6.71175310290709 0.007058817405701042 0.6729838037013892 -0.008914917375719509 10.417730470272506 6.71254940199067
          0.6768016219151269 -0.006256527036442718 10.422076753416421 6.716266732515628 0.6745940211370064 -0.004272812925108695
          10.417907742832096 6.7276016058073855 0.6822390293554721 -0.013591558561010438 10.44415960271087 6.812631309972313
          0.7024448873811326 0.00709021578094413 10.246382147045292 6.88667193827952 0.8510730131518927 0.016922996347904912
          0.2182303654441766 4.974812250867212 0.830423724696081 0.1344309012737866 -15.936461299466677 -4.245915080571497
          -1.0313126668248416 -0.0703122021095756
        </DataArray>
      </PointData>
      <CellData>
        <DataArray type="UInt8" Name="vtkGhostType" format="ascii" RangeMin="0" RangeMax="0">
          0 0 0 0 0 0
          0 0 0 0 0 0
          0 0 0 0 0 0
          0 0 0 0 0 0
          0 0 0 0 0 0
          0 0 0 0 0 0
          0 0 0 0 0 0
          0 0 0 0 0 0
          0 0 0 0 0 0
          0 0 0 0 0 0
        </DataArray>
        <DataArray type="Float64" Name="sgvis" format="ascii" RangeMin="0.3813903873148593" RangeMax="0.487456039967744">
          0.4868372125186651 0.4865027896518497 0.4869253124496733 0.48650981791065917 0.48692986174734154 0.4869451600113457
          0.4869152132538651 0.4869726840066704 0.4869207615606692 0.48698181758475234 0.48692010304582123 0.48697661732826025
          0.48692113888195776 0.4869743967250484 0.4869104278324705 0.48694187709187353 0.4869181764294951 0.4869783353538121
          0.4870288631334728 0.487456039967744 0.48341906655146916 0.4768377554441501 0.4842171563818912 0.46828321298258546
          0.48440574397863045 0.4708197147862543 0.48440869090465144 0.4713556423502313 0.4843986956646005 0.47139674545275456
          0.4844012705563847 0.47139314612579253 0.4844017489601776 0.47139019944588 0.48438630594134424 0.4713697286312152
          0.4844409753759754 0.4715796295054412 0.4852941229181229 0.4734538407375837 0.46418322819286917 0.4357051818964428
          0.4613837791056401 0.3813903873148593 0.4623118000444225 0.38280165434974195 0.4624335032994721 0.3831784689322199
          0.46243468332211146 0.38320056167602085 0.46243141076729344 0.3832017251310074 0.4624322034643378 0.38320091438791404
          0.46242492674831537 0.3831991559720654 0.4624784072165218 0.3831864953383411 0.46330108888238497 0.3833866958166319
        </DataArray>
        <DataArray type="Float64" Name="sgtco" format="ascii" RangeMin="0.3813903873148593" RangeMax="0.487456039967744">
          0.4868372125186651 0.4865027896518497 0.4869253124496733 0.48650981791065917 0.48692986174734154 0.4869451600113457
          0.4869152132538651 0.4869726840066704 0.4869207615606692 0.48698181758475234 0.48692010304582123 0.48697661732826025
          0.48692113888195776 0.4869743967250484 0.4869104278324705 0.48694187709187353 0.4869181764294951 0.4869783353538121
          0.4870288631334728 0.487456039967744 0.48341906655146916 0.4768377554441501 0.4842171563818912 0.46828321298258546
          0.48440574397863045 0.4708197147862543 0.48440869090465144 0.4713556423502313 0.4843986956646005 0.47139674545275456
          0.4844012705563847 0.47139314612579253 0.4844017489601776 0.47139019944588 0.48438630594134424 0.4713697286312152
          0.4844409753759754 0.4715796295054412 0.4852941229181229 0.4734538407375837 0.46418322819286917 0.4357051818964428
          0.4613837791056401 0.3813903873148593 0.4623118000444225 0.38280165434974195 0.4624335032994721 0.3831784689322199
          0.46243468332211146 0.38320056167602085 0.46243141076729344 0.3832017251310074 0.4624322034643378 0.38320091438791404
          0.46242492674831537 0.3831991559720654 0.4624784072165218 0.3831864953383411 0.46330108888238497 0.3833866958166319
        </DataArray>
        <DataArray type="Float64" Name="MOSGS" NumberOfComponents="3" format="ascii" RangeMin="0" RangeMax="0.3248269812759853">
          6.9087302628462e-310 4.6820856224806e-310 4.6820856224806e-310 -0.006587541482209731 0.0019979847792437992 0
          -0.005455065371535707 0.0000930564033133673 0 -0.010382820660939724 0.0026264735999404903 0
          -0.010062262894744295 0.0026057323691210136 0 -0.007024989079745106 0.0018640125895459077 0
          -0.01604308707992916 0.004009039366080302 0 -0.007930157775226529 0.001846694898764867 0
          -0.014365996186889529 0.003547888093556639 0 -0.007169281242187125 0.0017928643991674603 0
          -0.014878867172485561 0.003672686730102106 0 -0.007323108819359046 0.0018037005258622857 0
          -0.014609829350992514 0.0036005553146067747 0 -0.007259369192594193 0.001771093911942393 0
          -0.014678043482170049 0.0036118808484891214 0 -0.007664834253414618 0.0019147168566569488 0
          -0.015030712783531254 0.0038030370477594305 0 -0.00895716627195495 0.0025637485966389056 0
          -0.01445243975782609 0.003830541530342393 0 -0.005871091355528648 0.0015177778207484825 0
          -0.008641951799501144 0.0022067950120983173 0 -0.006565030445921147 -0.0014398674296736847 0
          -0.1255949883345116 0.009989459413735573 0 -0.03625789412953831 0.007922765350052437 0
          -0.07824723972831349 0.010470645903661108 0 -0.04364881636581687 0.008811221751250042 0
          -0.09737744726359582 0.019836361526231756 0 -0.04119803596767173 0.008016499543627667 0
          -0.10349179951348167 0.021313383262334232 0 -0.04180022160859787 0.008112433066467611 0
          -0.10249138394908766 0.021029848782262 0 -0.04142998476560174 0.008032639855014593 0
          -0.10281048479074006 0.021074146613968663 0 -0.04150451258940996 0.008040191062241079 0
          -0.10273498967972233 0.021060127776930213 0 -0.04245967380597497 0.00843488426755375 0
          -0.10315437786105772 0.021250384594388917 0 -0.04484646770704065 0.009392216688239044 0
          -0.10199352589055169 0.020763627432298634 0 -0.025429242711262193 0.005245165884427933 0
          -0.08268193094903378 0.014343211855758608 0 0.2196570602259531 -0.09206214287844532 0
          -0.2819944194820094 0.16121946267704101 0 0.1266856989157592 -0.033229275485846616 0
          0.1518443045556751 -0.06080588282805405 0 0.11513737233807508 -0.024456051970972698 0
          0.04482343322348639 -0.008101822100393596 0 0.11138322689054846 -0.023059986788431297 0
          0.046925473212604984 -0.00952900497936551 0 0.11234461336416932 -0.02332019806158165 0
          0.04797933335013281 -0.009949692524949531 0 0.11208950599673465 -0.023281867374109994 0
          0.048134358905910404 -0.010001683388779051 0 0.11213920164821137 -0.023294329644344136 0
          0.04818805147925386 -0.010010717761592439 0 0.11161811780334782 -0.023082353271257988 0
          0.04819222615470532 -0.01002437758992156 0 0.1142871529038833 -0.02370606732187905 0
          0.04705658918809155 -0.009585173518531189 0 0.141278061516609 -0.030832438610334634 0
          0.04448661625673793 -0.007943704404088812 0
          <InformationKey name="L2_NORM_RANGE" location="vtkDataArray" length="2">
            <Value index="0">
              0
            </Value>
            <Value index="1">
              0.32482698128
            </Value>
          </InformationKey>
        </DataArray>
        <DataArray type="Float64" Name="CORES" format="ascii" RangeMin="-3.7873414634146334" RangeMax="2.445847976934483">
          0.017752033022921054 -0.038569034247010414 0.0011310026376163407 0.052254634614187966 0.003583838705793596 0.003612329320488426
          -0.0037134657616704194 0.0026294237768422256 -0.0007031847789749079 -0.0024955088471102812 -0.0010175925498980831 -0.0008800676912113512
          -0.0010207216595166098 -0.001398555062673514 -0.001023891472352822 -0.002318462603424721 -0.0018583965170071437 0.006195900016914107
          -0.0002537077491036044 0.03062310860279658 0.2771132069864448 -0.7706504080520417 0.31916896700566966 0.3443445338758863
          0.26520246825868454 0.3169273088321337 0.2646886869077808 0.26376467237246287 0.25962351817431006 0.26320881195395984
          0.2610803144174101 0.26037652829502067 0.2605874881539857 0.2606379427045359 0.2590181087191823 0.2604819213455564
          0.2584218676368808 0.28171806334189614 0.254707591322215 0.32186745642683534 1.4812545320527901 -3.7873414634146334
          2.3289065972630434 2.251904940104832 2.356119384354759 2.300244304620612 2.323681950630272 2.320649390084163
          2.32403156425708 2.321935971789678 2.3218077043760594 2.322344111425436 2.321767783911139 2.3222230519470743
          2.3211960572669996 2.322084415999207 2.3537519555259543 2.321652732325068 2.445847976934483 2.332477631035271
        </DataArray>
        <DataArray type="Float64" Name="MORES" NumberOfComponents="3" format="ascii" RangeMin="0.0019283287735043849" RangeMax="10.464034286801086">
          0.05180793302978495 -0.00922017514743491 0 -0.1191986088062362 0.0342886711512039 0
          0.00259378021047267 -0.00042643845440372896 0 0.15830712921269172 -0.04249961219235925 0
          0.012519844865607472 -0.0003528632372329976 0 0.01103995798339353 -0.002705152793509886 0
          -0.011828133216637188 0.0006084628403339321 0 0.009267155976942863 -0.0022137756907655206 0
          -0.0018992945363383949 0.00033336484961682264 0 -0.007791232304816232 0.0013658647521574171 0
          -0.0029316532266069955 0.0003501356289561051 0 -0.00249454162457232 0.00023500276819646417 0
          -0.003072620427300969 0.00030925831356619875 0 -0.004215140091565471 0.0007145003314904758 0
          -0.003327187490417013 0.00012043991249320203 0 -0.006804016760859696 0.002493804157701017 0
          -0.005335969875249952 0.0013071486112030224 0 0.0192638824696979 -0.006105828953888286 0
          0.0021259678508222706 -0.0032877733558887064 0 0.0920032430473593 -0.029308064750032024 0
          0.7902164158570637 -0.19340740477774254 0 -2.1764942134472913 0.7735516620393132 0
          0.9285338253917721 -0.243797068112632 0 0.9289708607837899 -0.35253238762776173 0
          0.7664036133426845 -0.20012993446962943 0 0.9156501556483343 -0.26872124237051503 0
          0.7660123179563448 -0.19951711060518207 0 0.7588015680546978 -0.21106377862918313 0
          0.7491235119568986 -0.19627875649350746 0 0.7577290893036694 -0.20881864793205518 0
          0.7539597862196408 -0.19727983858456744 0 0.7483867958004877 -0.20696306381956997 0
          0.7523146139079865 -0.19681660107115026 0 0.749292192890488 -0.20706355749404404 0
          0.7478285521887573 -0.19480613400369556 0 0.7492702548705583 -0.2064025259659541 0
          0.7476433219830672 -0.1983556733268785 0 0.8107759914008112 -0.2321462240045228 0
          0.7403432882196396 -0.19981281647244842 0 0.8855831320324503 -0.30195536200636264 0
          3.9441012311288763 -0.9303753182579341 0 -8.725482841436236 5.775981539024389 0
          6.215773657291997 -1.914818605061273 0 5.760127129515073 -2.12481297061825 0
          6.368754253094391 -1.8537367189069485 0 5.893851827439419 -2.156280988639434 0
          6.275341378423788 -1.8041677530077513 0 5.952731393008985 -2.170631720353555 0
          6.2770784944375215 -1.802091720247209 0 5.956440618631653 -2.1714557819039544 0
          6.269565461489128 -1.8005729235628587 0 5.957689245026452 -2.171815894024042 0
          6.269580932353403 -1.8005298065598463 0 5.957323985143644 -2.17171048474623 0
          6.268313911523615 -1.7996816513321237 0 5.956918094013647 -2.1716316629932537 0
          6.3626625269543124 -1.8304881690022732 0 5.955705729723345 -2.1712901490672114 0
          6.592875556123024 -1.9249957269681637 0 5.986980811478418 -2.1781769685398693 0
          <InformationKey name="L2_NORM_RANGE" location="vtkDataArray" length="2">
            <Value index="0">
              0.0019283287735
            </Value>
            <Value index="1">
              10.464034287
            </Value>
          </InformationKey>
        </DataArray>
        <DataArray type="Float64" Name="ENRES" format="ascii" RangeMin="-15.755660713786629" RangeMax="12.100626003937395">
          0.09328825306110675 -0.2338462497893904 0.0041485447333346505 0.30592553053949534 0.025097109686748678 0.02152300034076014
          -0.022685019583659823 0.018859191000083722 -0.0032267386329178655 -0.014859894451156392 -0.0052138764194172875 -0.004376195451187826
          -0.005716032948892107 -0.007838151623440093 -0.007254182237822647 -0.01377382646769152 -0.009342729518064167 0.03777691771376146
          0.008655392551607716 0.1832312345272366 1.4190402658407753 -4.260299934329966 1.70555553914533 1.7103073537214382
          1.3919049889148025 1.704410127234117 1.391550837754691 1.390791236827436 1.3580307785898869 1.3879637833327365
          1.367723584441019 1.36928471736101 1.364406964284812 1.3712317320840577 1.3551296726509081 1.3708234626633313
          1.3586874835039706 1.4902616738082264 1.3569742680848758 1.6360827940879479 6.94016019686074 -15.755660713786629
          11.418214672062648 10.601933434786066 11.715205969941756 10.844644336118304 11.515856562419708 10.95347936099602
          11.518040660490328 10.960332144146223 11.502624385469758 10.962699169318196 11.502982365928363 10.962007489004565
          11.500373174890118 10.961264862320947 11.67854441459805 10.959036351187144 12.100626003937395 11.01620884419524
        </DataArray>
      </CellData>
      <Points>
        <DataArray type="Float32" Name="Points" NumberOfComponents="3" format="ascii" RangeMin="0" RangeMax="4.2201894765504395">
          4.099999904632568 1 0 4.099999904632568 0.6666666865348816 0
          3.690000057220459 1 0 3.690000057220459 0.6666666865348816 0
          4.099999904632568 0.3333333134651184 0 3.690000057220459 0.3333333134651184 0
          3.2799999713897705 1 0 3.2799999713897705 0.6666666865348816 0
          4.099999904632568 0 0 3.2799999713897705 0.3333333134651184 0
          3.690000057220459 0 0 2.869999885559082 1 0
          2.869999885559082 0.6666666865348816 0 3.2799999713897705 0 0
          2.869999885559082 0.3333333134651184 0 2.869999885559082 0 0
          2.4600000381469727 1 0 2.4600000381469727 0.6666666865348816 0
          2.4600000381469727 0.3333333134651184 0 2.4600000381469727 0 0
          2.049999952316284 1 0 2.049999952316284 0.6666666865348816 0
          2.049999952316284 0.3333333134651184 0 2.049999952316284 0 0
          1.6399999856948853 1 0 1.6399999856948853 0.6666666865348816 0
          1.6399999856948853 0.3333333134651184 0 1.6399999856948853 0 0
          1.2300000190734863 1 0 1.2300000190734863 0.6666666865348816 0
          1.2300000190734863 0.3333333134651184 0 1.2300000190734863 0 0
          0.8199999928474426 1 0 0.8199999928474426 0.6666666865348816 0
          0.8199999928474426 0.3333333134651184 0 0.8199999928474426 0 0
          0.4099999964237213 1 0 0.4099999964237213 0.6666666865348816 0
          0.4099999964237213 0.3333333134651184 0 0.4099999964237213 0 0
          0 1 0 0 0.6666666865348816 0
          0 0.3333333134651184 0 0 0 0
          <InformationKey name="L2_NORM_RANGE" location="vtkDataArray" length="2">
            <Value index="0">
              0
            </Value>
            <Value index="1">
              4.2201894766
            </Value>
          </InformationKey>
        </DataArray>
      </Points>
      <Cells>
        <DataArray type="Int64" Name="connectivity" format="ascii" RangeMin="0" RangeMax="43">
          39 38 43 38 42 43
          35 34 39 34 38 39
          31 30 35 30 34 35
          27 26 31 26 30 31
          23 22 27 22 26 27
          19 18 23 18 22 23
          15 14 19 14 18 19
          13 9 15 9 14 15
          10 5 13 5 9 13
          8 4 10 4 5 10
          38 37 42 37 41 42
          34 33 38 33 37 38
          30 29 34 29 33 34
          26 25 30 25 29 30
          22 21 26 21 25 26
          18 17 22 17 21 22
          14 12 18 12 17 18
          9 7 14 7 12 14
          5 3 9 3 7 9
          4 1 5 1 3 5
          37 36 41 36 40 41
          33 32 37 32 36 37
          29 28 33 28 32 33
          25 24 29 24 28 29
          21 20 25 20 24 25
          17 16 21 16 20 21
          12 11 17 11 16 17
          7 6 12 6 11 12
          3 2 7 2 6 7
          1 0 3 0 2 3
        </DataArray>
        <DataArray type="Int64" Name="offsets" format="ascii" RangeMin="3" RangeMax="180">
          3 6 9 12 15 18
          21 24 27 30 33 36
          39 42 45 48 51 54
          57 60 63 66 69 72
          75 78 81 84 87 90
          93 96 99 102 105 108
          111 114 117 120 123 126
          129 132 135 138 141 144
          147 150 153 156 159 162
          165 168 171 174 177 180
        </DataArray>
        <DataArray type="UInt8" Name="types" format="ascii" RangeMin="5" RangeMax="5">
          5 5 5 5 5 5
          5 5 5 5 5 5
          5 5 5 5 5 5
          5 5 5 5 5 5
          5 5 5 5 5 5
          5 5 5 5 5 5
          5 5 5 5 5 5
          5 5 5 5 5 5
          5 5 5 5 5 5
          5 5 5 5 5 5
        </DataArray>
      </Cells>
    </Piece>
  </UnstructuredGrid>
</VTKFile>
