<?xml version="1.0"?>
<VTKFile type="UnstructuredGrid" version="0.1" byte_order="LittleEndian" header_type="UInt32" compressor="vtkZLibDataCompressor">
  <UnstructuredGrid>
    <Piece NumberOfPoints="44" NumberOfCells="60">
      <PointData>
        <DataArray type="Float64" Name="Density" format="ascii" RangeMin="1" RangeMax="1.7">
          1.7 1.079437309388409 1.7 1.0746795615292413 1.0013887509039436 1.00573712016111
          1.7 1.0730036615449063 1.0003578455253959 1.0052412925576057 1.0006661676238973 1.7
          1.0729791306071825 1.000805684477562 1.005192042435775 1.0007561610745237 1.7 1.0729791306071825
          1.005192042435775 1.0007561610745237 1.7 1.0729791306071825 1.005192042435775 1.0007561610745237
          1.7 1.0729791306071825 1.005192042435775 1.0007561610745237 1.7 1.0729791306071825
          1.005192042435775 1.0007561610745237 1.7 1.072885732256095 1.005192042435775 1.0007561610745237
          1.7 1.0688423793760844 1.0049094380317378 1.0007561610745237 1 1
          1 1
        </DataArray>
        <DataArray type="Float64" Name="Momentum" NumberOfComponents="3" format="ascii" RangeMin="2.9" RangeMax="4.535233026008696">
          4.4528099999999995 -0.86071 0 3.1195131015075708 -0.06314625118118478 0
          4.4528099999999995 -0.86071 0 3.103130932262065 -0.060040126863844634 0
          2.9034529028929303 -0.0009476220991178627 0 2.915858644293936 -0.004429381582660269 0
          4.4528099999999995 -0.86071 0 3.0977842882562667 -0.05887571504372086 0
          2.9010046984842277 -0.00027875538940331016 0 2.9142201408720045 -0.004055956564425512 0
          2.9018525703095714 0 0 4.4528099999999995 -0.86071 0
          3.097706334691116 -0.058857041965426946 0 2.902208716048269 0 0
          2.914064058549073 -0.004020894758498562 0 2.902051889456365 0 0
          4.4528099999999995 -0.86071 0 3.097706334691116 -0.05885704196542692 0
          2.914064058549073 -0.004020894758498558 0 2.902051889456365 0 0
          4.4528099999999995 -0.86071 0 3.097706334691116 -0.058857041965426946 0
          2.914064058549073 -0.004020894758498558 0 2.902051889456365 0 0
          4.4528099999999995 -0.86071 0 3.097706334691116 -0.058857041965426946 0
          2.914064058549073 -0.004020894758498563 0 2.902051889456365 0 0
          4.4528099999999995 -0.86071 0 3.097706334691116 -0.058857041965426925 0
          2.914064058549073 -0.00402089475849856 0 2.902051889456365 0 0
          4.4528099999999995 -0.86071 0 3.0974541016593498 -0.0587784908156498 0
          2.914064058549073 -0.004020894758498545 0 2.902051889456365 0 0
          4.4528099999999995 -0.86071 0 3.085839475033361 -0.05535294316595348 0
          2.913296470587206 -0.0037982245414726877 0 2.902051889456365 0 0
          2.9 0 0 2.9 0 0
          2.9 0 0 2.9 0 0
          <InformationKey name="L2_NORM_RANGE" location="vtkDataArray" length="2">
            <Value index="0">
              2.9
            </Value>
            <Value index="1">
              4.535233026
            </Value>
          </InformationKey>
        </DataArray>
        <DataArray type="Float64" Name="Energy" format="ascii" RangeMin="4.923" RangeMax="7.585636452999999">
          7.585636452999999 5.338820296928395 7.585636452999999 5.312561907519627 4.928812781326343 4.953325445593314
          7.585636452999999 5.302727599503895 4.924924688167786 4.950384473267622 4.926558760722963 7.585636452999999
          5.302584148512402 4.927260655071249 4.950101374325085 4.926970039586953 7.585636452999999 5.302584148512402
          4.950101374325085 4.926970039586953 7.585636452999999 5.302584148512402 4.950101374325085 4.926970039586953
          7.585636452999999 5.302584148512402 4.950101374325085 4.926970039586953 7.585636452999999 5.302584148512402
          4.950101374325085 4.926970039586953 7.585636452999999 5.302113629138453 4.950101374325085 4.926970039586953
          7.585636452999999 5.279366510660965 4.948597787884981 4.926970039586953 4.923 4.923
          4.923 4.923
        </DataArray>
      </PointData>
      <CellData>
        <DataArray type="UInt8" Name="vtkGhostType" format="ascii" RangeMin="0" RangeMax="0">
          0 0 0 0 0 0
          0 0 0 0 0 0
          0 0 0 0 0 0
          0 0 0 0 0 0
          0 0 0 0 0 0
          0 0 0 0 0 0
          0 0 0 0 0 0
          0 0 0 0 0 0
          0 0 0 0 0 0
          0 0 0 0 0 0
        </DataArray>
        <DataArray type="Float64" Name="sgvis" format="ascii" RangeMin="0.3849002167162294" RangeMax="0.48682193701468546">
          0.48672729949224536 0.48649002909279093 0.486695907194022 0.48603781574514193 0.486695907194022 0.4860140135025207
          0.4866959071940218 0.4860140135025205 0.4866959071940218 0.4860140135025205 0.4866959071940222 0.4860140135025208
          0.4866959071940222 0.4860140135025208 0.486697446690714 0.48601247178832885 0.48671949264649195 0.4860012396426979
          0.48682193701468546 0.486322562971393 0.48487837228000863 0.4814946417149395 0.4846720802747191 0.47550678573915084
          0.4846613698677359 0.47522760938292974 0.4846613698677359 0.47522108268191376 0.4846613698677359 0.47522108268191376
          0.4846613698677362 0.4752210826819141 0.4846613698677362 0.4752210826819141 0.48466264585021235 0.47522045137335234
          0.4847101567612164 0.4751837427431358 0.4850693134650923 0.4752184564994949 0.46580513425315473 0.4357051818964428
          0.46378185433407493 0.3851183935245829 0.4637234125363747 0.38492503966076363 0.46372128939367996 0.384919810111341
          0.46372128939367996 0.384919810111341 0.4637212893936802 0.3849198101113411 0.4637212893936802 0.3849198101113411
          0.46372170281736713 0.38491981011134074 0.46375208246581434 0.3849194310213877 0.46403285327923804 0.3849002167162294
        </DataArray>
        <DataArray type="Float64" Name="sgtco" format="ascii" RangeMin="0.3849002167162294" RangeMax="0.48682193701468546">
          0.48672729949224536 0.48649002909279093 0.486695907194022 0.48603781574514193 0.486695907194022 0.4860140135025207
          0.4866959071940218 0.4860140135025205 0.4866959071940218 0.4860140135025205 0.4866959071940222 0.4860140135025208
          0.4866959071940222 0.4860140135025208 0.486697446690714 0.48601247178832885 0.48671949264649195 0.4860012396426979
          0.48682193701468546 0.486322562971393 0.48487837228000863 0.4814946417149395 0.4846720802747191 0.47550678573915084
          0.4846613698677359 0.47522760938292974 0.4846613698677359 0.47522108268191376 0.4846613698677359 0.47522108268191376
          0.4846613698677362 0.4752210826819141 0.4846613698677362 0.4752210826819141 0.48466264585021235 0.47522045137335234
          0.4847101567612164 0.4751837427431358 0.4850693134650923 0.4752184564994949 0.46580513425315473 0.4357051818964428
          0.46378185433407493 0.3851183935245829 0.4637234125363747 0.38492503966076363 0.46372128939367996 0.384919810111341
          0.46372128939367996 0.384919810111341 0.4637212893936802 0.3849198101113411 0.4637212893936802 0.3849198101113411
          0.46372170281736713 0.38491981011134074 0.46375208246581434 0.3849194310213877 0.46403285327923804 0.3849002167162294
        </DataArray>
        <DataArray type="Float64" Name="MOSGS" NumberOfComponents="3" format="ascii" RangeMin="0" RangeMax="0.4047307271417781">
          6.9228091818756e-310 4.6871019843784e-310 4.6871019843784e-310 -0.0008948357669922613 0.00027456292034500084 0
          -0.005308465242083859 0.0015415371408526112 0 -0.0008948357669922613 0.00027456292034500084 0
          -0.00294738701807231 0.0008731906600028745 0 -0.0008948357669922613 0.00027456292034500106 0
          -0.0029473870180723107 0.000873190660002875 0 -0.0008948357669922613 0.00027456292034500106 0
          -0.0029473870180722786 0.0008731906600028749 0 -0.0008948357669922613 0.00027456292034500084 0
          -0.0029473870180722786 0.0008731906600028747 0 -0.0008948357669922613 0.00027456292034500084 0
          -0.0029473870180723237 0.0008731906600028747 0 -0.0008948357669922613 0.00027456292034500084 0
          -0.002947387018072324 0.0008731906600028749 0 -0.0008948357669922613 0.00027456292034500117 0
          -0.0029473870180722994 0.0008731906600028753 0 -0.0010711363845762169 0.0003214244195857232 0
          -0.003812954973785681 0.0010558425270227644 0 -0.0006235756789819988 0.00018497068573393677 0
          -0.0007828951432457792 0.00022131696042819188 0 -0.017814647519905406 0.005208155108060763 0
          -0.04504680887527113 0.013061942706492958 0 -0.017057659395360445 0.00499733567184015 0
          -0.036932026882329196 0.01074145801331768 0 -0.017057659395360445 0.004997335671840112 0
          -0.03574076660766474 0.010395931721591358 0 -0.017057659395360473 0.004997335671840112 0
          -0.03574076660766471 0.010395931721591343 0 -0.017057659395360462 0.004997335671840111 0
          -0.03574076660766471 0.010395931721591341 0 -0.01705765939536046 0.004997335671840108 0
          -0.03574076660766472 0.010395931721591338 0 -0.01705765939536046 0.004997335671840112 0
          -0.035740766607664724 0.010395931721591345 0 -0.01705765939536039 0.004997335671840139 0
          -0.03574076660766469 0.010395931721591364 0 -0.018233959133896426 0.005248151627079965 0
          -0.03660162372352194 0.010577782350752098 0 -0.018673316105330563 0.005258791858829862 0
          -0.050774314806031486 0.01374736699351544 0 0.22862754388085424 -0.06896858306967725 0
          -0.33998505722943384 0.21958397562985105 0 0.2296922879798593 -0.0697247274693285 0
          0.21854434377773657 -0.08626216919125776 0 0.2302519872951289 -0.06991661717505755 0
          0.21691175699351672 -0.08572367239848326 0 0.23025198729512886 -0.06991661717505748 0
          0.21691175699351667 -0.08572367239848319 0 0.23025198729512886 -0.0699166171750575 0
          0.21691175699351667 -0.08572367239848319 0 0.23025198729512897 -0.06991661717505752 0
          0.21691175699351672 -0.0857236723984832 0 0.23025198729512897 -0.06991661717505752 0
          0.21691175699351672 -0.08572367239848322 0 0.23025198729512886 -0.06991661717505751 0
          0.21691175699351656 -0.08572367239848319 0 0.22924941746468652 -0.06970099864643631 0
          0.21691175699351672 -0.08572367239848322 0 0.21283503142335458 -0.06602253709685339 0
          0.21644540930615724 -0.0856056834109483 0
          <InformationKey name="L2_NORM_RANGE" location="vtkDataArray" length="2">
            <Value index="0">
              0
            </Value>
            <Value index="1">
              0.40473072714
            </Value>
          </InformationKey>
        </DataArray>
        <DataArray type="Float64" Name="CORES" format="ascii" RangeMin="-3.7873414634146334" RangeMax="2.1052349702283712">
          -0.01919119165407876 -0.0545974629239832 -0.018208796293058584 -0.03950180849903676 -0.018208796293058584 -0.03823764467734586
          -0.018208796293058584 -0.03823764467734582 -0.018208796293058584 -0.03823764467734581 -0.018208796293058584 -0.03823764467734583
          -0.018208796293058584 -0.03823764467734583 -0.01893209600638704 -0.03884070694100496 -0.018393087234219403 -0.04503591996223501
          -0.006819508397921741 0.008363514620530164 -0.21076977986427464 -0.7641034541573991 -0.2123024662997981 -0.5357606709062376
          -0.21189237112033588 -0.5183931170085306 -0.21189237112033588 -0.5179639724163778 -0.21189237112033588 -0.5179639724163778
          -0.21189237112033588 -0.5179639724163778 -0.21189237112033588 -0.5179639724163779 -0.21265536140851343 -0.5182648649145394
          -0.22392619965066052 -0.5390646384110709 -0.17399547479119776 -0.5948954938493962 1.6519679579518813 -3.7873414634146334
          1.7375370191432984 2.1052349702283712 1.7463363018486626 2.07670181864857 1.7465297930386148 2.0760444538491223
          1.7465297930386148 2.0760444538491223 1.7465297930386148 2.0760444538491223 1.7465297930386148 2.0760444538491223
          1.7461728812999695 2.0760444538491227 1.7221514118379508 2.075877672757186 1.656867978558214 2.064817429636005
        </DataArray>
        <DataArray type="Float64" Name="MORES" NumberOfComponents="3" format="ascii" RangeMin="0.017637825114199254" RangeMax="10.464034286801086">
          -0.05096923479836041 0.009217185773992602 0 -0.15504566142913076 0.04400942871348221 0
          -0.04705794970015316 0.009651896261848352 0 -0.10529560263022775 0.02892317101982283 0
          -0.04705794970015349 0.009651896261846322 0 -0.10130197405565278 0.02778172323949353 0
          -0.0470579497001523 0.009651896261846336 0 -0.10130197405565351 0.02778172323949353 0
          -0.0470579497001523 0.009651896261846316 0 -0.10130197405565348 0.02778172323949346 0
          -0.04705794970015349 0.009651896261848415 0 -0.10130197405565353 0.027781723239495574 0
          -0.04705794970015349 0.009651896261848428 0 -0.10130197405565353 0.027781723239495622 0
          -0.04941209762368616 0.009817733976736125 0 -0.10324158184505543 0.028187833294311328 0
          -0.0489839683698023 0.010852172554768988 0 -0.12379099302984942 0.03243112588308422 0
          -0.016535606276628537 0.006137312100863115 0 0.03602680696872093 -0.00949801746218984 0
          -0.5469584587588316 0.16843622844725298 0 -2.1612969972896954 0.640324965854114 0
          -0.5457856030948245 0.1691493529537889 0 -1.4321334423807914 0.42691706538106816 0
          -0.5441960647336244 0.16874694150196062 0 -1.3759634571459836 0.4124993387673632 0
          -0.544196064733622 0.16874694150196073 0 -1.3746438379605541 0.4121218843382258 0
          -0.544196064733622 0.16874694150196068 0 -1.3746438379605537 0.4121218843382255 0
          -0.5441960647336244 0.16874694150196057 0 -1.3746438379605528 0.41212188433822516 0
          -0.5441960647336244 0.16874694150196073 0 -1.3746438379605532 0.4121218843382255 0
          -0.5466291732684863 0.1692557978707826 0 -1.3756146937589282 0.4123371761932814 0
          -0.5840000190297918 0.17721326429285822 0 -1.442888517260754 0.42589910800236985 0
          -0.44553157933666876 0.1425504532813383 0 -1.6315488300051209 0.458941812756522 0
          4.445199469310751 -1.1259919095687903 0 -8.725482841436236 5.775981539024389 0
          4.719660385182692 -1.2732539590108252 0 5.3915756597729825 -1.9840277611614745 0
          4.748896342028914 -1.2842103018740232 0 5.308858169146472 -1.9605660316399167 0
          4.749487611844308 -1.2844739117732824 0 5.307030672876904 -1.9600373953786845 0
          4.749487611844308 -1.2844739117732829 0 5.307030672876904 -1.9600373953786845 0
          4.749487611844307 -1.2844739117732829 0 5.307030672876905 -1.9600373953786843 0
          4.749487611844307 -1.2844739117732824 0 5.307030672876905 -1.9600373953786843 0
          4.7483556972036896 -1.2842373751884097 0 5.307030672876905 -1.9600373953786852 0
          4.671887031797717 -1.269410706899066 0 5.306510455559623 -1.959924941735044 0
          4.456936656302506 -1.239465221225958 0 5.271818337699196 -1.9528347033036375 0
          <InformationKey name="L2_NORM_RANGE" location="vtkDataArray" length="2">
            <Value index="0">
              0.017637825114
            </Value>
            <Value index="1">
              10.464034287
            </Value>
          </InformationKey>
        </DataArray>
        <DataArray type="Float64" Name="ENRES" format="ascii" RangeMin="-15.755660713786629" RangeMax="9.848989844444873">
          -0.10379384546228025 -0.30674761015269353 -0.09528324011653458 -0.2077145734333914 -0.09528324011653545 -0.19970313248475957
          -0.09528324011653684 -0.19970313248475371 -0.09528324011653684 -0.1997031324847537 -0.09528324011653545 -0.19970313248476046
          -0.09528324011653545 -0.19970313248476046 -0.09967489227831489 -0.2032599447912271 -0.09781370012612378 -0.24043893650168985
          -0.028214678044863252 0.08046922017498892 -1.1049726676192333 -4.258038789532519 -1.0993392336155061 -2.7983288377171016
          -1.0956968123169961 -2.6858216342961656 -1.0956968123169954 -2.6832433299572425 -1.0956968123169954 -2.683243329957242
          -1.095696812316993 -2.6832433299572376 -1.095696812316993 -2.6832433299572385 -1.1001529116230737 -2.685047974370039
          -1.1683209040546423 -2.809960024419405 -0.87174320709725 -3.108673135656954 7.798599505066461 -15.755660713786629
          8.476137584158513 9.848989844444873 8.541780194465463 9.690550591701083 8.543057392636307 9.687168886294463
          8.543057392636307 9.687168886294463 8.543057392636307 9.687168886294469 8.543057392636307 9.687168886294469
          8.540964315545656 9.687168886294472 8.399594715640305 9.686214794662954 8.052089410051703 9.62256963601843
        </DataArray>
      </CellData>
      <Points>
        <DataArray type="Float32" Name="Points" NumberOfComponents="3" format="ascii" RangeMin="0" RangeMax="4.2201894765504395">
          4.099999904632568 1 0 4.099999904632568 0.6666666865348816 0
          3.690000057220459 1 0 3.690000057220459 0.6666666865348816 0
          4.099999904632568 0.3333333134651184 0 3.690000057220459 0.3333333134651184 0
          3.2799999713897705 1 0 3.2799999713897705 0.6666666865348816 0
          4.099999904632568 0 0 3.2799999713897705 0.3333333134651184 0
          3.690000057220459 0 0 2.869999885559082 1 0
          2.869999885559082 0.6666666865348816 0 3.2799999713897705 0 0
          2.869999885559082 0.3333333134651184 0 2.869999885559082 0 0
          2.4600000381469727 1 0 2.4600000381469727 0.6666666865348816 0
          2.4600000381469727 0.3333333134651184 0 2.4600000381469727 0 0
          2.049999952316284 1 0 2.049999952316284 0.6666666865348816 0
          2.049999952316284 0.3333333134651184 0 2.049999952316284 0 0
          1.6399999856948853 1 0 1.6399999856948853 0.6666666865348816 0
          1.6399999856948853 0.3333333134651184 0 1.6399999856948853 0 0
          1.2300000190734863 1 0 1.2300000190734863 0.6666666865348816 0
          1.2300000190734863 0.3333333134651184 0 1.2300000190734863 0 0
          0.8199999928474426 1 0 0.8199999928474426 0.6666666865348816 0
          0.8199999928474426 0.3333333134651184 0 0.8199999928474426 0 0
          0.4099999964237213 1 0 0.4099999964237213 0.6666666865348816 0
          0.4099999964237213 0.3333333134651184 0 0.4099999964237213 0 0
          0 1 0 0 0.6666666865348816 0
          0 0.3333333134651184 0 0 0 0
          <InformationKey name="L2_NORM_RANGE" location="vtkDataArray" length="2">
            <Value index="0">
              0
            </Value>
            <Value index="1">
              4.2201894766
            </Value>
          </InformationKey>
        </DataArray>
      </Points>
      <Cells>
        <DataArray type="Int64" Name="connectivity" format="ascii" RangeMin="0" RangeMax="43">
          39 38 43 38 42 43
          35 34 39 34 38 39
          31 30 35 30 34 35
          27 26 31 26 30 31
          23 22 27 22 26 27
          19 18 23 18 22 23
          15 14 19 14 18 19
          13 9 15 9 14 15
          10 5 13 5 9 13
          8 4 10 4 5 10
          38 37 42 37 41 42
          34 33 38 33 37 38
          30 29 34 29 33 34
          26 25 30 25 29 30
          22 21 26 21 25 26
          18 17 22 17 21 22
          14 12 18 12 17 18
          9 7 14 7 12 14
          5 3 9 3 7 9
          4 1 5 1 3 5
          37 36 41 36 40 41
          33 32 37 32 36 37
          29 28 33 28 32 33
          25 24 29 24 28 29
          21 20 25 20 24 25
          17 16 21 16 20 21
          12 11 17 11 16 17
          7 6 12 6 11 12
          3 2 7 2 6 7
          1 0 3 0 2 3
        </DataArray>
        <DataArray type="Int64" Name="offsets" format="ascii" RangeMin="3" RangeMax="180">
          3 6 9 12 15 18
          21 24 27 30 33 36
          39 42 45 48 51 54
          57 60 63 66 69 72
          75 78 81 84 87 90
          93 96 99 102 105 108
          111 114 117 120 123 126
          129 132 135 138 141 144
          147 150 153 156 159 162
          165 168 171 174 177 180
        </DataArray>
        <DataArray type="UInt8" Name="types" format="ascii" RangeMin="5" RangeMax="5">
          5 5 5 5 5 5
          5 5 5 5 5 5
          5 5 5 5 5 5
          5 5 5 5 5 5
          5 5 5 5 5 5
          5 5 5 5 5 5
          5 5 5 5 5 5
          5 5 5 5 5 5
          5 5 5 5 5 5
          5 5 5 5 5 5
        </DataArray>
      </Cells>
    </Piece>
  </UnstructuredGrid>
</VTKFile>
