<?xml version="1.0"?>
<VTKFile type="UnstructuredGrid" version="0.1" byte_order="LittleEndian" header_type="UInt32" compressor="vtkZLibDataCompressor">
  <UnstructuredGrid>
    <Piece NumberOfPoints="44" NumberOfCells="60">
      <PointData>
        <DataArray type="Float64" Name="Density" format="ascii" RangeMin="1" RangeMax="1.7">
          1.7 1.2029356940307472 1.7 1.2043663005360772 1.006922712740572 1.0156251842493074
          1.7 1.2013223105813466 1.0011926622163059 1.0164345477935728 1.0024111632858017 1.7
          1.2011304474092586 1.0017301156314846 1.0166594032865615 1.0018815185539025 1.7 1.2011071486794764
          1.016670441133103 1.001940252855809 1.7 1.201106114163818 1.0166692712824337 1.0019417181250947
          1.7 1.2011008094837698 1.0166688984744674 1.0019416781845158 1.7 1.2009384869424837
          1.0166499812919274 1.0019403019702813 1.7 1.1981255559307418 1.01629551893076 1.0019030783560416
          1.7 1.1708803965278713 1.0126750753589788 1.0014992267453864 1 1
          1 1
        </DataArray>
        <DataArray type="Float64" Name="Momentum" NumberOfComponents="3" format="ascii" RangeMin="2.9" RangeMax="4.535233026008696">
          4.4528099999999995 -0.86071 0 3.4542563975473173 -0.16715403940622411 0
          4.4528099999999995 -0.86071 0 3.4535067394473282 -0.16897972149128931 0
          2.91942367266888 -0.004649252734327153 0 2.9427993333973816 -0.012573125023677207 0
          4.4528099999999995 -0.86071 0 3.44370072511785 -0.16680991657518432 0
          2.9035949644904795 -0.0006898962735222673 0 2.9451569569928586 -0.013063354393978365 0
          2.907037636274169 0 0 4.4528099999999995 -0.86071 0
          3.44307262738698 -0.1666937831347804 0 2.9048446891738706 0 0
          2.9458788211750564 -0.01319238458170629 0 2.905354419073492 0 0
          4.4528099999999995 -0.86071 0 3.4429954316304077 -0.16667965439549412 0
          2.945911140127197 -0.013200323684011141 0 2.9055433382122082 0 0
          4.4528099999999995 -0.86071 0 3.442992018312289 -0.16667896562659215 0
          2.945907104307264 -0.013199761348524611 0 2.905547578989481 0 0
          4.4528099999999995 -0.86071 0 3.442975275870816 -0.1666742725007238 0
          2.9459059449010945 -0.0131994460056248 0 2.9055474357048126 0 0
          4.4528099999999995 -0.86071 0 3.4424655370744417 -0.1665334241900358 0
          2.9458455044573375 -0.01318531053666731 0 2.905543137358747 0 0
          4.4528099999999995 -0.86071 0 3.4338090599326008 -0.1640359549323377 0
          2.9447437410948853 -0.012905519041866648 0 2.9054234597751876 0 0
          4.4528099999999995 -0.86071 0 3.353877782753254 -0.13944938529608294 0
          2.933963664996103 -0.009917305252259421 0 2.9042064343383247 0 0
          2.9 0 0 2.9 0 0
          2.9 0 0 2.9 0 0
          <InformationKey name="L2_NORM_RANGE" location="vtkDataArray" length="2">
            <Value index="0">
              2.9
            </Value>
            <Value index="1">
              4.535233026
            </Value>
          </InformationKey>
        </DataArray>
        <DataArray type="Float64" Name="Energy" format="ascii" RangeMin="4.923" RangeMax="7.585636452999999">
          7.585636452999999 5.96547241034923 7.585636452999999 5.974937864663409 4.956055751062022 5.001701123181307
          7.585636452999999 5.957716979538058 4.929706250369249 5.006609062832892 4.935731405810612 7.585636452999999
          5.9566748934548 4.931525803104149 5.008107576402777 4.932512268793796 7.585636452999999 5.956534838345003
          5.008178432509401 4.93287818006164 7.585636452999999 5.956528476964512 5.0081711043642905 4.932886501298164
          7.585636452999999 5.956495693715795 5.008168800198573 4.9328862355712895 7.585636452999999 5.955484904577346
          5.008046854809877 4.932877607411952 7.585636452999999 5.938239499591408 5.005846023388538 4.93263838933186
          7.585636452999999 5.780203759436285 4.984641506798367 4.930292060580961 4.923 4.923
          4.923 4.923
        </DataArray>
      </PointData>
      <CellData>
        <DataArray type="UInt8" Name="vtkGhostType" format="ascii" RangeMin="0" RangeMax="0">
          0 0 0 0 0 0
          0 0 0 0 0 0
          0 0 0 0 0 0
          0 0 0 0 0 0
          0 0 0 0 0 0
          0 0 0 0 0 0
          0 0 0 0 0 0
          0 0 0 0 0 0
          0 0 0 0 0 0
          0 0 0 0 0 0
        </DataArray>
        <DataArray type="Float64" Name="sgvis" format="ascii" RangeMin="0.3785619852216291" RangeMax="0.48682419092813667">
          0.4865519958229413 0.48589492298248904 0.48650401772599194 0.4846508127983692 0.486503019406332 0.4844020547832567
          0.48650347085865275 0.4843833302108177 0.486503474106146 0.48438250244452996 0.48650354814616636 0.48438249573320313
          0.4865030941708425 0.48438333688261404 0.48649750266168534 0.48439094118418313 0.48652007485902626 0.4844434121214739
          0.48682419092813667 0.48531506569937266 0.48223632142132433 0.4745473782320181 0.48178317344221344 0.4603432378140241
          0.48176853844876366 0.45882921161219914 0.48177050783922915 0.45871496904833 0.48177069538684547 0.458709659121473
          0.48177077152883385 0.45870950164991464 0.4817718038735598 0.4587096316552314 0.48177793193893415 0.45871237838142087
          0.4818751517348545 0.45870978871837687 0.4826852829094498 0.45932463221595143 0.46323432500118145 0.4357051818964428
          0.45853565125249307 0.37955524467853174 0.4584243025152279 0.3786314787425674 0.4584395441971405 0.3785650648289979
          0.4584411569256861 0.37856207541837233 0.458441246606607 0.3785619852216291 0.4584419524342558 0.3785619895051965
          0.4584491642139469 0.378562206608285 0.4585339715764737 0.37856476262096145 0.45912195995567084 0.3785703799600343
        </DataArray>
        <DataArray type="Float64" Name="sgtco" format="ascii" RangeMin="0.3785619852216291" RangeMax="0.48682419092813667">
          0.4865519958229413 0.48589492298248904 0.48650401772599194 0.4846508127983692 0.486503019406332 0.4844020547832567
          0.48650347085865275 0.4843833302108177 0.486503474106146 0.48438250244452996 0.48650354814616636 0.48438249573320313
          0.4865030941708425 0.48438333688261404 0.48649750266168534 0.48439094118418313 0.48652007485902626 0.4844434121214739
          0.48682419092813667 0.48531506569937266 0.48223632142132433 0.4745473782320181 0.48178317344221344 0.4603432378140241
          0.48176853844876366 0.45882921161219914 0.48177050783922915 0.45871496904833 0.48177069538684547 0.458709659121473
          0.48177077152883385 0.45870950164991464 0.4817718038735598 0.4587096316552314 0.48177793193893415 0.45871237838142087
          0.4818751517348545 0.45870978871837687 0.4826852829094498 0.45932463221595143 0.46323432500118145 0.4357051818964428
          0.45853565125249307 0.37955524467853174 0.4584243025152279 0.3786314787425674 0.4584395441971405 0.3785650648289979
          0.4584411569256861 0.37856207541837233 0.458441246606607 0.3785619852216291 0.4584419524342558 0.3785619895051965
          0.4584491642139469 0.378562206608285 0.4585339715764737 0.37856476262096145 0.45912195995567084 0.3785703799600343
        </DataArray>
        <DataArray type="Float64" Name="MOSGS" NumberOfComponents="3" format="ascii" RangeMin="0" RangeMax="0.5220826362606992">
          6.9228091818748e-310 6.9228091818748e-310 4.68710202593764e-310 -0.00026578391706713405 -0.000007298961273103011 0
          -0.010161518074165866 0.0030124502275225965 0 -0.00022037137229249633 0.0001978233176950202 0
          -0.004695299666324168 0.0014982442913517757 0 -0.0002574284725724858 0.00021471881638843637 0
          -0.0037775899319802972 0.0012615965031449326 0 -0.000251099931343809 0.00021524707087119428 0
          -0.003685322445230202 0.0012429348183853094 0 -0.00025109950439739805 0.00021524762101986174 0
          -0.003680776129856781 0.001241939212410022 0 -0.0002515159014017307 0.00021526657734020232 0
          -0.003681491421041218 0.0012420461052386697 0 -0.00020984270079771545 0.0002140656640006215 0
          -0.003686855041161923 0.0012422387394067256 0 0.00016048708254047224 0.00019378903867145513 0
          -0.003424308262059041 0.0011940750629283866 0 -0.000023585398894087695 0.00012287366092706358 0
          -0.0029609553507059802 0.0011735654158681718 0 -0.0013748341081230994 0.0005625229413526896 0
          0.003016438226869688 -0.0009658174409995304 0 -0.022546119053744724 0.007538232430063247 0
          -0.15392399625632677 0.04687492524430236 0 -0.024084569148517053 0.008023458524048779 0
          -0.08615182157828362 0.026061161293879212 0 -0.024201431274330616 0.008074454212569283 0
          -0.07841438074025561 0.023992043510600188 0 -0.02416902786491726 0.00807236944890146 0
          -0.07772038084364834 0.023820699217416925 0 -0.024166690623459657 0.00807191676226501 0
          -0.0776786054965224 0.02381133392100339 0 -0.02416755710058771 0.008072053956245821 0
          -0.07767791267088268 0.023811151536680456 0 -0.024177515889620964 0.00807294218268165 0
          -0.07769599550755665 0.023814306540822217 0 -0.023965375034510746 0.008027946754290844 0
          -0.07792099497050399 0.02385252851641959 0 -0.023660629681914392 0.008020857576116272 0
          -0.08067933606777039 0.02440345715991065 0 -0.017168404247741964 0.006246860032039878 0
          -0.09111530020022175 0.026398829673555554 0 0.17362932410604237 -0.052676766528102076 0
          -0.4385737371230125 0.2832372789568425 0 0.19954605929962416 -0.06264831984274558 0
          0.22993163969563638 -0.09254548653267385 0 0.20305922286960193 -0.06373580293833575 0
          0.21675363437035772 -0.08818842174843573 0 0.20338966447700085 -0.06382673110537256 0
          0.21540698997596577 -0.08776801904958713 0 0.2034129041836386 -0.06383247211738713 0
          0.21534363553392555 -0.08774883447024452 0 0.2034130458213374 -0.0638325473355873 0
          0.2153423666174961 -0.0877484476948258 0 0.20339263059140059 -0.06382869678319582 0
          0.2153421909920661 -0.08774840426528903 0 0.20313150357611748 -0.06378294029981572 0
          0.2153331465049117 -0.08774640118944735 0 0.1995415599267782 -0.06305981775829077 0
          0.21521783363791108 -0.08772433080937043 0 0.1848762127005371 -0.060523772863552615 0
          0.21404545615077958 -0.08744776739838074 0
          <InformationKey name="L2_NORM_RANGE" location="vtkDataArray" length="2">
            <Value index="0">
              0
            </Value>
            <Value index="1">
              0.52208263626
            </Value>
          </InformationKey>
        </DataArray>
        <DataArray type="Float64" Name="CORES" format="ascii" RangeMin="-3.7873414634146334" RangeMax="1.7019017101634497">
          -0.019022760429121092 -0.11798976541633778 -0.02306735844494899 -0.08531649236691499 -0.023152567634981483 -0.071287657850228
          -0.023089102168024032 -0.06976708766876308 -0.023086119675480868 -0.06967364000333717 -0.023072583400328764 -0.0696868733348821
          -0.02232350583412368 -0.06954521554287306 -0.01951201072518305 -0.06633063477658392 -0.0244714032296577 -0.05466979659617056
          -0.016452586562943874 0.01702577637849806 -0.1912739533306061 -1.5688993326515162 -0.22521819388586495 -0.8702946054921473
          -0.22398301945030685 -0.7641017559417473 -0.22348795213704453 -0.7522279889182506 -0.22344155993968673 -0.7514898232059701
          -0.223459861995279 -0.7514745620337309 -0.22336578321809664 -0.7517695809811533 -0.22041519624784378 -0.7538599783363368
          -0.207489399434861 -0.7812190646694877 -0.08430233827556988 -0.7234230990603883 0.5948827278384412 -3.7873414634146334
          0.8662831344096058 1.7019017101634497 0.9152974220992793 1.523117819319883 0.9217001043602869 1.5033153058671573
          0.9221296818473812 1.5021579995330252 0.9221314309009274 1.5021199082460255 0.9217989418206609 1.502113159150599
          0.9192439772159138 1.501965310025808 0.8833992315354634 1.5008594716756982 0.9327841275992791 1.4881573264249341
        </DataArray>
        <DataArray type="Float64" Name="MORES" NumberOfComponents="3" format="ascii" RangeMin="0.048103246820455255" RangeMax="10.464034286801086">
          -0.04721777710240499 0.009187158438670663 0 -0.33030972903279093 0.09780091417545532 0
          -0.061118010096969266 0.015926656118648498 0 -0.23934451204917875 0.0703367943812959 0
          -0.06125484176369195 0.016635326697895046 0 -0.19464685932099282 0.05912626391848505 0
          -0.06102320334698555 0.01666899057463389 0 -0.189702749181082 0.05801384142660433 0
          -0.061012524383559835 0.016669802220133034 0 -0.1893943794539012 0.057950949492507016 0
          -0.060974010487155395 0.016668995466482962 0 -0.18944016318187562 0.05795604959098462 0
          -0.058522331343382805 0.016582583602730475 0 -0.1890003192283976 0.057859334534784305 0
          -0.04908339311762533 0.01609561686333278 0 -0.17840256537599627 0.056175658628973356 0
          -0.06578434881918035 0.014873173374852298 0 -0.1421827435438342 0.04924009402603497 0
          -0.04818343223139452 0.017922920947994317 0 0.058062465890029766 -0.024466784118769288 0
          -0.4257320921447738 0.15716558932315855 0 -4.3829701803013075 1.35953447050958 0
          -0.5344845070101338 0.1903665987441856 0 -2.330943517538433 0.7114919621717004 0
          -0.5291988991079695 0.19008382768405863 0 -1.9954703819141115 0.6188166238909842 0
          -0.5273630221682999 0.1898185225061073 0 -1.9571649802630473 0.6093604776326236 0
          -0.5271963611297883 0.18979446718410392 0 -1.9547705362551737 0.6088075159300059 0
          -0.5272584977815542 0.189802704279317 0 -1.9547225296564568 0.6087948257629586 0
          -0.5269985298445838 0.18972155772471216 0 -1.9557020176435032 0.6089585135370947 0
          -0.5175356395657618 0.18801660653251262 0 -1.9625289295841117 0.6100878031329522 0
          -0.48010576619236023 0.18082861796151795 0 -2.051610514657263 0.6281274535008037 0
          -0.139078797286448 0.08701013660902451 0 -1.903640344603591 0.5744518644348056 0
          1.478608059647174 -0.2560531939494527 0 -8.725482841436236 5.775981539024389 0
          2.2186854071139157 -0.6280054961347922 0 4.290858251089261 -1.6382303783579044 0
          2.380626473860875 -0.6871149148848952 0 3.76702792347589 -1.4768812062621466 0
          2.4023722027274705 -0.693681511347537 0 3.7069293008460624 -1.4593306145495306 0
          2.403836498491192 -0.6940856256799035 0 3.703370273419013 -1.4583307648964454 0
          2.4038436513466337 -0.6940919136334773 0 3.7032527672612376 -1.4582981833302757 0
          2.402758746536961 -0.6939047976095496 0 3.7032310017207326 -1.458293630910045 0
          2.394580995169398 -0.6925958038859932 0 3.702750840597873 -1.458203786207545 0
          2.2805865778317647 -0.6702887597095128 0 3.699190633492597 -1.4576592083190187 0
          2.401906999288975 -0.737028249255627 0 3.6593589993398195 -1.4497434343827527 0
          <InformationKey name="L2_NORM_RANGE" location="vtkDataArray" length="2">
            <Value index="0">
              0.04810324682
            </Value>
            <Value index="1">
              10.464034287
            </Value>
          </InformationKey>
        </DataArray>
        <DataArray type="Float64" Name="ENRES" format="ascii" RangeMin="-15.755660713786629" RangeMax="7.845528960921263">
          -0.07679216839192188 -0.6108125458076771 -0.10961295182583936 -0.44356821972208493 -0.11019839817981208 -0.3559655466837175
          -0.1097385284754086 -0.34624178047067233 -0.10971597113332587 -0.34563073275112294 -0.10963652442769298 -0.3457133731347878
          -0.10480014593013401 -0.3447454710683418 -0.08605067100055885 -0.32291581777249 -0.11751955884593931 -0.2490171066350189
          -0.0797252527402461 0.15362714844921338 -0.835172993897416 -8.526984668801926 -1.0722456217352585 -4.490314637374269
          -1.0602868208992726 -3.8136473254784926 -1.0563229681388049 -3.7366262118905547 -1.055968446400119 -3.7318429330975014
          -1.0560811682366391 -3.731743886177508 -1.0554411997713848 -3.7335332178084366 -1.0353606712309746 -3.7447400715332684
          -0.9563760254788445 -3.8999866197667576 -0.2708426199611389 -3.5023995204232694 2.2165214835359146 -15.755660713786629
          3.866798856476062 7.845528960921263 4.225374816557472 6.824359998648326 4.272174086425066 6.7061342172564675
          4.2752673363691285 6.6991603225569145 4.275291013898631 6.69893242817278 4.273303886978949 6.698891745419009
          4.259553497813492 6.698014437207439 4.0574726800195196 6.692039955801579 4.40537738085954 6.622587183124681
        </DataArray>
      </CellData>
      <Points>
        <DataArray type="Float32" Name="Points" NumberOfComponents="3" format="ascii" RangeMin="0" RangeMax="4.2201894765504395">
          4.099999904632568 1 0 4.099999904632568 0.6666666865348816 0
          3.690000057220459 1 0 3.690000057220459 0.6666666865348816 0
          4.099999904632568 0.3333333134651184 0 3.690000057220459 0.3333333134651184 0
          3.2799999713897705 1 0 3.2799999713897705 0.6666666865348816 0
          4.099999904632568 0 0 3.2799999713897705 0.3333333134651184 0
          3.690000057220459 0 0 2.869999885559082 1 0
          2.869999885559082 0.6666666865348816 0 3.2799999713897705 0 0
          2.869999885559082 0.3333333134651184 0 2.869999885559082 0 0
          2.4600000381469727 1 0 2.4600000381469727 0.6666666865348816 0
          2.4600000381469727 0.3333333134651184 0 2.4600000381469727 0 0
          2.049999952316284 1 0 2.049999952316284 0.6666666865348816 0
          2.049999952316284 0.3333333134651184 0 2.049999952316284 0 0
          1.6399999856948853 1 0 1.6399999856948853 0.6666666865348816 0
          1.6399999856948853 0.3333333134651184 0 1.6399999856948853 0 0
          1.2300000190734863 1 0 1.2300000190734863 0.6666666865348816 0
          1.2300000190734863 0.3333333134651184 0 1.2300000190734863 0 0
          0.8199999928474426 1 0 0.8199999928474426 0.6666666865348816 0
          0.8199999928474426 0.3333333134651184 0 0.8199999928474426 0 0
          0.4099999964237213 1 0 0.4099999964237213 0.6666666865348816 0
          0.4099999964237213 0.3333333134651184 0 0.4099999964237213 0 0
          0 1 0 0 0.6666666865348816 0
          0 0.3333333134651184 0 0 0 0
          <InformationKey name="L2_NORM_RANGE" location="vtkDataArray" length="2">
            <Value index="0">
              0
            </Value>
            <Value index="1">
              4.2201894766
            </Value>
          </InformationKey>
        </DataArray>
      </Points>
      <Cells>
        <DataArray type="Int64" Name="connectivity" format="ascii" RangeMin="0" RangeMax="43">
          39 38 43 38 42 43
          35 34 39 34 38 39
          31 30 35 30 34 35
          27 26 31 26 30 31
          23 22 27 22 26 27
          19 18 23 18 22 23
          15 14 19 14 18 19
          13 9 15 9 14 15
          10 5 13 5 9 13
          8 4 10 4 5 10
          38 37 42 37 41 42
          34 33 38 33 37 38
          30 29 34 29 33 34
          26 25 30 25 29 30
          22 21 26 21 25 26
          18 17 22 17 21 22
          14 12 18 12 17 18
          9 7 14 7 12 14
          5 3 9 3 7 9
          4 1 5 1 3 5
          37 36 41 36 40 41
          33 32 37 32 36 37
          29 28 33 28 32 33
          25 24 29 24 28 29
          21 20 25 20 24 25
          17 16 21 16 20 21
          12 11 17 11 16 17
          7 6 12 6 11 12
          3 2 7 2 6 7
          1 0 3 0 2 3
        </DataArray>
        <DataArray type="Int64" Name="offsets" format="ascii" RangeMin="3" RangeMax="180">
          3 6 9 12 15 18
          21 24 27 30 33 36
          39 42 45 48 51 54
          57 60 63 66 69 72
          75 78 81 84 87 90
          93 96 99 102 105 108
          111 114 117 120 123 126
          129 132 135 138 141 144
          147 150 153 156 159 162
          165 168 171 174 177 180
        </DataArray>
        <DataArray type="UInt8" Name="types" format="ascii" RangeMin="5" RangeMax="5">
          5 5 5 5 5 5
          5 5 5 5 5 5
          5 5 5 5 5 5
          5 5 5 5 5 5
          5 5 5 5 5 5
          5 5 5 5 5 5
          5 5 5 5 5 5
          5 5 5 5 5 5
          5 5 5 5 5 5
          5 5 5 5 5 5
        </DataArray>
      </Cells>
    </Piece>
  </UnstructuredGrid>
</VTKFile>
