<?xml version="1.0"?>
<VTKFile type="UnstructuredGrid" version="0.1" byte_order="LittleEndian" header_type="UInt32" compressor="vtkZLibDataCompressor">
  <UnstructuredGrid>
    <Piece NumberOfPoints="27" NumberOfCells="32">
      <PointData>
        <DataArray type="Float64" Name="Velocity" NumberOfComponents="3" format="ascii" RangeMin="2.6677841329462924" RangeMax="2.9218207694831126">
          2.9 0 0 2.9 0 0
          2.6193 -0.5063 0 2.7959178351855827 -0.23342359441268948 0
          2.9 0 0 2.6193 -0.5063 0
          2.9086831731771636 0 0 2.7944267226885495 -0.3476780171838445 0
          2.911981651233854 0 0 2.6193 -0.5063 0
          2.8116386126300803 -0.38682319685170913 0 2.9172726484552083 0 0
          2.6193 -0.5063 0 2.8222556291262815 -0.3964459264194399 0
          2.9192108033275557 0 0 2.6193 -0.5063 0
          2.8262196944044673 -0.3984677848912624 0 2.9196751228861766 0 0
          2.6193 -0.5063 0 2.8267119834222165 -0.39886887611515387 0
          2.920432963077379 0 0 2.6193 -0.5063 0
          2.8283655991982455 -0.40040277635629967 0 2.9218207694831126 0 0
          2.6193 -0.5063 0 2.8290714646733828 -0.38934804574752446 0
          2.8538651790891847 0.02126112792415313 0
          <InformationKey name="L2_NORM_RANGE" location="vtkDataArray" length="2">
            <Value index="0">
              2.6677841329
            </Value>
            <Value index="1">
              2.9218207695
            </Value>
          </InformationKey>
        </DataArray>
        <DataArray type="Float64" Name="Pressure" format="ascii" RangeMin="0.72124" RangeMax="1.5457895999999995">
          0.72124 0.72124 1.5457895999999995 0.9952891843967334 0.72124 1.5457895999999995
          0.7480137296109186 1.1137297654037335 0.8080492723057211 1.5457895999999995 1.1637980541123298 0.8367840175588604
          1.5457895999999995 1.1829022817200068 0.8446363381173463 1.5457895999999995 1.1891209455698704 0.8463606636859424
          1.5457895999999995 1.1901178715370568 0.8459947648128981 1.5457895999999995 1.1959083004178017 0.8666451207429934
          1.5457895999999995 1.1604845424831445 0.7285907124666191
        </DataArray>
        <DataArray type="Float64" Name="Temperature" format="ascii" RangeMin="0.0024086277699884476" RangeMax="0.003114">
          0.00247 0.00247 0.003114 0.0028008954639341097 0.00247 0.003114
          0.002468863201601737 0.002896145928190981 0.0025225024508721905 0.003114 0.0029295700052563134 0.002548022561423762
          0.003114 0.002941970479375426 0.0025548214804819607 0.003114 0.0029459929679448273 0.0025564483354714018
          0.003114 0.0029464295739135395 0.00255719200820098 0.003114 0.00294936511006255 0.0025831174187314733
          0.003114 0.0029219922486247276 0.0024086277699884476
        </DataArray>
      </PointData>
      <CellData>
        <DataArray type="UInt8" Name="vtkGhostType" format="ascii" RangeMin="0" RangeMax="0">
          0 0 0 0 0 0
          0 0 0 0 0 0
          0 0 0 0 0 0
          0 0 0 0 0 0
          0 0 0 0 0 0
          0 0
        </DataArray>
      </CellData>
      <Points>
        <DataArray type="Float32" Name="Points" NumberOfComponents="3" format="ascii" RangeMin="0" RangeMax="4.2201894765504395">
          0 1 0 0 0.5 0
          0.512499988079071 1 0 0.512499988079071 0.5 0
          0 0 0 1.024999976158142 1 0
          0.512499988079071 0 0 1.024999976158142 0.5 0
          1.024999976158142 0 0 1.537500023841858 1 0
          1.537500023841858 0.5 0 1.537500023841858 0 0
          2.049999952316284 1 0 2.049999952316284 0.5 0
          2.049999952316284 0 0 2.5625 1 0
          2.5625 0.5 0 2.5625 0 0
          3.075000047683716 1 0 3.075000047683716 0.5 0
          3.075000047683716 0 0 3.5875000953674316 1 0
          3.5875000953674316 0.5 0 3.5875000953674316 0 0
          4.099999904632568 1 0 4.099999904632568 0.5 0
          4.099999904632568 0 0
          <InformationKey name="L2_NORM_RANGE" location="vtkDataArray" length="2">
            <Value index="0">
              0
            </Value>
            <Value index="1">
              4.2201894766
            </Value>
          </InformationKey>
        </DataArray>
      </Points>
      <Cells>
        <DataArray type="Int64" Name="connectivity" format="ascii" RangeMin="0" RangeMax="26">
          6 3 4 3 1 4
          8 7 6 7 3 6
          11 10 8 10 7 8
          14 13 11 13 10 11
          17 16 14 16 13 14
          20 19 17 19 16 17
          23 22 20 22 19 20
          26 25 23 25 22 23
          3 2 1 2 0 1
          7 5 3 5 2 3
          10 9 7 9 5 7
          13 12 10 12 9 10
          16 15 13 15 12 13
          19 18 16 18 15 16
          22 21 19 21 18 19
          25 24 22 24 21 22
        </DataArray>
        <DataArray type="Int64" Name="offsets" format="ascii" RangeMin="3" RangeMax="96">
          3 6 9 12 15 18
          21 24 27 30 33 36
          39 42 45 48 51 54
          57 60 63 66 69 72
          75 78 81 84 87 90
          93 96
        </DataArray>
        <DataArray type="UInt8" Name="types" format="ascii" RangeMin="5" RangeMax="5">
          5 5 5 5 5 5
          5 5 5 5 5 5
          5 5 5 5 5 5
          5 5 5 5 5 5
          5 5 5 5 5 5
          5 5
        </DataArray>
      </Cells>
    </Piece>
  </UnstructuredGrid>
</VTKFile>
