<?xml version="1.0"?>
<VTKFile type="UnstructuredGrid" version="0.1" byte_order="LittleEndian" header_type="UInt32" compressor="vtkZLibDataCompressor">
  <UnstructuredGrid>
    <Piece NumberOfPoints="27" NumberOfCells="28">
      <PointData>
        <DataArray type="Float64" Name="nsi_BC" NumberOfComponents="3" format="ascii" RangeMin="0" RangeMax="0">
          0 0 0 0 0 0
          0 0 0 0 0 0
          0 0 0 0 0 0
          0 0 0 0 0 0
          0 0 0 0 0 0
          0 0 0 0 0 0
          0 0 0 0 0 0
          0 0 0 0 0 0
          0 0 0 0 0 0
          0 0 0 0 0 0
          0 0 0 0 0 0
          0 0 0 0 0 0
          0 0 0 0 0 0
          0 0 0
          <InformationKey name="L2_NORM_RANGE" location="vtkDataArray" length="2">
            <Value index="0">
              0
            </Value>
            <Value index="1">
              0
            </Value>
          </InformationKey>
        </DataArray>
        <DataArray type="Float64" Name="nsi_FIXNO" NumberOfComponents="3" format="ascii" RangeMin="1.4142135623730951" RangeMax="1.4142135623730951">
          -1 -1 0 -1 -1 0
          -1 -1 0 -1 -1 0
          -1 -1 0 -1 -1 0
          -1 -1 0 -1 -1 0
          -1 -1 0 -1 -1 0
          -1 -1 0 -1 -1 0
          -1 -1 0 -1 -1 0
          -1 -1 0 -1 -1 0
          -1 -1 0 -1 -1 0
          -1 -1 0 -1 -1 0
          -1 -1 0 -1 -1 0
          -1 -1 0 -1 -1 0
          -1 -1 0 -1 -1 0
          -1 -1 0
          <InformationKey name="L2_NORM_RANGE" location="vtkDataArray" length="2">
            <Value index="0">
              1.4142135624
            </Value>
            <Value index="1">
              1.4142135624
            </Value>
          </InformationKey>
        </DataArray>
        <DataArray type="Float64" Name="Velocity" NumberOfComponents="3" format="ascii" RangeMin="0.010931984072167585" RangeMax="0.5348557400220094">
          0.534853273689857 -0.0016242714471873653 0 0.5054309379166704 0.009131055525311937 0
          0.28252522797495505 0.00753169658807918 0 0.23948928338822784 -0.0013149032843274835 0
          0.5330480947503106 -0.017314285795510646 0 0.08182576765222253 -0.00872551489964822 0
          0.2818048557105344 -0.025193644568191266 0 -0.010926612155216953 -0.0003426697587925005 0
          0.47584552940746827 0.00904290966140911 0 0.08059458266686736 0.008762532517330604 0
          0.22528370835842262 0.011751840943851519 0 -0.11324822738578343 0.003683768362449536 0
          0.534853273689857 -0.0016242714471873653 0 -0.02547918821456519 -0.0004219113960027641 0
          0.28252522797495505 0.00753169658807918 0 0.08182576765222253 -0.00872551489964822 0
          -0.1179084283453386 -0.002418065026211139 0 -0.1898874671948282 -0.000810978191197716 0
          -0.17490801382655152 0.0004897813109287913 0 -0.1179084283453386 -0.002418065026211139 0
          -0.22459013365734304 -0.0005252126512857351 0 -0.22329820874605022 -0.0019418131701445232 0
          0.534853273689857 -0.0016242714471873653 0 0.5054309379166704 0.009131055525311937 0
          0.5330480947503106 -0.017314285795510646 0 0.47584552940746827 0.00904290966140911 0
          -0.22329820874605022 -0.0019418131701445232 0
          <InformationKey name="L2_NORM_RANGE" location="vtkDataArray" length="2">
            <Value index="0">
              0.010931984072
            </Value>
            <Value index="1">
              0.53485574002
            </Value>
          </InformationKey>
        </DataArray>
        <DataArray type="Float64" Name="Pressure" format="ascii" RangeMin="-2.155922473176634" RangeMax="0.5694723924268262">
          -2.029679697374467 -2.100628706868246 -1.616433849281986 -1.4469309149402423 -2.139307995497264 -0.8283886772788485
          -1.5710492198622483 -0.4280558713737538 -2.155922473176634 -0.7597338750119143 -1.274645581558504 0.011401678402158832
          -2.029679697374467 -0.3606906507977232 -1.616433849281986 -0.8283886772788485 0 0.32925066478095105
          0.23231406666938093 0 0.4639588470030187 0.5694723924268262 -2.029679697374467 -2.100628706868246
          -2.139307995497264 -2.155922473176634 0.5694723924268262
        </DataArray>
      </PointData>
      <CellData>
        <DataArray type="UInt8" Name="vtkGhostType" format="ascii" RangeMin="0" RangeMax="1">
          0 0 0 0 0 0
          0 0 0 0 0 0
          0 0 0 0 0 0
          0 0 0 0 0 0
          0 0 0 1
        </DataArray>
      </CellData>
      <Points>
        <DataArray type="Float32" Name="Points" NumberOfComponents="3" format="ascii" RangeMin="0" RangeMax="17.88854381999832">
          16 8 0 16 6 0
          14 8 0 13.571430206298828 5.4463372230529785 0
          16 4 0 12 8 0
          14 3.464102029800415 0 11.101200103759766 5.649384021759033 0
          16 2 0 12 3.464102029800415 0
          13.166669845581055 1.776708960533142 0 10 3.464102029800415 0
          16 0 0 11 1.7320510149002075 0
          14 0 0 12 0 0
          10 0 0 8.865592002868652 1.8541419506072998 0
          9.0526123046875 5.597301006317139 0 10 8 0
          8 3.464102029800415 0 8 0 0
          0 0 0 0 6 0
          0 4 0 0 2 0
          8 8 0
          <InformationKey name="L2_NORM_RANGE" location="vtkDataArray" length="2">
            <Value index="0">
              0
            </Value>
            <Value index="1">
              17.88854382
            </Value>
          </InformationKey>
        </DataArray>
      </Points>
      <Cells>
        <DataArray type="Int64" Name="connectivity" format="ascii" RangeMin="0" RangeMax="26">
          12 8 14 17 16 13
          13 16 15 13 15 10
          10 15 14 13 10 9
          10 14 8 9 10 6
          6 10 8 9 6 3
          3 4 1 9 3 7
          7 3 5 9 7 11
          11 7 18 9 11 13
          18 7 19 11 18 20
          13 11 17 17 11 20
          0 2 1 4 3 6
          5 19 7 8 4 6
          2 5 3 1 2 3
          21 16 17 19 26 18
        </DataArray>
        <DataArray type="Int64" Name="offsets" format="ascii" RangeMin="3" RangeMax="84">
          3 6 9 12 15 18
          21 24 27 30 33 36
          39 42 45 48 51 54
          57 60 63 66 69 72
          75 78 81 84
        </DataArray>
        <DataArray type="UInt8" Name="types" format="ascii" RangeMin="5" RangeMax="5">
          5 5 5 5 5 5
          5 5 5 5 5 5
          5 5 5 5 5 5
          5 5 5 5 5 5
          5 5 5 5
        </DataArray>
      </Cells>
    </Piece>
  </UnstructuredGrid>
</VTKFile>
