<?xml version="1.0"?>
<VTKFile type="UnstructuredGrid" version="0.1" byte_order="LittleEndian" header_type="UInt32" compressor="vtkZLibDataCompressor">
  <UnstructuredGrid>
    <Piece NumberOfPoints="27" NumberOfCells="28">
      <PointData>
        <DataArray type="Float64" Name="nsi_BC" NumberOfComponents="3" format="ascii" RangeMin="0" RangeMax="0">
          0 0 0 0 0 0
          0 0 0 0 0 0
          0 0 0 0 0 0
          0 0 0 0 0 0
          0 0 0 0 0 0
          0 0 0 0 0 0
          0 0 0 0 0 0
          0 0 0 0 0 0
          0 0 0 0 0 0
          0 0 0 0 0 0
          0 0 0 0 0 0
          0 0 0 0 0 0
          0 0 0 0 0 0
          0 0 0
          <InformationKey name="L2_NORM_RANGE" location="vtkDataArray" length="2">
            <Value index="0">
              0
            </Value>
            <Value index="1">
              0
            </Value>
          </InformationKey>
        </DataArray>
        <DataArray type="Float64" Name="nsi_FIXNO" NumberOfComponents="3" format="ascii" RangeMin="1.4142135623730951" RangeMax="1.4142135623730951">
          -1 -1 0 -1 -1 0
          -1 -1 0 -1 -1 0
          -1 -1 0 -1 -1 0
          -1 -1 0 -1 -1 0
          -1 -1 0 -1 -1 0
          -1 -1 0 -1 -1 0
          -1 -1 0 -1 -1 0
          -1 -1 0 -1 -1 0
          -1 -1 0 -1 -1 0
          -1 -1 0 -1 -1 0
          -1 -1 0 -1 -1 0
          -1 -1 0 -1 -1 0
          -1 -1 0 -1 -1 0
          -1 -1 0
          <InformationKey name="L2_NORM_RANGE" location="vtkDataArray" length="2">
            <Value index="0">
              1.4142135624
            </Value>
            <Value index="1">
              1.4142135624
            </Value>
          </InformationKey>
        </DataArray>
        <DataArray type="Float64" Name="Velocity" NumberOfComponents="3" format="ascii" RangeMin="0.005827944955916924" RangeMax="0.46175155280604674">
          0.46172096280354696 -0.0053149813321395735 0 0.44746100307811104 0.0075511139364505125 0
          0.21469091829471823 0.0162648239335006 0 0.15563066928483676 -0.009672379509931345 0
          0.42633514046007775 0.005005214105525874 0 0.0013007854545675698 -0.005680924186290726 0
          0.2072111777105932 -0.02381450494883331 0 -0.06547590410802093 -0.00435618526830335 0
          0.4021583453906995 -0.00806672282804477 0 0.009112723527674598 0.005632624532226099 0
          0.1502516075265696 0.01636729364594125 0 -0.15207815599942978 -0.000005243672463249409 0
          0.46172096280354696 -0.0053149813321395735 0 -0.08323889296489423 0.004932360564881992 0
          0.21469091829471823 0.0162648239335006 0 0.0013007854545675698 -0.005680924186290726 0
          -0.16116083301151005 0.00008708241001423469 0 -0.21960337386800913 -0.002386003841627654 0
          -0.2079826523117813 0.0018202344232920095 0 -0.16116083301151005 0.00008708241001423469 0
          -0.241373978609371 -0.002120066812538811 0 -0.24991813327816706 0.0006242337733945759 0
          0.46172096280354696 -0.0053149813321395735 0 0.44746100307811104 0.0075511139364505125 0
          0.42633514046007775 0.005005214105525874 0 0.4021583453906995 -0.00806672282804477 0
          -0.24991813327816706 0.0006242337733945759 0
          <InformationKey name="L2_NORM_RANGE" location="vtkDataArray" length="2">
            <Value index="0">
              0.0058279449559
            </Value>
            <Value index="1">
              0.46175155281
            </Value>
          </InformationKey>
        </DataArray>
        <DataArray type="Float64" Name="Pressure" format="ascii" RangeMin="-7.060057489517779" RangeMax="1.640049162071881">
          -7.060057489517779 -6.675936917205978 -0.5595650176654207 0.47940357496647834 -6.591316636321726 1.640049162071881
          -0.8348838600269215 1.286006684894104 -6.797418046578124 1.4152307292477284 0.8692241482355817 -0.029874668986471925
          -7.060057489517779 1.2666371549496327 -0.5595650176654207 1.640049162071881 0 -2.140588788739959
          -1.7373214742193617 0 -4.116763652164157 -4.249449053075427 -7.060057489517779 -6.675936917205978
          -6.591316636321726 -6.797418046578124 -4.249449053075427
        </DataArray>
      </PointData>
      <CellData>
        <DataArray type="UInt8" Name="vtkGhostType" format="ascii" RangeMin="0" RangeMax="1">
          0 0 0 0 0 0
          0 0 0 0 0 0
          0 0 0 0 0 0
          0 0 0 0 0 0
          0 0 0 1
        </DataArray>
      </CellData>
      <Points>
        <DataArray type="Float32" Name="Points" NumberOfComponents="3" format="ascii" RangeMin="0" RangeMax="17.88854381999832">
          16 8 0 16 6 0
          14 8 0 13.571430206298828 5.4463372230529785 0
          16 4 0 12 8 0
          14 3.464102029800415 0 11.101200103759766 5.649384021759033 0
          16 2 0 12 3.464102029800415 0
          13.166669845581055 1.776708960533142 0 10 3.464102029800415 0
          16 0 0 11 1.7320510149002075 0
          14 0 0 12 0 0
          10 0 0 8.865592002868652 1.8541419506072998 0
          9.0526123046875 5.597301006317139 0 10 8 0
          8 3.464102029800415 0 8 0 0
          0 0 0 0 6 0
          0 4 0 0 2 0
          8 8 0
          <InformationKey name="L2_NORM_RANGE" location="vtkDataArray" length="2">
            <Value index="0">
              0
            </Value>
            <Value index="1">
              17.88854382
            </Value>
          </InformationKey>
        </DataArray>
      </Points>
      <Cells>
        <DataArray type="Int64" Name="connectivity" format="ascii" RangeMin="0" RangeMax="26">
          12 8 14 17 16 13
          13 16 15 13 15 10
          10 15 14 13 10 9
          10 14 8 9 10 6
          6 10 8 9 6 3
          3 4 1 9 3 7
          7 3 5 9 7 11
          11 7 18 9 11 13
          18 7 19 11 18 20
          13 11 17 17 11 20
          0 2 1 4 3 6
          5 19 7 8 4 6
          2 5 3 1 2 3
          21 16 17 19 26 18
        </DataArray>
        <DataArray type="Int64" Name="offsets" format="ascii" RangeMin="3" RangeMax="84">
          3 6 9 12 15 18
          21 24 27 30 33 36
          39 42 45 48 51 54
          57 60 63 66 69 72
          75 78 81 84
        </DataArray>
        <DataArray type="UInt8" Name="types" format="ascii" RangeMin="5" RangeMax="5">
          5 5 5 5 5 5
          5 5 5 5 5 5
          5 5 5 5 5 5
          5 5 5 5 5 5
          5 5 5 5
        </DataArray>
      </Cells>
    </Piece>
  </UnstructuredGrid>
</VTKFile>
