<?xml version="1.0"?>
<VTKFile type="UnstructuredGrid" version="0.1" byte_order="LittleEndian" header_type="UInt32" compressor="vtkZLibDataCompressor">
  <UnstructuredGrid>
    <Piece NumberOfPoints="36" NumberOfCells="37">
      <PointData>
        <DataArray type="Float64" Name="nsi_BC" NumberOfComponents="3" format="ascii" RangeMin="0" RangeMax="0">
          0 0 0 0 0 0
          0 0 0 0 0 0
          0 0 0 0 0 0
          0 0 0 0 0 0
          0 0 0 0 0 0
          0 0 0 0 0 0
          0 0 0 0 0 0
          0 0 0 0 0 0
          0 0 0 0 0 0
          0 0 0 0 0 0
          0 0 0 0 0 0
          0 0 0 0 0 0
          0 0 0 0 0 0
          0 0 0 0 0 0
          0 0 0 0 0 0
          0 0 0 0 0 0
          0 0 0 0 0 0
          0 0 0 0 0 0
          <InformationKey name="L2_NORM_RANGE" location="vtkDataArray" length="2">
            <Value index="0">
              0
            </Value>
            <Value index="1">
              0
            </Value>
          </InformationKey>
        </DataArray>
        <DataArray type="Float64" Name="nsi_FIXNO" NumberOfComponents="3" format="ascii" RangeMin="1.4142135623730951" RangeMax="1.4142135623730951">
          -1 -1 0 -1 -1 0
          -1 -1 0 -1 -1 0
          1 1 0 -1 -1 0
          -1 -1 0 -1 -1 0
          -1 -1 0 -1 -1 0
          -1 -1 0 -1 -1 0
          -1 -1 0 -1 -1 0
          -1 -1 0 -1 -1 0
          -1 -1 0 -1 -1 0
          -1 -1 0 1 1 0
          1 1 0 -1 -1 0
          -1 -1 0 -1 -1 0
          -1 -1 0 -1 -1 0
          -1 -1 0 -1 -1 0
          -1 -1 0 -1 -1 0
          -1 -1 0 -1 -1 0
          -1 -1 0 -1 -1 0
          -1 -1 0 -1 -1 0
          <InformationKey name="L2_NORM_RANGE" location="vtkDataArray" length="2">
            <Value index="0">
              1.4142135624
            </Value>
            <Value index="1">
              1.4142135624
            </Value>
          </InformationKey>
        </DataArray>
        <DataArray type="Float64" Name="Velocity" NumberOfComponents="3" format="ascii" RangeMin="0" RangeMax="0.46175155280604674">
          -0.23640369250480398 0.0056923811308207395 0 -0.17165191766151278 0.009433530391512845 0
          -0.1001457409915325 0.015733131100713837 0 -0.09223505260449438 -0.008012676797323176 0
          0 0 0 0.012492629736410188 0.018279021575713178 0
          0.04542738896438858 0.015108341650574397 0 0.13807275088773197 -0.01672680756948217 0
          0.17800451104458148 0.008057045118289738 0 0.21335807631913328 0.027003447168774092 0
          0.1934756858756349 -0.011490059292855903 0 0.46172096280354696 -0.0053149813321395735 0
          0.13807275088773197 -0.01672680756948217 0 0.44746100307811104 0.0075511139364505125 0
          0.42633514046007775 0.005005214105525874 0 0.4021583453906995 -0.00806672282804477 0
          0.46172096280354696 -0.0053149813321395735 0 -0.24991813327816706 0.0006242337733945759 0
          -0.23026267219396462 -0.00023773530435231005 0 0 0 0
          0 0 0 -0.23786646508513637 0.0005364231811260112 0
          -0.01371075269456734 -0.009221993936173817 0 -0.1001457409915325 0.015733131100713837 0
          -0.23640369250480398 0.0056923811308207395 0 -0.24991813327816706 0.0006242337733945759 0
          0.46172096280354696 -0.0053149813321395735 0 0.21469091829471823 0.0162648239335006 0
          0.21469091829471823 0.0162648239335006 0 0.44746100307811104 0.0075511139364505125 0
          0.15563066928483676 -0.009672379509931345 0 0.42633514046007775 0.005005214105525874 0
          0.2072111777105932 -0.02381450494883331 0 0.4021583453906995 -0.00806672282804477 0
          0.46172096280354696 -0.0053149813321395735 0 0.1502516075265696 0.01636729364594125 0
          <InformationKey name="L2_NORM_RANGE" location="vtkDataArray" length="2">
            <Value index="0">
              0
            </Value>
            <Value index="1">
              0.46175155281
            </Value>
          </InformationKey>
        </DataArray>
        <DataArray type="Float64" Name="Pressure" format="ascii" RangeMin="-13.255027625282004" RangeMax="0.8692241482355817">
          -9.261815432401493 -12.001569260281158 -12.849608710085594 -13.190398341109148 -12.750171751598621 -13.21570423493178
          -12.808419076057302 -12.699281358729571 -12.302607592403808 -11.490166646259835 -11.422197127642276 -7.060057489517779
          -12.699281358729571 -6.675936917205978 -6.591316636321726 -6.797418046578124 -7.060057489517779 -4.249449053075427
          -9.487103255660127 -12.863755587562569 -12.030213704778406 -9.980246690834175 -13.255027625282004 -12.849608710085594
          -9.261815432401493 -4.249449053075427 -7.060057489517779 -0.5595650176654207 -0.5595650176654207 -6.675936917205978
          0.47940357496647834 -6.591316636321726 -0.8348838600269215 -6.797418046578124 -7.060057489517779 0.8692241482355817
        </DataArray>
      </PointData>
      <CellData>
        <DataArray type="UInt8" Name="vtkGhostType" format="ascii" RangeMin="0" RangeMax="1">
          1 1 1 0 1 0
          1 1 0 1 0 0
          0 0 1 0 0 0
          0 0 0 0 1 0
          0 0 1 0 1 1
          1 1 1 1 1 1
          1
        </DataArray>
      </CellData>
      <Points>
        <DataArray type="Float32" Name="Points" NumberOfComponents="3" format="ascii" RangeMin="0" RangeMax="17.88854381999832">
          6 8 0 4.574699878692627 4.995409965515137 0
          4 8 0 3.80739688873291 6.614357948303223 0
          3.75 4.433012962341309 0 3.0087170600891113 5.149643898010254 0
          2.864197015762329 3.831125020980835 0 2 8 0
          1.7273950576782227 6.389729976654053 0 1.5482569932937622 4.574378967285156 0
          1.6611889600753784 2.800034999847412 0 0 8 0
          2 0 0 0 6 0
          0 4 0 0 2 0
          0 0 0 8 8 0
          5.868243217468262 6.172163009643555 0 3.75 3.5669870376586914 0
          4.5 4 0 5.61288595199585 4.4169921875 0
          3.5546820163726807 2.3947041034698486 0 4 0 0
          6 0 0 8 0 0
          16 8 0 14 8 0
          14 0 0 16 6 0
          13.571430206298828 5.4463372230529785 0 16 4 0
          14 3.464102029800415 0 16 2 0
          16 0 0 13.166669845581055 1.776708960533142 0
          <InformationKey name="L2_NORM_RANGE" location="vtkDataArray" length="2">
            <Value index="0">
              0
            </Value>
            <Value index="1">
              17.88854382
            </Value>
          </InformationKey>
        </DataArray>
      </Points>
      <Cells>
        <DataArray type="Int64" Name="connectivity" format="ascii" RangeMin="0" RangeMax="35">
          17 0 18 19 4 6
          4 20 1 6 4 5
          1 20 21 4 1 5
          1 21 18 1 18 3
          8 5 3 3 18 0
          1 3 5 2 7 3
          2 3 0 7 8 3
          19 6 22 6 5 9
          9 5 8 6 9 10
          10 9 14 14 9 13
          9 8 13 13 8 11
          6 10 22 10 14 15
          10 15 12 16 12 15
          12 23 22 7 11 8
          22 10 12 26 27 29
          29 27 30 30 31 29
          31 30 32 33 31 32
          34 33 28 35 28 33
          32 35 33
        </DataArray>
        <DataArray type="Int64" Name="offsets" format="ascii" RangeMin="3" RangeMax="111">
          3 6 9 12 15 18
          21 24 27 30 33 36
          39 42 45 48 51 54
          57 60 63 66 69 72
          75 78 81 84 87 90
          93 96 99 102 105 108
          111
        </DataArray>
        <DataArray type="UInt8" Name="types" format="ascii" RangeMin="5" RangeMax="5">
          5 5 5 5 5 5
          5 5 5 5 5 5
          5 5 5 5 5 5
          5 5 5 5 5 5
          5 5 5 5 5 5
          5 5 5 5 5 5
          5
        </DataArray>
      </Cells>
    </Piece>
  </UnstructuredGrid>
</VTKFile>
