<?xml version="1.0"?>
<VTKFile type="UnstructuredGrid" version="0.1" byte_order="LittleEndian" header_type="UInt32" compressor="vtkZLibDataCompressor">
  <UnstructuredGrid>
    <Piece NumberOfPoints="36" NumberOfCells="37">
      <PointData>
        <DataArray type="Float64" Name="nsi_BC" NumberOfComponents="3" format="ascii" RangeMin="0" RangeMax="0">
          0 0 0 0 0 0
          0 0 0 0 0 0
          0 0 0 0 0 0
          0 0 0 0 0 0
          0 0 0 0 0 0
          0 0 0 0 0 0
          0 0 0 0 0 0
          0 0 0 0 0 0
          0 0 0 0 0 0
          0 0 0 0 0 0
          0 0 0 0 0 0
          0 0 0 0 0 0
          0 0 0 0 0 0
          0 0 0 0 0 0
          0 0 0 0 0 0
          0 0 0 0 0 0
          0 0 0 0 0 0
          0 0 0 0 0 0
          <InformationKey name="L2_NORM_RANGE" location="vtkDataArray" length="2">
            <Value index="0">
              0
            </Value>
            <Value index="1">
              0
            </Value>
          </InformationKey>
        </DataArray>
        <DataArray type="Float64" Name="nsi_FIXNO" NumberOfComponents="3" format="ascii" RangeMin="1.4142135623730951" RangeMax="1.4142135623730951">
          -1 -1 0 -1 -1 0
          -1 -1 0 -1 -1 0
          1 1 0 -1 -1 0
          -1 -1 0 -1 -1 0
          -1 -1 0 -1 -1 0
          -1 -1 0 -1 -1 0
          -1 -1 0 -1 -1 0
          -1 -1 0 -1 -1 0
          -1 -1 0 -1 -1 0
          -1 -1 0 1 1 0
          1 1 0 -1 -1 0
          -1 -1 0 -1 -1 0
          -1 -1 0 -1 -1 0
          -1 -1 0 -1 -1 0
          -1 -1 0 -1 -1 0
          -1 -1 0 -1 -1 0
          -1 -1 0 -1 -1 0
          -1 -1 0 -1 -1 0
          <InformationKey name="L2_NORM_RANGE" location="vtkDataArray" length="2">
            <Value index="0">
              1.4142135624
            </Value>
            <Value index="1">
              1.4142135624
            </Value>
          </InformationKey>
        </DataArray>
        <DataArray type="Float64" Name="Velocity" NumberOfComponents="3" format="ascii" RangeMin="0" RangeMax="0.5348557400220094">
          -0.22671938847430598 0.0034692906681918646 0 -0.21303257153407015 -0.00807108271739495 0
          -0.12709922908905577 0.004063252407335562 0 -0.11797331951089952 -0.0015849422306482347 0
          0 0 0 -0.05638400238956292 -0.0023104701017875274 0
          -0.032222873421203016 -0.004710342511991664 0 -0.013798690661287527 -0.0011593444898339161 0
          0.012577097385947061 -0.021106118968742496 0 0.0661201478509341 0.004388826527353305 0
          0.025682607503491592 0.017635280993860872 0 0.534853273689857 -0.0016242714471873653 0
          -0.013798690661287527 -0.0011593444898339161 0 0.5054309379166704 0.009131055525311937 0
          0.5330480947503106 -0.017314285795510646 0 0.47584552940746827 0.00904290966140911 0
          0.534853273689857 -0.0016242714471873653 0 -0.22329820874605022 -0.0019418131701445232 0
          -0.22410655727999093 -0.006404145457878426 0 0 0 0
          0 0 0 -0.22989965962196446 -0.002580596822187701 0
          -0.07190445830547579 0.007340829913482025 0 -0.12709922908905577 0.004063252407335562 0
          -0.22671938847430598 0.0034692906681918646 0 -0.22329820874605022 -0.0019418131701445232 0
          0.534853273689857 -0.0016242714471873653 0 0.28252522797495505 0.00753169658807918 0
          0.28252522797495505 0.00753169658807918 0 0.5054309379166704 0.009131055525311937 0
          0.23948928338822784 -0.0013149032843274835 0 0.5330480947503106 -0.017314285795510646 0
          0.2818048557105344 -0.025193644568191266 0 0.47584552940746827 0.00904290966140911 0
          0.534853273689857 -0.0016242714471873653 0 0.22528370835842262 0.011751840943851519 0
          <InformationKey name="L2_NORM_RANGE" location="vtkDataArray" length="2">
            <Value index="0">
              0
            </Value>
            <Value index="1">
              0.53485574002
            </Value>
          </InformationKey>
        </DataArray>
        <DataArray type="Float64" Name="Pressure" format="ascii" RangeMin="-2.155922473176634" RangeMax="0.8779177429535108">
          0.8779177429535108 0.5559006460044849 0.3186751135080661 0.21676099013969197 0.19127242050416826 -0.2291552634726281
          -0.2712181767333926 -1.043381728590386 -1.189663679040843 -1.3072427651386893 -1.329843066107847 -2.029679697374467
          -1.043381728590386 -2.100628706868246 -2.139307995497264 -2.155922473176634 -2.029679697374467 0.5694723924268262
          0.8395337473442492 0.185596564480923 0.46201481396136623 0.6814510469063542 0.12861244233040803 0.3186751135080661
          0.8779177429535108 0.5694723924268262 -2.029679697374467 -1.616433849281986 -1.616433849281986 -2.100628706868246
          -1.4469309149402423 -2.139307995497264 -1.5710492198622483 -2.155922473176634 -2.029679697374467 -1.274645581558504
        </DataArray>
      </PointData>
      <CellData>
        <DataArray type="UInt8" Name="vtkGhostType" format="ascii" RangeMin="0" RangeMax="1">
          1 1 1 0 1 0
          1 1 0 1 0 0
          0 0 1 0 0 0
          0 0 0 0 1 0
          0 0 1 0 1 1
          1 1 1 1 1 1
          1
        </DataArray>
      </CellData>
      <Points>
        <DataArray type="Float32" Name="Points" NumberOfComponents="3" format="ascii" RangeMin="0" RangeMax="17.88854381999832">
          6 8 0 4.574699878692627 4.995409965515137 0
          4 8 0 3.80739688873291 6.614357948303223 0
          3.75 4.433012962341309 0 3.0087170600891113 5.149643898010254 0
          2.864197015762329 3.831125020980835 0 2 8 0
          1.7273950576782227 6.389729976654053 0 1.5482569932937622 4.574378967285156 0
          1.6611889600753784 2.800034999847412 0 0 8 0
          2 0 0 0 6 0
          0 4 0 0 2 0
          0 0 0 8 8 0
          5.868243217468262 6.172163009643555 0 3.75 3.5669870376586914 0
          4.5 4 0 5.61288595199585 4.4169921875 0
          3.5546820163726807 2.3947041034698486 0 4 0 0
          6 0 0 8 0 0
          16 8 0 14 8 0
          14 0 0 16 6 0
          13.571430206298828 5.4463372230529785 0 16 4 0
          14 3.464102029800415 0 16 2 0
          16 0 0 13.166669845581055 1.776708960533142 0
          <InformationKey name="L2_NORM_RANGE" location="vtkDataArray" length="2">
            <Value index="0">
              0
            </Value>
            <Value index="1">
              17.88854382
            </Value>
          </InformationKey>
        </DataArray>
      </Points>
      <Cells>
        <DataArray type="Int64" Name="connectivity" format="ascii" RangeMin="0" RangeMax="35">
          17 0 18 19 4 6
          4 20 1 6 4 5
          1 20 21 4 1 5
          1 21 18 1 18 3
          8 5 3 3 18 0
          1 3 5 2 7 3
          2 3 0 7 8 3
          19 6 22 6 5 9
          9 5 8 6 9 10
          10 9 14 14 9 13
          9 8 13 13 8 11
          6 10 22 10 14 15
          10 15 12 16 12 15
          12 23 22 7 11 8
          22 10 12 26 27 29
          29 27 30 30 31 29
          31 30 32 33 31 32
          34 33 28 35 28 33
          32 35 33
        </DataArray>
        <DataArray type="Int64" Name="offsets" format="ascii" RangeMin="3" RangeMax="111">
          3 6 9 12 15 18
          21 24 27 30 33 36
          39 42 45 48 51 54
          57 60 63 66 69 72
          75 78 81 84 87 90
          93 96 99 102 105 108
          111
        </DataArray>
        <DataArray type="UInt8" Name="types" format="ascii" RangeMin="5" RangeMax="5">
          5 5 5 5 5 5
          5 5 5 5 5 5
          5 5 5 5 5 5
          5 5 5 5 5 5
          5 5 5 5 5 5
          5 5 5 5 5 5
          5
        </DataArray>
      </Cells>
    </Piece>
  </UnstructuredGrid>
</VTKFile>
