<?xml version="1.0"?>
<VTKFile type="UnstructuredGrid" version="0.1" byte_order="LittleEndian" header_type="UInt32" compressor="vtkZLibDataCompressor">
  <UnstructuredGrid>
    <Piece NumberOfPoints="36" NumberOfCells="37">
      <PointData>
        <DataArray type="Float64" Name="nsi_BC" NumberOfComponents="3" format="ascii" RangeMin="0" RangeMax="0">
          0 0 0 0 0 0
          0 0 0 0 0 0
          0 0 0 0 0 0
          0 0 0 0 0 0
          0 0 0 0 0 0
          0 0 0 0 0 0
          0 0 0 0 0 0
          0 0 0 0 0 0
          0 0 0 0 0 0
          0 0 0 0 0 0
          0 0 0 0 0 0
          0 0 0 0 0 0
          0 0 0 0 0 0
          0 0 0 0 0 0
          0 0 0 0 0 0
          0 0 0 0 0 0
          0 0 0 0 0 0
          0 0 0 0 0 0
          <InformationKey name="L2_NORM_RANGE" location="vtkDataArray" length="2">
            <Value index="0">
              0
            </Value>
            <Value index="1">
              0
            </Value>
          </InformationKey>
        </DataArray>
        <DataArray type="Float64" Name="nsi_FIXNO" NumberOfComponents="3" format="ascii" RangeMin="1.4142135623730951" RangeMax="1.4142135623730951">
          -1 -1 0 -1 -1 0
          -1 -1 0 -1 -1 0
          1 1 0 -1 -1 0
          -1 -1 0 -1 -1 0
          -1 -1 0 -1 -1 0
          -1 -1 0 -1 -1 0
          -1 -1 0 -1 -1 0
          -1 -1 0 -1 -1 0
          -1 -1 0 -1 -1 0
          -1 -1 0 1 1 0
          1 1 0 -1 -1 0
          -1 -1 0 -1 -1 0
          -1 -1 0 -1 -1 0
          -1 -1 0 -1 -1 0
          -1 -1 0 -1 -1 0
          -1 -1 0 -1 -1 0
          -1 -1 0 -1 -1 0
          -1 -1 0 -1 -1 0
          <InformationKey name="L2_NORM_RANGE" location="vtkDataArray" length="2">
            <Value index="0">
              1.4142135624
            </Value>
            <Value index="1">
              1.4142135624
            </Value>
          </InformationKey>
        </DataArray>
        <DataArray type="Float64" Name="Velocity" NumberOfComponents="3" format="ascii" RangeMin="0" RangeMax="0.4936443065989502">
          -0.23177797333858097 0.003491050861295557 0 -0.17095988939632067 -0.0068051789076626805 0
          -0.07840271099207478 0.020766394305529325 0 -0.0534904557505521 -0.011214426182026956 0
          0 0 0 0.013311036258363676 -0.008835868092712182 0
          0.0509239459545111 0.007680943772485508 0 0.06503052312052092 -0.0020367887857135406 0
          0.08014265714788106 -0.01678947736169333 0 0.1324008009623062 0.008259708018989394 0
          0.10570260578863466 0.010673514466956757 0 0.4936210344459727 -0.004793306796579467 0
          0.06503052312052092 -0.0020367887857135406 0 0.4774923088881108 0.004065867057358761 0
          0.48661507858160896 -0.004301982053423845 0 0.4378917324025363 0.0035332544357298294 0
          0.4936210344459727 -0.004793306796579467 0 -0.24699508852856358 -0.000888151281235877 0
          -0.2293979736059631 -0.00016235055305160962 0 0 0 0
          0 0 0 -0.23520802119369255 -0.000873399429146425 0
          0.0014355406326632628 0.0071038978210230756 0 -0.07840271099207478 0.020766394305529325 0
          -0.23177797333858097 0.003491050861295557 0 -0.24699508852856358 -0.000888151281235877 0
          0.4936210344459727 -0.004793306796579467 0 0.2440261963315538 0.01171688602414161 0
          0.2440261963315538 0.01171688602414161 0 0.4774923088881108 0.004065867057358761 0
          0.19223257429665153 -0.005366651000480123 0 0.48661507858160896 -0.004301982053423845 0
          0.2405522366378281 -0.025369051993261754 0 0.4378917324025363 0.0035332544357298294 0
          0.4936210344459727 -0.004793306796579467 0 0.18040839297285774 0.015121473669749596 0
          <InformationKey name="L2_NORM_RANGE" location="vtkDataArray" length="2">
            <Value index="0">
              0
            </Value>
            <Value index="1">
              0.4936443066
            </Value>
          </InformationKey>
        </DataArray>
        <DataArray type="Float64" Name="Pressure" format="ascii" RangeMin="-1.4126689272668274" RangeMax="0.36791294400930996">
          0.017483275498916095 0.018495220862793288 0.3070864050026686 0.36791294400930996 -0.04038114324459726 0.08446939698153061
          -0.12259201922596649 0.15405572841810722 0.0016924631038524457 -0.6030119780358302 -0.5552190487489611 -1.0542578685046435
          0.15405572841810722 -1.2972331342283991 -1.4126689272668274 -1.2749157849587487 -1.0542578685046435 0.022769733049734286
          0.015793970930927298 -0.0780537718288607 -0.03100326810373813 -0.011707607850094032 0.07654468782943533 0.3070864050026686
          0.017483275498916095 0.022769733049734286 -1.0542578685046435 -0.8459593657937328 -0.8459593657937328 -1.2972331342283991
          -0.7287659768940609 -1.4126689272668274 -0.8387265642790402 -1.2749157849587487 -1.0542578685046435 -0.6172154506230216
        </DataArray>
      </PointData>
      <CellData>
        <DataArray type="UInt8" Name="vtkGhostType" format="ascii" RangeMin="0" RangeMax="1">
          1 1 1 0 1 0
          1 1 0 1 0 0
          0 0 1 0 0 0
          0 0 0 0 1 0
          0 0 1 0 1 1
          1 1 1 1 1 1
          1
        </DataArray>
      </CellData>
      <Points>
        <DataArray type="Float32" Name="Points" NumberOfComponents="3" format="ascii" RangeMin="0" RangeMax="17.88854381999832">
          6 8 0 4.574699878692627 4.995409965515137 0
          4 8 0 3.80739688873291 6.614357948303223 0
          3.75 4.433012962341309 0 3.0087170600891113 5.149643898010254 0
          2.864197015762329 3.831125020980835 0 2 8 0
          1.7273950576782227 6.389729976654053 0 1.5482569932937622 4.574378967285156 0
          1.6611889600753784 2.800034999847412 0 0 8 0
          2 0 0 0 6 0
          0 4 0 0 2 0
          0 0 0 8 8 0
          5.868243217468262 6.172163009643555 0 3.75 3.5669870376586914 0
          4.5 4 0 5.61288595199585 4.4169921875 0
          3.5546820163726807 2.3947041034698486 0 4 0 0
          6 0 0 8 0 0
          16 8 0 14 8 0
          14 0 0 16 6 0
          13.571430206298828 5.4463372230529785 0 16 4 0
          14 3.464102029800415 0 16 2 0
          16 0 0 13.166669845581055 1.776708960533142 0
          <InformationKey name="L2_NORM_RANGE" location="vtkDataArray" length="2">
            <Value index="0">
              0
            </Value>
            <Value index="1">
              17.88854382
            </Value>
          </InformationKey>
        </DataArray>
      </Points>
      <Cells>
        <DataArray type="Int64" Name="connectivity" format="ascii" RangeMin="0" RangeMax="35">
          17 0 18 19 4 6
          4 20 1 6 4 5
          1 20 21 4 1 5
          1 21 18 1 18 3
          8 5 3 3 18 0
          1 3 5 2 7 3
          2 3 0 7 8 3
          19 6 22 6 5 9
          9 5 8 6 9 10
          10 9 14 14 9 13
          9 8 13 13 8 11
          6 10 22 10 14 15
          10 15 12 16 12 15
          12 23 22 7 11 8
          22 10 12 26 27 29
          29 27 30 30 31 29
          31 30 32 33 31 32
          34 33 28 35 28 33
          32 35 33
        </DataArray>
        <DataArray type="Int64" Name="offsets" format="ascii" RangeMin="3" RangeMax="111">
          3 6 9 12 15 18
          21 24 27 30 33 36
          39 42 45 48 51 54
          57 60 63 66 69 72
          75 78 81 84 87 90
          93 96 99 102 105 108
          111
        </DataArray>
        <DataArray type="UInt8" Name="types" format="ascii" RangeMin="5" RangeMax="5">
          5 5 5 5 5 5
          5 5 5 5 5 5
          5 5 5 5 5 5
          5 5 5 5 5 5
          5 5 5 5 5 5
          5 5 5 5 5 5
          5
        </DataArray>
      </Cells>
    </Piece>
  </UnstructuredGrid>
</VTKFile>
