<?xml version="1.0"?>
<VTKFile type="UnstructuredGrid" version="0.1" byte_order="LittleEndian" header_type="UInt32" compressor="vtkZLibDataCompressor">
  <UnstructuredGrid>
    <Piece NumberOfPoints="88" NumberOfCells="239">
      <PointData>
        <DataArray type="Float64" Name="nsi_BC" NumberOfComponents="3" format="ascii" RangeMin="0" RangeMax="1">
          1 0 0 1 0 0
          1 0 0 1 0 0
          1 0 0 0 0 0
          1 0 0 0 0 0
          1 0 0 0 0 0
          1 0 0 0 0 0
          0 0 0 0 0 0
          1 0 0 0 0 0
          0 0 0 1 0 0
          1 0 0 1 0 0
          0 0 0 1 0 0
          1 0 0 0 0 0
          0 0 0 0 0 0
          1 0 0 1 0 0
          0 0 0 0 0 0
          0 0 0 0 0 0
          1 0 0 0 0 0
          0 0 0 0 0 0
          1 0 0 1 0 0
          0 0 0 1 0 0
          1 0 0 0 0 0
          0 0 0 0 0 0
          0 0 0 1 0 0
          0 0 0 0 0 0
          1 0 0 0 0 0
          0 0 0 0 0 0
          1 0 0 1 0 0
          0 0 0 0 0 0
          1 0 0 0 0 0
          0 0 0 1 0 0
          0 0 0 0 0 0
          1 0 0 0 0 0
          0 0 0 1 0 0
          0 0 0 0 0 0
          0 0 0 1 0 0
          1 0 0 0 0 0
          0 0 0 1 0 0
          0 0 0 1 0 0
          0 0 0 0 0 0
          1 0 0 1 0 0
          1 0 0 1 0 0
          0 0 0 0 0 0
          1 0 0 0 0 0
          1 0 0 0 0 0
          <InformationKey name="L2_NORM_RANGE" location="vtkDataArray" length="2">
            <Value index="0">
              0
            </Value>
            <Value index="1">
              1
            </Value>
          </InformationKey>
        </DataArray>
        <DataArray type="Float64" Name="nsi_FIXNO" NumberOfComponents="3" format="ascii" RangeMin="1.7320508075688772" RangeMax="1.7320508075688772">
          1 1 1 1 1 1
          1 1 1 1 1 1
          1 1 1 1 1 1
          1 1 1 1 1 1
          1 1 1 -1 -1 -1
          1 1 1 1 1 1
          1 1 1 1 1 1
          1 1 1 -1 -1 -1
          -1 -1 -1 1 1 1
          1 1 1 1 1 1
          1 1 1 1 1 1
          1 1 1 1 1 1
          1 1 1 -1 -1 -1
          1 1 1 1 1 1
          1 1 1 -1 -1 -1
          1 1 1 1 1 1
          1 1 1 1 1 1
          -1 -1 -1 1 1 1
          1 1 1 1 1 1
          1 1 1 1 1 1
          1 1 1 1 1 1
          1 1 1 1 1 1
          1 1 1 1 1 1
          1 1 1 1 1 1
          1 1 1 1 1 1
          1 1 1 1 1 1
          1 1 1 1 1 1
          1 1 1 1 1 1
          1 1 1 1 1 1
          1 1 1 1 1 1
          1 1 1 1 1 1
          1 1 1 1 1 1
          1 1 1 1 1 1
          1 1 1 1 1 1
          1 1 1 1 1 1
          1 1 1 -1 -1 -1
          1 1 1 1 1 1
          1 1 1 1 1 1
          1 1 1 1 1 1
          1 1 1 1 1 1
          1 1 1 1 1 1
          1 1 1 1 1 1
          1 1 1 1 1 1
          1 1 1 1 1 1
          <InformationKey name="L2_NORM_RANGE" location="vtkDataArray" length="2">
            <Value index="0">
              1.7320508076
            </Value>
            <Value index="1">
              1.7320508076
            </Value>
          </InformationKey>
        </DataArray>
        <DataArray type="Float64" Name="tem_BC" format="ascii" RangeMin="0" RangeMax="12">
          0 0 0 0 0 12
          0 12 0 0 0 12
          12 12 0 0 0 0
          0 0 12 0 0 12
          12 0 0 0 12 0
          12 12 0 12 0 12
          0 0 12 0 0 12
          12 12 12 0 12 12
          0 12 12 12 0 0
          12 12 0 12 12 0
          12 12 0 12 12 0
          12 12 12 0 0 0
          12 0 12 7.64356 12 12
          0 7.64356 8.129456 8.136573 12 12
          7.64356 12 8.129456 12
        </DataArray>
        <DataArray type="Float64" Name="tem_FIXNO" format="ascii" RangeMin="-1" RangeMax="1">
          -1 -1 -1 -1 -1 1
          -1 1 -1 -1 -1 1
          1 1 -1 -1 -1 -1
          -1 -1 1 -1 -1 1
          1 -1 -1 -1 1 -1
          1 1 -1 1 -1 1
          -1 -1 1 -1 -1 1
          1 1 1 -1 1 1
          -1 1 1 1 -1 -1
          1 1 -1 1 1 -1
          1 1 -1 1 1 -1
          1 1 1 -1 -1 -1
          1 -1 1 1 1 1
          -1 1 1 1 1 1
          1 1 1 1
        </DataArray>
        <DataArray type="Float64" Name="Velocity" NumberOfComponents="3" format="ascii" RangeMin="0" RangeMax="1.0000000000000002">
          1 0 0 1 0 0
          1 0 0 1 0 0
          1 0 0 0 0 0
          1 0 0 0 0 0
          1 0 0 0.8359505964516184 0.11232896177197493 0.07335154186112562
          1 0 0 0 0 0
          0 0 0 0 0 0
          1 0 0 0.872293852033187 0.023655121449531136 0.0052033447569621305
          0.8026286583272537 0.10305615748023485 -0.01947048609713343 1 0 0
          1 0 0 1 0 0
          0 0 0 1 0 0
          1 0 0 0 0 0
          0 0 0 0.5978484370814177 0.11969564047332204 -0.1100143067338191
          1 0 0 1.0000000000000002 0 0
          0 0 0 0.638489391923369 0.1400677019618255 0.0006405093432550746
          0 0 0 0 0 0
          1 0 0 0 0 0
          0.7731610150003877 -0.05989147833301982 0.09779225346084977 0 0 0
          1 0 0 1 0 0
          0 0 0 1 0 0
          1 0 0 0 0 0
          0 0 0 0 0 0
          0 0 0 1 0 0
          0 0 0 0 0 0
          1 0 0 0 0 0
          0 0 0 0 0 0
          1.0000000000000002 0 0 1 0 0
          0 0 0 0 0 0
          1 0 0 0 0 0
          0 0 0 1 0 0
          0 0 0 0 0 0
          1 0 0 0 0 0
          0 0 0 1 0 0
          0 0 0 0 0 0
          0 0 0 1 0 0
          1 0 0 0.754493170358008 0.04207929934936369 -0.14394131667738727
          0 0 0 1 0 0
          0 0 0 1 0 0
          0 0 0 0 0 0
          1 0 0 1 0 0
          1 0 0 1 0 0
          0 0 0 0 0 0
          1 0 0 0 0 0
          1.0000000000000002 0 0 0 0 0
          <InformationKey name="L2_NORM_RANGE" location="vtkDataArray" length="2">
            <Value index="0">
              0
            </Value>
            <Value index="1">
              1
            </Value>
          </InformationKey>
        </DataArray>
        <DataArray type="Float64" Name="Pressure" format="ascii" RangeMin="0" RangeMax="9.606075513762628">
          0 7.80205735493845 7.48783924833966 8.305714720999463 8.251250247338602 8.218260221071338
          8.62846498119524 8.504416601302715 8.682445127586746 8.74498065325568 8.842707063869572 8.738230035598228
          8.738084742792404 8.78098212605898 8.70667124318697 8.997203049312553 8.852728234732536 8.952654717335246
          9.088025361364759 8.80487289920963 8.834609207280979 8.835020029928794 9.127326336262001 9.035735541443481
          9.149029724181615 9.185160931959937 8.870960449449084 9.221796004051765 8.862332512741213 9.175172219295826
          9.054937911052395 8.890484518947066 9.034908681204715 9.400098555394349 9.214831054726186 9.400137070360046
          9.330115193803517 8.998903030959633 9.013226919446586 9.385457666283786 9.379961796393461 9.400097335277714
          9.400144725588822 9.397386798088268 9.400193936405579 9.238781859132962 9.400138446863975 9.177009971158215
          9.443245259869405 9.400195638219914 9.400189066307247 9.400210851034627 9.377931435590423 9.342065344995945
          9.508716977418889 9.400285292147482 9.482035491949228 9.400212230672663 9.400165694379155 9.345023653534577
          9.400280799706353 9.400321700781644 9.531861690813887 9.400375114359424 9.400348947057251 9.402170923046311
          9.400295926190175 9.400213128502083 9.400353631434413 9.413630515024991 9.589527844443152 9.516599078143994
          9.400341937503848 9.57987400686176 9.40750834186243 9.495624301739852 9.42369315752027 9.400356030810558
          9.405012575382079 9.497679246611359 9.454652694742608 9.422244920938423 9.421266589673005 9.386116456320671
          9.606075513762628 9.400326609722745 9.483020749637376 9.438721900471707
        </DataArray>
        <DataArray type="Float64" Name="DISSI_NS" format="ascii" RangeMin="0.00007210097694683822" RangeMax="324.0230226499862">
          19.038521099716426 2.4729093979746875 2.4110709403267374 0.9922874700613473 0.09482123619297653 23.181062130503037
          0.05624342030210607 14.636257172271083 0.07865661197848803 0.0967343694511309 0.09906742065779288 9.098093425248333
          324.0230226499862 264.92639949165954 0.009884426720212143 0.026624272347381232 0.03643337452317263 0.018842631640434534
          0.05742431382776919 0.04067288043084995 225.25801626677705 0.014718047252177568 0.07372121394559011 291.90575899348096
          131.96247008523667 0.06510739723695147 0.04018808180767667 0.016621670591980563 1.4249446999555095 0.025915091178973837
          184.97498316215473 0.9940108878707975 0.024097632829278556 201.18088451817988 0.0453420094683737 38.81881732526163
          0.07365039908105361 0.032390990654380315 109.60434890985584 0.02407537863740331 0.07524597715672646 70.08572543097794
          0.1900799023097558 100.1604305706563 65.6343193131863 0.03258074928787937 0.00009138835524518365 31.157439794722002
          0.07665800806126546 0.00013948676084961421 10.109080579798178 2.9928716435982152 0.2954673660135802 0.017122326548696394
          81.63979475809266 88.90997628083164 0.0020134322459014905 0.00013719625239518794 6.841704488402632 0.04116799551074439
          0.05404542725663088 61.588772038426036 0.11251221966474363 0.050436638869656505 0.05911508161212298 0.19242714728055466
          0.14083388225175728 0.3659459439387724 0.00007210097694683822 0.19715925451788846 0.012401727166667495 0.09574334595755492
          0.010248039749948536 0.07798762700841272 0.03270507357952438 0.00037759060783382214 0.20615495577364384 0.1990626169530994
          0.08276789125708663 0.01604242309723308 0.06878085062516164 0.11095434049001618 0.1411701094415744 0.03534335179200903
          0.028144359066504625 0.06633223918940291 0.0579064484774746 0.19485569030378525
        </DataArray>
        <DataArray type="Float64" Name="Temperature" format="ascii" RangeMin="-1.7662296839348584" RangeMax="12.000000000000004">
          0.6622508638387147 -1.7662296839348584 -0.14929448379814134 -1.1165080786177182 0.046645726206207404 12
          -0.5998163262738999 12 -0.7414153514462104 1.1966918526059742 0.39057200774294754 11.999999999999998
          12 11.999999999999998 0.45601582037949984 1.4529985926886717 0.9406930489149943 -0.39964284168093545
          0.20605364354043573 -1.330165038785521 12 -0.33795201457803187 -0.2071924614386763 12.000000000000004
          11.999999999999998 4.542322174013436 -0.29692666233834075 0.8392427611121114 12 3.4879052932880934
          12.000000000000002 12.000000000000002 -0.7618101444514254 12 2.536129415683007 12.000000000000002
          2.4007826493862323 0.26025150247366285 12.000000000000002 0.7922063909547634 -1.6531483287067619 12
          12 12.000000000000002 12 -0.2667593793174598 12.000000000000002 12
          1.698173263903602 11.999999999999998 12 12 3.44436471439122 -0.50634323018477
          12.000000000000002 12.000000000000002 5.1224140350448994 12.000000000000002 11.999999999999998 0.8095586931348245
          12 12 4.3641098611602205 11.999999999999998 12 5.810176027231195
          11.999999999999998 12 12.000000000000002 2.647453353582353 4.255130423468634 6.620367978328131
          11.999999999999996 2.5477662484191903 11.999999999999998 7.643560000000001 12 12
          6.180425493324996 7.64356 8.129456 8.136573 11.999999999999998 12
          7.64356 12 8.129455999999998 11.999999999999998
        </DataArray>
        <DataArray type="Float64" Name="DISSI_TEMPE" format="ascii" RangeMin="5.413508681017673e-32" RangeMax="1.1187032842805058">
          0.01660021107149351 0.39867922286850965 0.007304070771193902 0.22286037675158632 0.2576791032360825 0.44964101079346225
          0.005819129089152691 0.6538711358903683 0.060134617440545275 0.2884524190883279 0.3807020583158131 0.5179691170045879
          0.5024843855563099 0.6279416503442774 0.010197058406143716 0.18071896786950373 0.23794680470943763 0.02918625306318377
          0.25855648386699354 0.3007115268907464 0.4736328728739925 0.00424686786831499 0.21906094854387856 0.4511617692982374
          0.4917750989138098 0.5107095823465699 0.4365225526599648 0.012376224963719491 0.4036819979912415 0.3214500907156606
          0.4983387754797083 0.5876742092045983 0.023746080370669664 0.30229554915042267 0.2908704071076778 0.43808494200887926
          0.4766325821824805 0.2556960756286518 0.6706280320255337 0.19449366072756882 0.24634388290144385 0.34658100406976206
          0.45140749874520164 0.5143438754260866 0.36373143964303106 0.23418699074430088 5.413508681017673e-32 0.4982349958938868
          0.2277078903104647 1.0203825421220016e-31 0.5243850007783257 0.42506605078368914 0.7178934807552311 0.048835953983853486
          0.41287173403488586 0.44355873002574614 0.03218204772529403 5.452227771602466e-32 0.41718920568986223 0.3253896139737052
          1.1187032842805058 0.45772705220147797 0.19867598718869978 0.15076487402017577 0.7772350054522765 0.224733723879301
          0.6667115300576292 0.7224575062800406 3.324341755182999e-31 0.7002143723927471 0.07557063558624758 0.2614196854847236
          0.192035285901859 0.23085870454995108 0.15718343630145754 0.022641152590293 0.33944523929220327 0.1405414745776616
          0.29125387207633757 0.028586993327995237 0.09694073611805594 0.12319566966050527 0.20377627094169973 0.19025161500279927
          0.0592876344438291 0.10054029741556238 0.08793734743870622 0.017640199855811736
        </DataArray>
        <DataArray type="Float64" Name="CN2" format="ascii" RangeMin="0" RangeMax="9.167066026361561e-11">
          0 2.478929766699302e-11 7.864698609141273e-13 1.1094184745674565e-11 1.808917138538678e-11 4.115602464699422e-11
          1.5366086862741542e-12 4.125791006380959e-11 4.698204474791049e-12 3.016665273741191e-11 2.0293548955165443e-11 3.987901107974855e-11
          8.358126973451357e-11 6.129546488999932e-11 0 1.2685974115051082e-11 2.3702369820424887e-11 5.909388393454002e-12
          1.5429695815030758e-11 2.4437865867979704e-11 8.79428052602599e-11 1.1551556770203024e-12 1.315494867521012e-11 5.945584587742843e-11
          3.947858547430802e-11 2.8105476872838245e-11 2.6089259300246386e-11 0 4.2452957453759955e-11 2.6632503738445375e-11
          7.689025828913778e-11 4.0710374991675045e-11 2.972533286018715e-12 3.5409768209405e-11 1.861640184466717e-11 2.7635782586452245e-11
          6.363997349278666e-11 1.703753481156926e-11 6.143810145400822e-11 3.815474889768917e-11 1.4454376899051696e-11 3.1156808879043303e-11
          1.84588479492988e-11 4.1448373123403535e-11 4.4739212256567266e-11 1.7069400384036537e-11 0 4.187427184981289e-11
          1.9983009180911603e-11 0 4.229059777004943e-11 3.5338837201137747e-11 7.836990629632184e-11 6.9920773148255915e-12
          3.219712269918497e-11 5.313598683694899e-11 0 0 2.5989889790641976e-11 4.3687632374586204e-11
          2.1811704330960044e-11 6.228204211955753e-11 1.695721520813944e-11 5.431925074221869e-12 2.0808723915004417e-11 1.3263038099494814e-11
          3.580103827900734e-11 4.568609213696795e-11 0 9.167066026361561e-11 9.54685599217145e-12 1.366704977381695e-11
          6.533186220185037e-12 1.860495454557074e-11 1.2043636810832105e-11 0 3.4573519225151505e-11 1.464499093907424e-11
          3.54948898766939e-11 4.663092737090957e-12 2.90760732757493e-12 5.845060574335722e-12 7.767197681091561e-12 8.765157516166914e-12
          7.628651442990501e-12 4.867454754578033e-12 5.143143760154429e-12 2.014195266367016e-12
        </DataArray>
        <DataArray type="Float64" Name="CT2" format="ascii" RangeMin="0" RangeMax="93.14571735505054">
          0 21.541589654888003 0.6998708901837992 9.73326536041362 16.14337230921525 43.59145332824131
          1.3583761940543968 43.69911779095962 4.1446271363499 27.377632212406127 18.201786155337487 42.23843261470484
          88.5263135720854 64.9219245842526 0 11.556134335334294 21.43077320220737 5.239283426522175
          13.80190453572687 21.37259145457591 93.14571735505054 1.0250941803056874 11.696133186550993 62.97314628372828
          41.81397251667449 26.773951664649218 23.165725431139823 0 44.96455363044769 24.987618151038756
          81.438915756416 43.11885246289438 2.6214836457033424 37.50427283255824 17.227457155328068 29.270452241762197
          58.77617961023908 15.252238170821862 65.07269780959801 34.422997439022794 12.58122417525363 32.99974893678244
          19.550697562661174 43.90006647863492 47.38555783988031 15.163214624862503 0 44.35135280326782
          18.26821410519473 0 44.7921066517393 37.42914613737719 73.48301907900338 6.189455971896865
          34.10152373898738 56.27900550867982 0 0 27.527204090218707 39.42475284901965
          23.10187692707887 65.96605422502282 16.112310593163677 5.753225992843804 22.03956971654497 12.866961272677736
          37.918686563117994 48.38844609486234 0 84.96800260770249 9.056926479472777 13.413582403938717
          6.919627257262903 17.219645326671348 12.75602176344687 0 36.61854204496255 15.511249035383422
          34.61807568656245 4.6439329255207955 2.915758135017382 5.862042907878372 8.226627633898225 9.283623345992076
          7.597290213870289 5.155366993754889 5.15755845315946 2.133334226132076
        </DataArray>
      </PointData>
      <CellData>
        <DataArray type="UInt8" Name="vtkGhostType" format="ascii" RangeMin="0" RangeMax="0">
          0 0 0 0 0 0
          0 0 0 0 0 0
          0 0 0 0 0 0
          0 0 0 0 0 0
          0 0 0 0 0 0
          0 0 0 0 0 0
          0 0 0 0 0 0
          0 0 0 0 0 0
          0 0 0 0 0 0
          0 0 0 0 0 0
          0 0 0 0 0 0
          0 0 0 0 0 0
          0 0 0 0 0 0
          0 0 0 0 0 0
          0 0 0 0 0 0
          0 0 0 0 0 0
          0 0 0 0 0 0
          0 0 0 0 0 0
          0 0 0 0 0 0
          0 0 0 0 0 0
          0 0 0 0 0 0
          0 0 0 0 0 0
          0 0 0 0 0 0
          0 0 0 0 0 0
          0 0 0 0 0 0
          0 0 0 0 0 0
          0 0 0 0 0 0
          0 0 0 0 0 0
          0 0 0 0 0 0
          0 0 0 0 0 0
          0 0 0 0 0 0
          0 0 0 0 0 0
          0 0 0 0 0 0
          0 0 0 0 0 0
          0 0 0 0 0 0
          0 0 0 0 0 0
          0 0 0 0 0 0
          0 0 0 0 0 0
          0 0 0 0 0 0
          0 0 0 0 0
        </DataArray>
      </CellData>
      <Points>
        <DataArray type="Float32" Name="Points" NumberOfComponents="3" format="ascii" RangeMin="0" RangeMax="24.49489742783178">
          20 10 10 20 6.5 10
          16 10 10 20 10 5
          16.37211036682129 5.206768989562988 10 20 3 10
          14.333330154418945 10 5.767949104309082 17.5 2.625 10
          12 10 10 14.425399780273438 5.033590793609619 7.012404918670654
          13.360549926757812 4.658843994140625 10 20 3 5
          16.25 2.4375 7.37460994720459 15 2.25 10
          20 10 0 12.214110374450684 6.010365009307861 4.925261974334717
          14.570380210876465 5.105739116668701 2.9404709339141846 12 10 3.0717968940734863
          10 10 6.535898208618164 20 6.5 0
          16.344310760498047 2.451646089553833 3.285098075866699 16 10 0
          10.119270324707031 5.519060134887695 10 13.631239891052246 2.0446860790252686 6.215021133422852
          12.5 1.875 10 10.550640106201172 4.647356033325195 7.100153923034668
          16.37211036682129 5.206768989562988 0 8 10 10
          20 3 0 11.739009857177734 4.367464065551758 2.512845993041992
          13.663330078125 2.049499034881592 2.55780291557312 17.5 2.625 0
          12 10 0 10.661359786987305 1.5992039442062378 6.873061180114746
          9.59029769897461 6.954894065856934 2.912667989730835 10 1.5 10
          8.36054801940918 3.908843994140625 10 13.360549926757812 4.658843994140625 0
          15 2.25 0 6.61377477645874 6.690732002258301 10
          8 10 3.0717968940734863 10.999679565429688 1.6499520540237427 3.4145760536193848
          9 3 5 8 4.732050895690918 5
          8 3 6.732050895690918 10.596699714660645 5.428274154663086 0
          9 1.350000023841858 5 12.5 1.875 0
          5.6666669845581055 10 5.767949104309082 7.9958391189575195 1.1993759870529175 6.734446048736572
          7.5 1.125 10 8 3 3.267949104309082
          5.86054801940918 3.533843994140625 10 8 10 0
          6 4.732050895690918 5 6 3 6.732050895690918
          4 10 10 7.995840072631836 1.1993759870529175 3.2655539512634277
          10 1.5 0 7.719629764556885 4.535800933837891 0
          6.004158973693848 0.9006239175796509 6.734445095062256 6 3 3.267949104309082
          3.305811882019043 6.3972368240356445 10 5 3 5
          5 0.75 10 3.3605480194091797 3.158843994140625 10
          6.004159927368164 0.9006239771842957 3.2655539512634277 7.5 1.125 0
          5 0.75 5 5.535371780395508 3.26835298538208 0
          4 10 0 3.0012240409851074 5.308693885803223 3.156306028366089
          3.720721960067749 0.5581083297729492 6.921747207641602 4.087935924530029 6.566143035888672 0
          2.5 0.375 10 0 10 10
          5 0.75 0 3.3971519470214844 0.5095726847648621 3.1724090576171875
          3.3605480194091797 3.158843994140625 0 0 10 5
          0 5 10 0 4.949490070343018 5.050509929656982
          2.5 0.375 0 0 0 10
          0 10 0 0 0 5
          0 5 0 0 0 0
          <InformationKey name="L2_NORM_RANGE" location="vtkDataArray" length="2">
            <Value index="0">
              0
            </Value>
            <Value index="1">
              24.494897428
            </Value>
          </InformationKey>
        </DataArray>
      </Points>
      <Cells>
        <DataArray type="Int64" Name="connectivity" format="ascii" RangeMin="0" RangeMax="87">
          16 20 19 11 53 40
          70 73 81 63 77 71
          69 59 61 51 62 55
          52 65 66 77 69 76
          55 68 72 63 79 62
          75 80 52 55 64 65
          10 8 2 9 32 37
          21 16 47 41 30 29
          15 9 23 16 54 48
          34 40 44 42 43 25
          43 39 44 25 41 15
          23 29 62 54 81 71
          77 69 78 61 32 17
          53 34 39 54 62 48
          59 73 54 34 19 3
          21 16 11 1 4 12
          79 56 75 62 45 17
          32 34 54 59 61 73
          23 33 24 25 18 22
          39 25 23 10 24 13
          24 10 23 25 39 48
          56 27 46 42 44 33
          4 11 12 9 64 60
          52 50 40 73 54 71
          23 15 41 25 44 35
          36 50 39 18 43 48
          10 9 23 25 43 54
          39 48 23 16 30 29
          85 81 65 72 60 50
          49 55 21 17 32 16
          49 35 44 50 81 62
          79 80 39 22 36 25
          26 38 20 16 81 85
          65 80 81 63 65 72
          8 9 22 25 20 38
          30 16 46 44 49 33
          20 16 19 26 70 40
          48 73 7 4 12 13
          61 59 69 73 45 51
          58 29 52 39 36 55
          69 73 78 71 36 35
          44 25 42 15 41 29
          19 21 3 14 77 63
          61 71 78 82 77 86
          40 73 53 34 18 48
          39 27 68 61 77 63
          17 40 53 34 23 13
          12 9 49 50 44 55
          17 37 32 16 48 54
          34 43 81 77 63 85
          18 8 22 25 44 35
          49 33 36 39 44 55
          61 54 43 59 86 73
          84 71 59 45 53 34
          11 9 3 16 10 13
          23 9 52 50 60 55
          11 1 3 9 77 72
          63 85 86 81 77 71
          6 17 21 16 4 1
          11 9 54 73 61 71
          39 62 56 48 43 15
          42 29 70 48 79 71
          67 59 69 51 4 2
          3 9 37 16 17 29
          43 34 18 25 43 18
          39 25 52 62 39 55
          86 84 79 71 15 34
          17 29 12 13 4 9
          32 17 45 37 3 1
          4 9 45 34 51 29
          79 62 81 71 69 78
          61 71 45 37 17 29
          48 73 40 71 57 58
          67 51 10 2 4 9
          6 8 18 15 31 26
          20 19 67 61 57 51
          54 73 40 34 62 48
          54 71 18 27 39 22
          11 20 12 9 41 58
          57 51 56 62 79 48
          46 41 57 51 41 42
          46 33 47 37 30 38
          46 42 41 51 3 2
          4 1 43 51 59 34
          23 20 30 16 77 86
          85 81 8 15 6 9
          0 2 3 1 24 22
          10 25 41 33 23 25
          87 85 77 86 69 61
          67 51 52 60 64 55
          59 51 45 34 41 51
          42 29 39 55 62 54
          12 20 23 9 15 34
          43 25 15 16 23 29
          22 9 10 25 44 39
          43 54 44 55 39 54
          23 9 15 25 84 70
          79 71 35 33 44 25
          44 33 42 25 61 73
          69 71 84 73 70 71
          17 15 18 34 36 22
          35 25 36 50 55 44
          79 81 86 71 2 8
          6 9 18 17 6 15
          27 22 18 8 4 13
          10 9 42 51 43 29
          22 8 10 9 31 11
          28 19 15 9 8 25
          43 59 54 34 78 73
          86 71 86 77 78 71
          41 15 42 25 18 40
          17 34 54 63 81 71
          70 73 48 71 3 2
          6 9 17 34 45 29
          74 65 64 72 64 55
          60 72 64 65 55 72
          57 61 67 66 69 76
          67 66 67 61 69 66
          21 26 19 16 77 86
          82 87 24 33 35 25
          20 26 31 38 35 22
          24 25 55 68 60 72
          17 16 15 29 76 82
          77 78 77 66 69 61
          77 72 68 63 61 78
          77 71 48 40 54 71
          30 16 37 29 58 51
          41 29 61 63 54 71
          67 58 59 51 59 58
          45 51 37 26 21 16
          23 9 20 16 50 36
          55 52 43 48 18 34
          85 65 80 83 42 15
          43 25 61 59 43 51
          30 38 37 16 45 58
          47 29 43 34 15 29
          62 54 55 63 81 54
          62 63 55 72 65 63
          31 11 19 20 42 33
          41 25 3 9 6 16
          55 65 62 63 62 65
          81 63 48 40 18 34
          74 85 65 72 79 48
          62 71 11 5 1 12
          53 73 59 34 44 39
          36 25 62 80 81 65
          30 41 23 29 53 45
          32 34 3 6 21 16
          12 7 1 4 85 74
          65 83 18 15 8 25
          18 34 15 25 68 61
          66 77 6 15 17 16
          63 72 81 85 47 58
          41 29 47 37 45 29
          20 9 11 16 5 7
          1 12 69 77 78 76
          30 37 47 29 37 38
          26 16 11 3 19 16
          51 34 43 29 6 9
          15 16
        </DataArray>
        <DataArray type="Int64" Name="offsets" format="ascii" RangeMin="4" RangeMax="956">
          4 8 12 16 20 24
          28 32 36 40 44 48
          52 56 60 64 68 72
          76 80 84 88 92 96
          100 104 108 112 116 120
          124 128 132 136 140 144
          148 152 156 160 164 168
          172 176 180 184 188 192
          196 200 204 208 212 216
          220 224 228 232 236 240
          244 248 252 256 260 264
          268 272 276 280 284 288
          292 296 300 304 308 312
          316 320 324 328 332 336
          340 344 348 352 356 360
          364 368 372 376 380 384
          388 392 396 400 404 408
          412 416 420 424 428 432
          436 440 444 448 452 456
          460 464 468 472 476 480
          484 488 492 496 500 504
          508 512 516 520 524 528
          532 536 540 544 548 552
          556 560 564 568 572 576
          580 584 588 592 596 600
          604 608 612 616 620 624
          628 632 636 640 644 648
          652 656 660 664 668 672
          676 680 684 688 692 696
          700 704 708 712 716 720
          724 728 732 736 740 744
          748 752 756 760 764 768
          772 776 780 784 788 792
          796 800 804 808 812 816
          820 824 828 832 836 840
          844 848 852 856 860 864
          868 872 876 880 884 888
          892 896 900 904 908 912
          916 920 924 928 932 936
          940 944 948 952 956
        </DataArray>
        <DataArray type="UInt8" Name="types" format="ascii" RangeMin="10" RangeMax="10">
          10 10 10 10 10 10
          10 10 10 10 10 10
          10 10 10 10 10 10
          10 10 10 10 10 10
          10 10 10 10 10 10
          10 10 10 10 10 10
          10 10 10 10 10 10
          10 10 10 10 10 10
          10 10 10 10 10 10
          10 10 10 10 10 10
          10 10 10 10 10 10
          10 10 10 10 10 10
          10 10 10 10 10 10
          10 10 10 10 10 10
          10 10 10 10 10 10
          10 10 10 10 10 10
          10 10 10 10 10 10
          10 10 10 10 10 10
          10 10 10 10 10 10
          10 10 10 10 10 10
          10 10 10 10 10 10
          10 10 10 10 10 10
          10 10 10 10 10 10
          10 10 10 10 10 10
          10 10 10 10 10 10
          10 10 10 10 10 10
          10 10 10 10 10 10
          10 10 10 10 10 10
          10 10 10 10 10 10
          10 10 10 10 10 10
          10 10 10 10 10 10
          10 10 10 10 10 10
          10 10 10 10 10 10
          10 10 10 10 10 10
          10 10 10 10 10 10
          10 10 10 10 10 10
          10 10 10 10 10 10
          10 10 10 10 10 10
          10 10 10 10 10 10
          10 10 10 10 10
        </DataArray>
      </Cells>
    </Piece>
  </UnstructuredGrid>
</VTKFile>
