<?xml version="1.0"?>
<VTKFile type="UnstructuredGrid" version="0.1" byte_order="LittleEndian" header_type="UInt32" compressor="vtkZLibDataCompressor">
  <UnstructuredGrid>
    <Piece NumberOfPoints="88" NumberOfCells="239">
      <PointData>
        <DataArray type="Float64" Name="nsi_BC" NumberOfComponents="3" format="ascii" RangeMin="0" RangeMax="1">
          1 0 0 1 0 0
          1 0 0 1 0 0
          1 0 0 0 0 0
          1 0 0 0 0 0
          1 0 0 0 0 0
          1 0 0 0 0 0
          0 0 0 0 0 0
          1 0 0 0 0 0
          0 0 0 1 0 0
          1 0 0 1 0 0
          0 0 0 1 0 0
          1 0 0 0 0 0
          0 0 0 0 0 0
          1 0 0 1 0 0
          0 0 0 0 0 0
          0 0 0 0 0 0
          1 0 0 0 0 0
          0 0 0 0 0 0
          1 0 0 1 0 0
          0 0 0 1 0 0
          1 0 0 0 0 0
          0 0 0 0 0 0
          0 0 0 1 0 0
          0 0 0 0 0 0
          1 0 0 0 0 0
          0 0 0 0 0 0
          1 0 0 1 0 0
          0 0 0 0 0 0
          1 0 0 0 0 0
          0 0 0 1 0 0
          0 0 0 0 0 0
          1 0 0 0 0 0
          0 0 0 1 0 0
          0 0 0 0 0 0
          0 0 0 1 0 0
          1 0 0 0 0 0
          0 0 0 1 0 0
          0 0 0 1 0 0
          0 0 0 0 0 0
          1 0 0 1 0 0
          1 0 0 1 0 0
          0 0 0 0 0 0
          1 0 0 0 0 0
          1 0 0 0 0 0
          <InformationKey name="L2_NORM_RANGE" location="vtkDataArray" length="2">
            <Value index="0">
              0
            </Value>
            <Value index="1">
              1
            </Value>
          </InformationKey>
        </DataArray>
        <DataArray type="Float64" Name="nsi_FIXNO" NumberOfComponents="3" format="ascii" RangeMin="1.7320508075688772" RangeMax="1.7320508075688772">
          1 1 1 1 1 1
          1 1 1 1 1 1
          1 1 1 1 1 1
          1 1 1 1 1 1
          1 1 1 -1 -1 -1
          1 1 1 1 1 1
          1 1 1 1 1 1
          1 1 1 -1 -1 -1
          -1 -1 -1 1 1 1
          1 1 1 1 1 1
          1 1 1 1 1 1
          1 1 1 1 1 1
          1 1 1 -1 -1 -1
          1 1 1 1 1 1
          1 1 1 -1 -1 -1
          1 1 1 1 1 1
          1 1 1 1 1 1
          -1 -1 -1 1 1 1
          1 1 1 1 1 1
          1 1 1 1 1 1
          1 1 1 1 1 1
          1 1 1 1 1 1
          1 1 1 1 1 1
          1 1 1 1 1 1
          1 1 1 1 1 1
          1 1 1 1 1 1
          1 1 1 1 1 1
          1 1 1 1 1 1
          1 1 1 1 1 1
          1 1 1 1 1 1
          1 1 1 1 1 1
          1 1 1 1 1 1
          1 1 1 1 1 1
          1 1 1 1 1 1
          1 1 1 1 1 1
          1 1 1 -1 -1 -1
          1 1 1 1 1 1
          1 1 1 1 1 1
          1 1 1 1 1 1
          1 1 1 1 1 1
          1 1 1 1 1 1
          1 1 1 1 1 1
          1 1 1 1 1 1
          1 1 1 1 1 1
          <InformationKey name="L2_NORM_RANGE" location="vtkDataArray" length="2">
            <Value index="0">
              1.7320508076
            </Value>
            <Value index="1">
              1.7320508076
            </Value>
          </InformationKey>
        </DataArray>
        <DataArray type="Float64" Name="tem_BC" format="ascii" RangeMin="0" RangeMax="12">
          0 0 0 0 0 12
          0 12 0 0 0 12
          12 12 0 0 0 0
          0 0 12 0 0 12
          12 0 0 0 12 0
          12 12 0 12 0 12
          0 0 12 0 0 12
          12 12 12 0 12 12
          0 12 12 12 0 0
          12 12 0 12 12 0
          12 12 0 12 12 0
          12 12 12 0 0 0
          12 0 12 7.64356 12 12
          0 7.64356 8.129456 8.136573 12 12
          7.64356 12 8.129456 12
        </DataArray>
        <DataArray type="Float64" Name="tem_FIXNO" format="ascii" RangeMin="-1" RangeMax="1">
          -1 -1 -1 -1 -1 1
          -1 1 -1 -1 -1 1
          1 1 -1 -1 -1 -1
          -1 -1 1 -1 -1 1
          1 -1 -1 -1 1 -1
          1 1 -1 1 -1 1
          -1 -1 1 -1 -1 1
          1 1 1 -1 1 1
          -1 1 1 1 -1 -1
          1 1 -1 1 1 -1
          1 1 -1 1 1 -1
          1 1 1 -1 -1 -1
          1 -1 1 1 1 1
          -1 1 1 1 1 1
          1 1 1 1
        </DataArray>
        <DataArray type="Float64" Name="Velocity" NumberOfComponents="3" format="ascii" RangeMin="0" RangeMax="1.0000000000000002">
          1 0 0 1 0 0
          1 0 0 1 0 0
          1 0 0 0 0 0
          1 0 0 0 0 0
          1 0 0 0.8476186768650912 0.10421203017747849 0.07132967519615983
          1 0 0 0 0 0
          0 0 0 0 0 0
          1 0 0 0.8881372638943734 0.031695843828425704 0.01156426971403518
          0.8184990240731346 0.09432854549453074 -0.020426336648127374 1 0 0
          1 0 0 1 0 0
          0 0 0 1 0 0
          1 0 0 0 0 0
          0 0 0 0.5984065135027439 0.1415784418214286 -0.11345220908236586
          1 0 0 1.0000000000000002 0 0
          0 0 0 0.656379233787022 0.15623674947075095 0.012935660865315349
          0 0 0 0 0 0
          1 0 0 0 0 0
          0.7816224622829139 -0.0546344981022657 0.09831856231966238 0 0 0
          1 0 0 1 0 0
          0 0 0 1 0 0
          1 0 0 0 0 0
          0 0 0 0 0 0
          0 0 0 1 0 0
          0 0 0 0 0 0
          1 0 0 0 0 0
          0 0 0 0 0 0
          1 0 0 1 0 0
          0 0 0 0 0 0
          1 0 0 0 0 0
          0 0 0 1 0 0
          0 0 0 0 0 0
          1 0 0 0 0 0
          0 0 0 1 0 0
          0 0 0 0 0 0
          0 0 0 1 0 0
          1 0 0 0.7487847015102557 0.04056842173080891 -0.144334527582163
          0 0 0 1 0 0
          0 0 0 1 0 0
          0 0 0 0 0 0
          1 0 0 1 0 0
          1 0 0 1 0 0
          0 0 0 0 0 0
          1 0 0 0 0 0
          1 0 0 0 0 0
          <InformationKey name="L2_NORM_RANGE" location="vtkDataArray" length="2">
            <Value index="0">
              0
            </Value>
            <Value index="1">
              1
            </Value>
          </InformationKey>
        </DataArray>
        <DataArray type="Float64" Name="Pressure" format="ascii" RangeMin="0" RangeMax="9.57798188564379">
          0 7.815422108275403 7.474518167794134 8.29925390335513 8.245643424160612 8.223331843824143
          8.58721749101078 8.499659706436212 8.636541232222482 8.719144977099607 8.79823402802856 8.751710595775522
          8.730240799484799 8.753064361673108 8.698699035618262 8.956305481174411 8.830472096575248 8.899038747287042
          9.036942262039043 8.812654141549354 8.827475324040762 8.8055045982342 9.06554521588805 8.983746349198226
          9.081551503902485 9.127431297320072 8.862567627966499 9.16235388465861 8.862690969705952 9.110920345922759
          9.01096741624977 8.883663983492989 8.973065777732211 9.320643370891624 9.13863539936197 9.320681395645188
          9.255813389527052 8.957803403915571 8.985586116931081 9.318343782633885 9.298266765921404 9.32064319264567
          9.32069196150906 9.319364402338005 9.320741750516724 9.152304286104338 9.320684623822226 9.118001558912129
          9.367908010533068 9.32074310755811 9.320735692038022 9.320753229200989 9.300945910013215 9.255043392611729
          9.42421239532225 9.320833846037488 9.414207615924816 9.32075522880463 9.320705942388287 9.257715173103158
          9.320829669326061 9.320864967748816 9.46387167849978 9.320924058352801 9.320900376590503 9.326889593809115
          9.32084077101524 9.320754945672977 9.32090386951473 9.331378246915753 9.504248643138434 9.442210910408892
          9.320892567084002 9.486837398776009 9.330709171928905 9.44741735600499 9.34417243421117 9.32090851594252
          9.329680950513783 9.477531411608583 9.384497357085676 9.36062655010627 9.34652906265345 9.309082338219131
          9.57798188564379 9.320884520798062 9.431975523441547 9.370423443858213
        </DataArray>
        <DataArray type="Float64" Name="DISSI_NS" format="ascii" RangeMin="0.00007832060083505644" RangeMax="138.46063550551594">
          19.039013020042777 2.4717137115259384 2.406439225339505 0.991695612283143 0.09155634740906449 22.459753221233942
          0.053500387884710086 13.831852249932865 0.07729876733948544 0.0919023537379328 0.09597737228956504 6.639517713575105
          138.46063550551594 118.57183285884263 0.009773950805047846 0.0265836662650728 0.034490044722629475 0.016528676208149382
          0.056006833697659734 0.04179393069270963 84.18222793714605 0.013741167908077816 0.07434681259276986 102.80396871116513
          27.61528986674213 0.06577085426202259 0.038874383215403575 0.015497340491427744 1.0891735933003506 0.028566391992411552
          62.01066619465278 0.7590827555821605 0.020743664463258964 39.82772989129709 0.045138675366235746 8.404897169806228
          0.07453966027748107 0.029773049520813805 37.06235447000857 0.02374530636731362 0.07440478765893939 18.904521627825904
          0.1547679007974492 87.59147792734022 58.3406223809623 0.03338010240799284 0.00008969189086565023 13.021251092476676
          0.07603918686110754 0.0001451632373526816 8.678722109143937 3.448563095628205 0.2956023777456932 0.015954930201752156
          71.560382563157 89.92714300343573 0.0020455836069148813 0.00013593383295141086 2.993468372684745 0.04105306121898894
          0.05170154813626547 57.35817397003341 0.1126150870183864 0.05048427910500289 0.05816164631079441 0.19287802568233023
          0.1023829605597985 0.277539309796135 0.00007832060083505644 0.19605821589080072 0.01301774147767008 0.09058758242488132
          0.012474666716011823 0.07746189816309265 0.032389545964363574 0.00046372528771160986 0.22743529099376947 0.1878920132030205
          0.08150050354851252 0.01737235492844238 0.06886301630353897 0.1129588715607353 0.244500661378275 0.03518056541688924
          0.029768179170927826 0.10472797083630682 0.059703342138939 0.35419702517303203
        </DataArray>
        <DataArray type="Float64" Name="Temperature" format="ascii" RangeMin="-1.992126330594652" RangeMax="12.000000000000005">
          0.4783006831693379 -1.992126330594652 -0.37932744763060666 -1.3841556096521574 0.28460461738894943 12
          -0.6487156824039825 12 -0.8394696193112008 1.7962501007361331 0.8007510300623178 12
          11.999999999999996 12 0.26741820573529085 2.3872561159282975 1.4775018731725784 -0.42713079884979177
          0.43897591561101545 -1.5313265327769467 12 -0.5968655696199245 0.38804295332041283 12.000000000000004
          11.999999999999998 5.436152060845462 -0.23683703194336148 1.4861697710889759 12 4.389618379315437
          11.999999999999998 12.000000000000002 -0.9527140779221772 11.999999999999998 2.9363604868190074 12.000000000000002
          3.1312888240838324 0.5892609529902435 12.000000000000002 1.6182831443259265 -0.8838970931880357 11.999999999999998
          12 12 11.999999999999998 0.010749175312302068 12.000000000000002 12.000000000000002
          2.734809017084301 11.999999999999998 12.000000000000002 12 4.76551605926527 -0.23617560519302663
          12.000000000000005 12.000000000000002 6.038605452967088 12.000000000000002 12 1.5785955283148487
          12 11.999999999999998 5.112831854424554 12 12 6.762454969425983
          11.999999999999998 12 12.000000000000002 4.079487717078185 5.16080769635122 7.492670037457272
          11.999999999999996 3.80731641406558 11.999999999999998 7.643560000000001 12 11.999999999999998
          7.116725640826308 7.643559999999999 8.129456 8.136573 11.999999999999998 12
          7.643560000000001 12 8.129455999999998 12
        </DataArray>
        <DataArray type="Float64" Name="DISSI_TEMPE" format="ascii" RangeMin="4.8637159141011966e-32" RangeMax="0.79988122129104">
          0.017463852752063667 0.3996648646202677 0.01100646700596081 0.23046391522329518 0.23978211179523262 0.4645188348464283
          0.011821756630974904 0.6420886739650098 0.06923272767068903 0.28101050586565696 0.35936372008291356 0.5174352976051334
          0.47116829563139184 0.5716143411760459 0.010738138348350445 0.1671857421886907 0.23363026029956205 0.036492206751648264
          0.23082455505846017 0.3049859471630133 0.4436196395014257 0.007327787725791109 0.22116608951384029 0.41143861496654655
          0.46656714149046236 0.4547173533511215 0.4174560570480453 0.01560208501391317 0.4159576143401957 0.30166688204048453
          0.45960863792957196 0.5929522165719008 0.02744914226983387 0.2429219335093337 0.2604424950032867 0.3805904146155141
          0.40628917492603994 0.25056960970077896 0.6185291575772401 0.1693354470041725 0.21228007864989337 0.28867918776418827
          0.3665561091780153 0.4433345874221325 0.30376694590885733 0.23275001045266755 9.89860825479e-32 0.47280173011503684
          0.1872998321043202 7.389434431730183e-32 0.3982561536278958 0.37282014229825455 0.5208344764986614 0.05381141426148545
          0.33139495091843424 0.3288869532671934 0.028203161465400806 4.8637159141011966e-32 0.3800251296133937 0.285764941771888
          0.79988122129104 0.3366147886510145 0.15093863527840096 0.11598221142865953 0.555999546429982 0.16361931798048046
          0.47817266250997426 0.5531261773464661 2.685539737069452e-31 0.5148629288664828 0.06284708681680251 0.19410833595446714
          0.14045718998876316 0.18833995452762964 0.11253969179779492 0.013752169477155903 0.24320816148488855 0.09806996113445335
          0.2002004501349947 0.01794110956365314 0.06699370122518888 0.08758413933514796 0.13687966146783256 0.13393924604755977
          0.03779998570933203 0.0753135210189932 0.05659534751877243 0.017640199855811754
        </DataArray>
        <DataArray type="Float64" Name="CN2" format="ascii" RangeMin="0" RangeMax="6.958589852557761e-11">
          0 2.494081763615916e-11 1.4489878603563805e-12 1.1751712350617748e-11 1.762907336380133e-11 4.251780886533738e-11
          3.1156821243101555e-12 4.100283890454489e-11 5.891023859194961e-12 2.5945570508389938e-11 1.9298826475669835e-11 3.6709548555143417e-11
          6.734235130642637e-11 5.115875284536636e-11 0 1.2056041241224283e-11 2.1210157635553225e-11 7.894188959045562e-12
          1.4923805792199133e-11 2.4977677185025702e-11 6.958589852557761e-11 2.320584482910892e-12 1.3607119120810423e-11 4.354041086708596e-11
          2.8440309492196138e-11 2.2320765686138886e-11 2.6160399044568292e-11 0 4.374391505840922e-11 2.2663742479621163e-11
          5.522704829698384e-11 4.1363043785025e-11 3.8481137495683684e-12 1.9432766071607896e-11 1.7141961310682268e-11 2.0518907148508727e-11
          5.265836258704756e-11 1.8018802729387643e-11 5.0764832318958613e-11 3.202130991086139e-11 1.289255636908353e-11 2.07247534277272e-11
          1.46171754068903e-11 3.55398607295291e-11 3.771738632429445e-11 1.7624428992429996e-11 0 3.269854454958316e-11
          1.668693788779929e-11 0 3.460238791764725e-11 2.9692481329508696e-11 5.742459840705661e-11 7.74196643963086e-12
          2.6844545429160587e-11 4.2186376487815504e-11 0 0 2.147517031662962e-11 3.781652604491123e-11
          1.559550706889079e-11 4.8558815528119995e-11 1.2805041539593449e-11 4.160604819425989e-12 1.4885182531183563e-11 9.43333091145315e-12
          2.5676847963920597e-11 3.438513115274588e-11 0 6.740846051301226e-11 7.129140828462913e-12 9.830383411019136e-12
          4.788670217473289e-12 1.5013701373855896e-11 8.622951152185036e-12 0 2.4810830437136468e-11 1.0571899675213948e-11
          2.5003412918415066e-11 3.2332687475094324e-12 2.039444586976889e-12 4.028849447839826e-12 5.545069300673025e-12 6.200617731593998e-12
          4.98624954246468e-12 3.717647699176969e-12 3.446004626751947e-12 2.0141925152990626e-12
        </DataArray>
        <DataArray type="Float64" Name="CT2" format="ascii" RangeMin="0" RangeMax="73.7027815007813">
          0 21.60118063019315 1.2850982408488194 10.269619853880398 15.78765312861118 45.033817252488774
          2.75231778550372 43.42895834361731 5.189425929176294 23.753330019552212 17.413668404550705 38.88143995977882
          71.32663888133365 54.18551852618935 0 11.132534683305607 19.328097576687362 6.996200684123895
          13.394955595655533 21.780096813300002 73.7027815007813 2.0514995765350736 12.204056068132052 46.11623084368987
          30.12275921097136 21.538413802534016 23.249366520390826 0 46.3318863636783 21.542606383313146
          58.494209653014074 43.81013994634115 3.38416034545597 20.58225612720246 15.955365184749422 21.732644776534457
          49.15171291833874 16.20848016463039 53.76804199150998 29.239528470508386 11.34954323951009 21.95066732405862
          15.481812865955062 37.64212116145085 39.94845105361374 15.7200726294676 0 34.632874382315926
          15.48646303553236 0 36.649193778928264 31.448855617439687 54.88000791662988 6.880481724299292
          28.43239934201344 44.6817915392895 0 0 22.745472963052247 34.511393165714026
          16.51801491083649 51.43117404498033 12.2988753810481 4.4067135497466765 15.765673124114178 9.27723930260157
          27.19568883292007 36.41908579387178 0 63.78768723435528 6.85205336948851 9.76897653880026
          5.071930371125414 14.151502438151955 9.133015485620632 0 26.278432242640726 11.197250299353207
          24.714408715620884 3.21998512361543 2.045164569449301 4.040559911180155 5.873069077650202 6.567399171817466
          4.965753963041788 3.9375545655309967 3.455666274161592 2.1333342261320785
        </DataArray>
      </PointData>
      <CellData>
        <DataArray type="UInt8" Name="vtkGhostType" format="ascii" RangeMin="0" RangeMax="0">
          0 0 0 0 0 0
          0 0 0 0 0 0
          0 0 0 0 0 0
          0 0 0 0 0 0
          0 0 0 0 0 0
          0 0 0 0 0 0
          0 0 0 0 0 0
          0 0 0 0 0 0
          0 0 0 0 0 0
          0 0 0 0 0 0
          0 0 0 0 0 0
          0 0 0 0 0 0
          0 0 0 0 0 0
          0 0 0 0 0 0
          0 0 0 0 0 0
          0 0 0 0 0 0
          0 0 0 0 0 0
          0 0 0 0 0 0
          0 0 0 0 0 0
          0 0 0 0 0 0
          0 0 0 0 0 0
          0 0 0 0 0 0
          0 0 0 0 0 0
          0 0 0 0 0 0
          0 0 0 0 0 0
          0 0 0 0 0 0
          0 0 0 0 0 0
          0 0 0 0 0 0
          0 0 0 0 0 0
          0 0 0 0 0 0
          0 0 0 0 0 0
          0 0 0 0 0 0
          0 0 0 0 0 0
          0 0 0 0 0 0
          0 0 0 0 0 0
          0 0 0 0 0 0
          0 0 0 0 0 0
          0 0 0 0 0 0
          0 0 0 0 0 0
          0 0 0 0 0
        </DataArray>
      </CellData>
      <Points>
        <DataArray type="Float32" Name="Points" NumberOfComponents="3" format="ascii" RangeMin="0" RangeMax="24.49489742783178">
          20 10 10 20 6.5 10
          16 10 10 20 10 5
          16.37211036682129 5.206768989562988 10 20 3 10
          14.333330154418945 10 5.767949104309082 17.5 2.625 10
          12 10 10 14.425399780273438 5.033590793609619 7.012404918670654
          13.360549926757812 4.658843994140625 10 20 3 5
          16.25 2.4375 7.37460994720459 15 2.25 10
          20 10 0 12.214110374450684 6.010365009307861 4.925261974334717
          14.570380210876465 5.105739116668701 2.9404709339141846 12 10 3.0717968940734863
          10 10 6.535898208618164 20 6.5 0
          16.344310760498047 2.451646089553833 3.285098075866699 16 10 0
          10.119270324707031 5.519060134887695 10 13.631239891052246 2.0446860790252686 6.215021133422852
          12.5 1.875 10 10.550640106201172 4.647356033325195 7.100153923034668
          16.37211036682129 5.206768989562988 0 8 10 10
          20 3 0 11.739009857177734 4.367464065551758 2.512845993041992
          13.663330078125 2.049499034881592 2.55780291557312 17.5 2.625 0
          12 10 0 10.661359786987305 1.5992039442062378 6.873061180114746
          9.59029769897461 6.954894065856934 2.912667989730835 10 1.5 10
          8.36054801940918 3.908843994140625 10 13.360549926757812 4.658843994140625 0
          15 2.25 0 6.61377477645874 6.690732002258301 10
          8 10 3.0717968940734863 10.999679565429688 1.6499520540237427 3.4145760536193848
          9 3 5 8 4.732050895690918 5
          8 3 6.732050895690918 10.596699714660645 5.428274154663086 0
          9 1.350000023841858 5 12.5 1.875 0
          5.6666669845581055 10 5.767949104309082 7.9958391189575195 1.1993759870529175 6.734446048736572
          7.5 1.125 10 8 3 3.267949104309082
          5.86054801940918 3.533843994140625 10 8 10 0
          6 4.732050895690918 5 6 3 6.732050895690918
          4 10 10 7.995840072631836 1.1993759870529175 3.2655539512634277
          10 1.5 0 7.719629764556885 4.535800933837891 0
          6.004158973693848 0.9006239175796509 6.734445095062256 6 3 3.267949104309082
          3.305811882019043 6.3972368240356445 10 5 3 5
          5 0.75 10 3.3605480194091797 3.158843994140625 10
          6.004159927368164 0.9006239771842957 3.2655539512634277 7.5 1.125 0
          5 0.75 5 5.535371780395508 3.26835298538208 0
          4 10 0 3.0012240409851074 5.308693885803223 3.156306028366089
          3.720721960067749 0.5581083297729492 6.921747207641602 4.087935924530029 6.566143035888672 0
          2.5 0.375 10 0 10 10
          5 0.75 0 3.3971519470214844 0.5095726847648621 3.1724090576171875
          3.3605480194091797 3.158843994140625 0 0 10 5
          0 5 10 0 4.949490070343018 5.050509929656982
          2.5 0.375 0 0 0 10
          0 10 0 0 0 5
          0 5 0 0 0 0
          <InformationKey name="L2_NORM_RANGE" location="vtkDataArray" length="2">
            <Value index="0">
              0
            </Value>
            <Value index="1">
              24.494897428
            </Value>
          </InformationKey>
        </DataArray>
      </Points>
      <Cells>
        <DataArray type="Int64" Name="connectivity" format="ascii" RangeMin="0" RangeMax="87">
          16 20 19 11 53 40
          70 73 81 63 77 71
          69 59 61 51 62 55
          52 65 66 77 69 76
          55 68 72 63 79 62
          75 80 52 55 64 65
          10 8 2 9 32 37
          21 16 47 41 30 29
          15 9 23 16 54 48
          34 40 44 42 43 25
          43 39 44 25 41 15
          23 29 62 54 81 71
          77 69 78 61 32 17
          53 34 39 54 62 48
          59 73 54 34 19 3
          21 16 11 1 4 12
          79 56 75 62 45 17
          32 34 54 59 61 73
          23 33 24 25 18 22
          39 25 23 10 24 13
          24 10 23 25 39 48
          56 27 46 42 44 33
          4 11 12 9 64 60
          52 50 40 73 54 71
          23 15 41 25 44 35
          36 50 39 18 43 48
          10 9 23 25 43 54
          39 48 23 16 30 29
          85 81 65 72 60 50
          49 55 21 17 32 16
          49 35 44 50 81 62
          79 80 39 22 36 25
          26 38 20 16 81 85
          65 80 81 63 65 72
          8 9 22 25 20 38
          30 16 46 44 49 33
          20 16 19 26 70 40
          48 73 7 4 12 13
          61 59 69 73 45 51
          58 29 52 39 36 55
          69 73 78 71 36 35
          44 25 42 15 41 29
          19 21 3 14 77 63
          61 71 78 82 77 86
          40 73 53 34 18 48
          39 27 68 61 77 63
          17 40 53 34 23 13
          12 9 49 50 44 55
          17 37 32 16 48 54
          34 43 81 77 63 85
          18 8 22 25 44 35
          49 33 36 39 44 55
          61 54 43 59 86 73
          84 71 59 45 53 34
          11 9 3 16 10 13
          23 9 52 50 60 55
          11 1 3 9 77 72
          63 85 86 81 77 71
          6 17 21 16 4 1
          11 9 54 73 61 71
          39 62 56 48 43 15
          42 29 70 48 79 71
          67 59 69 51 4 2
          3 9 37 16 17 29
          43 34 18 25 43 18
          39 25 52 62 39 55
          86 84 79 71 15 34
          17 29 12 13 4 9
          32 17 45 37 3 1
          4 9 45 34 51 29
          79 62 81 71 69 78
          61 71 45 37 17 29
          48 73 40 71 57 58
          67 51 10 2 4 9
          6 8 18 15 31 26
          20 19 67 61 57 51
          54 73 40 34 62 48
          54 71 18 27 39 22
          11 20 12 9 41 58
          57 51 56 62 79 48
          46 41 57 51 41 42
          46 33 47 37 30 38
          46 42 41 51 3 2
          4 1 43 51 59 34
          23 20 30 16 77 86
          85 81 8 15 6 9
          0 2 3 1 24 22
          10 25 41 33 23 25
          87 85 77 86 69 61
          67 51 52 60 64 55
          59 51 45 34 41 51
          42 29 39 55 62 54
          12 20 23 9 15 34
          43 25 15 16 23 29
          22 9 10 25 44 39
          43 54 44 55 39 54
          23 9 15 25 84 70
          79 71 35 33 44 25
          44 33 42 25 61 73
          69 71 84 73 70 71
          17 15 18 34 36 22
          35 25 36 50 55 44
          79 81 86 71 2 8
          6 9 18 17 6 15
          27 22 18 8 4 13
          10 9 42 51 43 29
          22 8 10 9 31 11
          28 19 15 9 8 25
          43 59 54 34 78 73
          86 71 86 77 78 71
          41 15 42 25 18 40
          17 34 54 63 81 71
          70 73 48 71 3 2
          6 9 17 34 45 29
          74 65 64 72 64 55
          60 72 64 65 55 72
          57 61 67 66 69 76
          67 66 67 61 69 66
          21 26 19 16 77 86
          82 87 24 33 35 25
          20 26 31 38 35 22
          24 25 55 68 60 72
          17 16 15 29 76 82
          77 78 77 66 69 61
          77 72 68 63 61 78
          77 71 48 40 54 71
          30 16 37 29 58 51
          41 29 61 63 54 71
          67 58 59 51 59 58
          45 51 37 26 21 16
          23 9 20 16 50 36
          55 52 43 48 18 34
          85 65 80 83 42 15
          43 25 61 59 43 51
          30 38 37 16 45 58
          47 29 43 34 15 29
          62 54 55 63 81 54
          62 63 55 72 65 63
          31 11 19 20 42 33
          41 25 3 9 6 16
          55 65 62 63 62 65
          81 63 48 40 18 34
          74 85 65 72 79 48
          62 71 11 5 1 12
          53 73 59 34 44 39
          36 25 62 80 81 65
          30 41 23 29 53 45
          32 34 3 6 21 16
          12 7 1 4 85 74
          65 83 18 15 8 25
          18 34 15 25 68 61
          66 77 6 15 17 16
          63 72 81 85 47 58
          41 29 47 37 45 29
          20 9 11 16 5 7
          1 12 69 77 78 76
          30 37 47 29 37 38
          26 16 11 3 19 16
          51 34 43 29 6 9
          15 16
        </DataArray>
        <DataArray type="Int64" Name="offsets" format="ascii" RangeMin="4" RangeMax="956">
          4 8 12 16 20 24
          28 32 36 40 44 48
          52 56 60 64 68 72
          76 80 84 88 92 96
          100 104 108 112 116 120
          124 128 132 136 140 144
          148 152 156 160 164 168
          172 176 180 184 188 192
          196 200 204 208 212 216
          220 224 228 232 236 240
          244 248 252 256 260 264
          268 272 276 280 284 288
          292 296 300 304 308 312
          316 320 324 328 332 336
          340 344 348 352 356 360
          364 368 372 376 380 384
          388 392 396 400 404 408
          412 416 420 424 428 432
          436 440 444 448 452 456
          460 464 468 472 476 480
          484 488 492 496 500 504
          508 512 516 520 524 528
          532 536 540 544 548 552
          556 560 564 568 572 576
          580 584 588 592 596 600
          604 608 612 616 620 624
          628 632 636 640 644 648
          652 656 660 664 668 672
          676 680 684 688 692 696
          700 704 708 712 716 720
          724 728 732 736 740 744
          748 752 756 760 764 768
          772 776 780 784 788 792
          796 800 804 808 812 816
          820 824 828 832 836 840
          844 848 852 856 860 864
          868 872 876 880 884 888
          892 896 900 904 908 912
          916 920 924 928 932 936
          940 944 948 952 956
        </DataArray>
        <DataArray type="UInt8" Name="types" format="ascii" RangeMin="10" RangeMax="10">
          10 10 10 10 10 10
          10 10 10 10 10 10
          10 10 10 10 10 10
          10 10 10 10 10 10
          10 10 10 10 10 10
          10 10 10 10 10 10
          10 10 10 10 10 10
          10 10 10 10 10 10
          10 10 10 10 10 10
          10 10 10 10 10 10
          10 10 10 10 10 10
          10 10 10 10 10 10
          10 10 10 10 10 10
          10 10 10 10 10 10
          10 10 10 10 10 10
          10 10 10 10 10 10
          10 10 10 10 10 10
          10 10 10 10 10 10
          10 10 10 10 10 10
          10 10 10 10 10 10
          10 10 10 10 10 10
          10 10 10 10 10 10
          10 10 10 10 10 10
          10 10 10 10 10 10
          10 10 10 10 10 10
          10 10 10 10 10 10
          10 10 10 10 10 10
          10 10 10 10 10 10
          10 10 10 10 10 10
          10 10 10 10 10 10
          10 10 10 10 10 10
          10 10 10 10 10 10
          10 10 10 10 10 10
          10 10 10 10 10 10
          10 10 10 10 10 10
          10 10 10 10 10 10
          10 10 10 10 10 10
          10 10 10 10 10 10
          10 10 10 10 10 10
          10 10 10 10 10
        </DataArray>
      </Cells>
    </Piece>
  </UnstructuredGrid>
</VTKFile>
