<?xml version="1.0"?>
<VTKFile type="UnstructuredGrid" version="0.1" byte_order="LittleEndian" header_type="UInt32" compressor="vtkZLibDataCompressor">
  <UnstructuredGrid>
    <Piece NumberOfPoints="24" NumberOfCells="28">
      <PointData>
        <DataArray type="Float64" Name="Velocity" NumberOfComponents="3" format="ascii" RangeMin="2.6677841329462924" RangeMax="2.900828024582285">
          2.9 0 0 2.9 0 0
          2.6193 -0.5063 0 2.8820945904991584 -0.0990401141150647 0
          2.9 0 0 2.900828024582285 0 0
          2.6193 -0.5063 0 2.884605694535889 -0.10350479172602846 0
          2.900022093479608 0 0 2.6193 -0.5063 0
          2.884377507544815 -0.10264256066694129 0 2.9000483892894984 0 0
          2.6193 -0.5063 0 2.8843953651910565 -0.1026675045315847 0
          2.900128655600616 0 0 2.6193 -0.5063 0
          2.8844763796556188 -0.10274935276950321 0 2.9001648514832943 0 0
          2.6193 -0.5063 0 2.884697355922767 -0.10215397184923639 0
          2.899849587126968 0 0 2.6193 -0.5063 0
          2.89089089335216 -0.09028381929221856 0 2.8986913291191967 0.015182704818082197 0
          <InformationKey name="L2_NORM_RANGE" location="vtkDataArray" length="2">
            <Value index="0">
              2.6677841329
            </Value>
            <Value index="1">
              2.9008280246
            </Value>
          </InformationKey>
        </DataArray>
        <DataArray type="Float64" Name="Pressure" format="ascii" RangeMin="0.7073778201258614" RangeMax="1.5457895999999995">
          0.72124 0.72124 1.5457895999999995 0.820097235647966 0.72124 0.7193098994445327
          1.5457895999999995 0.8246433188518388 0.7169376616221605 1.5457895999999995 0.8238782825863524 0.7170870462666125
          1.5457895999999995 0.8239273689057753 0.7171902820897359 1.5457895999999995 0.8240476735957072 0.7172685427365595
          1.5457895999999995 0.8234745465944413 0.7167617295171465 1.5457895999999995 0.8091496383385843 0.7073778201258614
        </DataArray>
        <DataArray type="Float64" Name="Temperature" format="ascii" RangeMin="0.002446715716872649" RangeMax="0.003114">
          0.00247 0.00247 0.003114 0.0026051265495940254 0.00247 0.0024678753503267876
          0.003114 0.0026104263207221536 0.002464975778388051 0.003114 0.0026095123344465738 0.002465184516666152
          0.003114 0.002609566775831877 0.0024653159316003984 0.003114 0.0026096496400033827 0.0024654123306737975
          0.003114 0.0026084681001887987 0.002464062335335418 0.003114 0.002586248849723104 0.002446715716872649
        </DataArray>
        <DataArray type="Float64" Name="Density" format="ascii" RangeMin="0.9901137122498985" RangeMax="1.7">
          1 1 1.7 1.0780866585211655 1 0.998182532300374
          1.7 1.0818619673551177 0.9960608887057923 1.7 1.0812368772956447 0.9961840742974902
          1.7 1.0812787385736202 0.9962743807251531 1.7 1.0814022812480848 0.9963441361914037
          1.7 1.081139658196632 0.9961856167556585 1.7 1.0714593089392024 0.9901137122498985
        </DataArray>
        <DataArray type="Float64" Name="Momentum" NumberOfComponents="3" format="ascii" RangeMin="2.8700734010008047" RangeMax="4.535233026008696">
          2.9 0 0 2.9 0 0
          4.4528099999999995 -0.86071 0 3.107147726613164 -0.10677382568586502 0
          2.9 0 0 2.895555863345437 0 0
          4.4528099999999995 -0.86071 0 3.1207451917343727 -0.11197789760740286 0
          2.8885985836977306 0 0 4.4528099999999995 -0.86071 0
          3.1186953291995505 -0.11098092177315236 0 2.8889820201022864 0 0
          4.4528099999999995 -0.86071 0 3.1188353820213823 -0.11101218979241334 0
          2.8893238803817747 0 0 4.4528099999999995 -0.86071 0
          3.119279337165803 -0.11111338448170499 0 2.8895622437637933 0 0
          4.4528099999999995 -0.86071 0 3.118760713383068 -0.11044271020851179 0
          2.8887884494507206 0 0 4.4528099999999995 -0.86071 0
          3.097471958809739 -0.09673543862723233 0 2.8700340325408003 0.015032604229425785 0
          <InformationKey name="L2_NORM_RANGE" location="vtkDataArray" length="2">
            <Value index="0">
              2.870073401
            </Value>
            <Value index="1">
              4.535233026
            </Value>
          </InformationKey>
        </DataArray>
        <DataArray type="Float64" Name="Energy" format="ascii" RangeMin="5.89915972893746" RangeMax="9.850459752999999">
          5.97846 5.97846 9.850459752999999 6.49937473631439 5.97846 5.968468865380239
          9.850459752999999 6.534573645791052 5.9513808184405494 9.850459752999999 6.529280708064859 5.952342112040018
          9.850459752999999 6.52963422600276 5.953207622390951 9.850459752999999 6.530706410072832 5.953797995182347
          9.850459752999999 6.528826419343811 5.950974358524273 9.850459752999999 6.471214932481694 5.89915972893746
        </DataArray>
        <DataArray type="Float64" Name="TimeAveraDensf" format="ascii" RangeMin="0.9925135513874095" RangeMax="1.7">
          1 1 1.7 1.0469762956920603 1 0.9967723176429574
          1.7 1.0470505129351448 0.9960483536141619 1.7 1.046811606218695 0.9961680782230484
          1.7 1.046847896609431 0.9961968418599509 1.7 1.0469083021025738 0.9962107311704353
          1.7 1.0466559648303049 0.9959742138856501 1.7 1.0404084052120977 0.9925135513874095
        </DataArray>
        <DataArray type="Float64" Name="TimeAveraVeloc" NumberOfComponents="3" format="ascii" RangeMin="2.6677841329462924" RangeMax="2.9003116495163774">
          2.9000000000000004 0 0 2.9000000000000004 0 0
          2.6193 -0.5063000000000001 0 2.8901460829057446 -0.06052350613311395 0
          2.9000000000000004 0 0 2.9003116495163774 0 0
          2.6193 -0.5063000000000001 0 2.8910313604691753 -0.0603735897946777 0
          2.89998077693769 0 0 2.6193 -0.5063000000000001 0
          2.8909195166675685 -0.06003222500818829 0 2.900035984003753 0 0
          2.6193 -0.5063000000000001 0 2.890938705172693 -0.06006923647669622 0
          2.900066004116723 0 0 2.6193 -0.5063000000000001 0
          2.890983582541463 -0.060102971407589044 0 2.90007273058025 0 0
          2.6193 -0.5063000000000001 0 2.891111617072601 -0.05961389995800968 0
          2.899867197862355 0 0 2.6193 -0.5063000000000001 0
          2.894789345876653 -0.05148096421927749 0 2.8990452147050396 0.010881487366683117 0
          <InformationKey name="L2_NORM_RANGE" location="vtkDataArray" length="2">
            <Value index="0">
              2.6677841329
            </Value>
            <Value index="1">
              2.9003116495
            </Value>
          </InformationKey>
        </DataArray>
        <DataArray type="Float64" Name="TimeAveraPress" format="ascii" RangeMin="0.7114160574561873" RangeMax="1.5457895999999995">
          0.72124 0.72124 1.5457895999999995 0.7808086451793921 0.72124 0.7178720209468595
          1.5457895999999995 0.780826117023745 0.7170733601801406 1.5457895999999995 0.7805353964330841 0.7172099152166574
          1.5457895999999995 0.7805779321466024 0.7172425085963038 1.5457895999999995 0.7806328408562635 0.7172481993902724
          1.5457895999999995 0.7801672297401957 0.7167366848969223 1.5457895999999995 0.7709754582707836 0.7114160574561873
        </DataArray>
        <DataArray type="Float64" Name="TimeAveraTempe" format="ascii" RangeMin="0.0024547181914330264" RangeMax="0.003114">
          0.0024699999999999995 0.0024699999999999995 0.003114 0.002553258494365554 0.0024699999999999995 0.002466425787097407
          0.003114 0.0025530196346905194 0.0024654719803639384 0.003114 0.0025526695431033935 0.0024656453268666356
          0.003114 0.002552719049421299 0.002465686213904224 0.003114 0.002552749355311887 0.0024656714302179025
          0.003114 0.0025518490150678156 0.002464497772295438 0.003114 0.0025371262934701534 0.0024547181914330264
        </DataArray>
      </PointData>
      <CellData>
        <DataArray type="UInt8" Name="vtkGhostType" format="ascii" RangeMin="0" RangeMax="0">
          0 0 0 0 0 0
          0 0 0 0 0 0
          0 0 0 0 0 0
          0 0 0 0 0 0
          0 0 0 0
        </DataArray>
      </CellData>
      <Points>
        <DataArray type="Float32" Name="Points" NumberOfComponents="3" format="ascii" RangeMin="0" RangeMax="4.2201894765504395">
          0 1 0 0 0.5 0
          0.5857142806053162 1 0 0.5857142806053162 0.5 0
          0 0 0 0.5857142806053162 0 0
          1.1714290380477905 1 0 1.1714290380477905 0.5 0
          1.1714290380477905 0 0 1.7571430206298828 1 0
          1.7571430206298828 0.5 0 1.7571430206298828 0 0
          2.3428568840026855 1 0 2.3428568840026855 0.5 0
          2.3428568840026855 0 0 2.9285709857940674 1 0
          2.9285709857940674 0.5 0 2.9285709857940674 0 0
          3.5142860412597656 1 0 3.5142860412597656 0.5 0
          3.5142860412597656 0 0 4.099999904632568 1 0
          4.099999904632568 0.5 0 4.099999904632568 0 0
          <InformationKey name="L2_NORM_RANGE" location="vtkDataArray" length="2">
            <Value index="0">
              0
            </Value>
            <Value index="1">
              4.2201894766
            </Value>
          </InformationKey>
        </DataArray>
      </Points>
      <Cells>
        <DataArray type="Int64" Name="connectivity" format="ascii" RangeMin="0" RangeMax="23">
          5 3 4 3 1 4
          8 7 5 7 3 5
          11 10 8 10 7 8
          14 13 11 13 10 11
          17 16 14 16 13 14
          20 19 17 19 16 17
          23 22 20 22 19 20
          3 2 1 2 0 1
          7 6 3 6 2 3
          10 9 7 9 6 7
          13 12 10 12 9 10
          16 15 13 15 12 13
          19 18 16 18 15 16
          22 21 19 21 18 19
        </DataArray>
        <DataArray type="Int64" Name="offsets" format="ascii" RangeMin="3" RangeMax="84">
          3 6 9 12 15 18
          21 24 27 30 33 36
          39 42 45 48 51 54
          57 60 63 66 69 72
          75 78 81 84
        </DataArray>
        <DataArray type="UInt8" Name="types" format="ascii" RangeMin="5" RangeMax="5">
          5 5 5 5 5 5
          5 5 5 5 5 5
          5 5 5 5 5 5
          5 5 5 5 5 5
          5 5 5 5
        </DataArray>
      </Cells>
    </Piece>
  </UnstructuredGrid>
</VTKFile>
