<?xml version="1.0"?>
<VTKFile type="UnstructuredGrid" version="0.1" byte_order="LittleEndian" header_type="UInt32" compressor="vtkZLibDataCompressor">
  <UnstructuredGrid>
    <Piece NumberOfPoints="24" NumberOfCells="28">
      <PointData>
        <DataArray type="Float64" Name="Velocity" NumberOfComponents="3" format="ascii" RangeMin="2.6677841329462924" RangeMax="2.900262013990739">
          2.9 0 0 2.9 0 0
          2.6193 -0.5063 0 2.890311605475432 -0.06242296824182574 0
          2.9 0 0 2.900262013990739 0 0
          2.6193 -0.5063 0 2.890960600083782 -0.06105857149683479 0
          2.899949230708236 0 0 2.6193 -0.5063 0
          2.8908361798620863 -0.060732306024793486 0 2.9000450757399348 0 0
          2.6193 -0.5063 0 2.890864168905406 -0.06079218561522609 0
          2.90006347951096 0 0 2.6193 -0.5063 0
          2.8909078960065173 -0.0608188338119725 0 2.9000644452164788 0 0
          2.6193 -0.5063 0 2.8910375226227285 -0.06026182882656064 0
          2.8998480937743683 0 0 2.6193 -0.5063 0
          2.8947898687574796 -0.051493973373488724 0 2.8989394788707004 0.011958832339512655 0
          <InformationKey name="L2_NORM_RANGE" location="vtkDataArray" length="2">
            <Value index="0">
              2.6677841329
            </Value>
            <Value index="1">
              2.900262014
            </Value>
          </InformationKey>
        </DataArray>
        <DataArray type="Float64" Name="Pressure" format="ascii" RangeMin="0.710459593756762" RangeMax="1.5457895999999995">
          0.72124 0.72124 1.5457895999999995 0.7823259979844932 0.72124 0.7168072863291122
          1.5457895999999995 0.7811438603217645 0.7161824746313246 1.5457895999999995 0.7808780474244303 0.7163820146583095
          1.5457895999999995 0.780937100868501 0.7163955293223875 1.5457895999999995 0.7809844933400485 0.7163842157044661
          1.5457895999999995 0.7804534199951323 0.7157682945966094 1.5457895999999995 0.7707737834878168 0.710459593756762
        </DataArray>
        <DataArray type="Float64" Name="Temperature" format="ascii" RangeMin="0.0024536998695582997" RangeMax="0.003114">
          0.00247 0.00247 0.003114 0.002556138405792138 0.00247 0.0024653014606971875
          0.003114 0.0025544697945781517 0.0024645849654852726 0.003114 0.0025541339168044684 0.002464829206952162
          0.003114 0.00255420481422144 0.002464845955892268 0.003114 0.002554226243595781 0.0024647999115338156
          0.003114 0.00255322279854995 0.0024634350621953777 0.003114 0.0025375430651524027 0.0024536998695582997
        </DataArray>
        <DataArray type="Float64" Name="Density" format="ascii" RangeMin="0.991596743645279" RangeMax="1.7">
          1 1 1.7 1.048143018063332 1 0.9957481926107378
          1.7 1.0472428416493227 0.9951694674720187 1.7 1.047024148125181 0.9953480983503842
          1.7 1.0470742641197315 0.9953601121114889 1.7 1.0471290223224294 0.9953629867671168
          1.7 1.046828222916069 0.9950582097668822 1.7 1.0402330825714503 0.991596743645279
        </DataArray>
        <DataArray type="Float64" Name="Momentum" NumberOfComponents="3" format="ascii" RangeMin="2.874603406439479" RangeMax="4.535233026008696">
          2.9 0 0 2.9 0 0
          4.4528099999999995 -0.86071 0 3.029459929306494 -0.06542819832945876 0
          2.9 0 0 2.8879306585288567 0 0
          4.4528099999999995 -0.86071 0 3.027537793927971 -0.0639431519213936 0
          2.8859409316198055 0 0 4.4528099999999995 -0.86071 0
          3.0267752885895534 -0.0635881909792872 0 2.8865543512681398 0 0
          4.4528099999999995 -0.86071 0 3.026949472326727 -0.06365393301729298 0
          2.886607510096464 0 0 4.4528099999999995 -0.86071 0
          3.0271535587694958 -0.06368516598832108 0 2.886616808007796 0 0
          4.4528099999999995 -0.86071 0 3.0264196721908254 -0.06308378318018082 0
          2.885517652787029 0 0 4.4528099999999995 -0.86071 0
          3.011256188574197 -0.05356573465615636 0 2.8745789472729286 0.011858339205660602 0
          <InformationKey name="L2_NORM_RANGE" location="vtkDataArray" length="2">
            <Value index="0">
              2.8746034064
            </Value>
            <Value index="1">
              4.535233026
            </Value>
          </InformationKey>
        </DataArray>
        <DataArray type="Float64" Name="Energy" format="ascii" RangeMin="5.913638118420691" RangeMax="9.850459752999999">
          5.97846 5.97846 9.850459752999999 6.30374831865431 5.97846 5.950438176123274
          9.850459752999999 6.298956225837265 5.945565122346745 9.850459752999999 6.296990924920451 5.947083546004419
          9.850459752999999 6.297434162829902 5.947220420998446 9.850459752999999 6.297913671697907 5.947207477974279
          9.850459752999999 6.2957073095943485 5.94378703359052 9.850459752999999 6.255114933497669 5.913638118420691
        </DataArray>
        <DataArray type="Float64" Name="TimeAveraDensf" format="ascii" RangeMin="0.9941652416552943" RangeMax="1.7">
          1 1 1.7 1.0308856694960018 1 0.9965358124706681
          1.7 1.029556788687672 0.9964902342434363 1.7 1.0295224089076072 0.9965685418510315
          1.7 1.029546649550052 0.9965740247008763 1.7 1.0295781232758392 0.9965651774916388
          1.7 1.0293534256284513 0.9963207097276778 1.7 1.0249844792199956 0.9941652416552943
        </DataArray>
        <DataArray type="Float64" Name="TimeAveraVeloc" NumberOfComponents="3" format="ascii" RangeMin="2.6677841329462924" RangeMax="2.900061141028319">
          2.9000000000000004 0 0 2.9000000000000004 0 0
          2.6193 -0.5063000000000001 0 2.894093603041162 -0.04040326065258663 0
          2.9000000000000004 0 0 2.900061141028319 0 0
          2.6193 -0.5063000000000001 0 2.8942631950718325 -0.03848024246500783 0
          2.899980654735626 0 0 2.6193 -0.5063000000000001 0
          2.894227013622617 -0.038419766825428726 0 2.900024577929325 0 0
          2.6193 -0.5063000000000001 0 2.894241279853442 -0.03844914574619152 0
          2.9000345330588218 0 0 2.6193 -0.5063000000000001 0
          2.8942686668304254 -0.038461661406173527 0 2.9000293486325286 0 0
          2.6193 -0.5063000000000001 0 2.8943492182146486 -0.03805581877149294 0
          2.899882725160457 0 0 2.6193 -0.5063000000000001 0
          2.8967318358573055 -0.03207856854278125 0 2.8992747238096075 0.00821791803388763 0
          <InformationKey name="L2_NORM_RANGE" location="vtkDataArray" length="2">
            <Value index="0">
              2.6677841329
            </Value>
            <Value index="1">
              2.900061141
            </Value>
          </InformationKey>
        </DataArray>
        <DataArray type="Float64" Name="TimeAveraPress" format="ascii" RangeMin="0.7139095783372852" RangeMax="1.5457895999999998">
          0.72124 0.72124 1.5457895999999998 0.7604703988910385 0.72124 0.7176426783422767
          1.5457895999999998 0.758771054855252 0.7176008465839949 1.5457895999999998 0.7587312117828984 0.7176875880711217
          1.5457895999999998 0.7587594459284274 0.7176935551833233 1.5457895999999998 0.7587851314198112 0.7176709009542805
          1.5457895999999998 0.7584035944476933 0.7172048570035462 1.5457895999999998 0.7520054746226537 0.7139095783372852
        </DataArray>
        <DataArray type="Float64" Name="TimeAveraTempe" format="ascii" RangeMin="0.0024592358273464033" RangeMax="0.003114">
          0.00247 0.00247 0.003114 0.0025260305731437034 0.00247 0.002466223015866739
          0.003114 0.0025236338571545903 0.0024661913397421697 0.003114 0.0025235905707655906 0.002466295841309482
          0.003114 0.0025236242853251076 0.002466302783948403 0.003114 0.002523632105578238 0.002466246833826382
          0.003114 0.0025229181589473794 0.002465249599692354 0.003114 0.0025123778489985846 0.0024592358273464033
        </DataArray>
      </PointData>
      <CellData>
        <DataArray type="UInt8" Name="vtkGhostType" format="ascii" RangeMin="0" RangeMax="0">
          0 0 0 0 0 0
          0 0 0 0 0 0
          0 0 0 0 0 0
          0 0 0 0 0 0
          0 0 0 0
        </DataArray>
      </CellData>
      <Points>
        <DataArray type="Float32" Name="Points" NumberOfComponents="3" format="ascii" RangeMin="0" RangeMax="4.2201894765504395">
          0 1 0 0 0.5 0
          0.5857142806053162 1 0 0.5857142806053162 0.5 0
          0 0 0 0.5857142806053162 0 0
          1.1714290380477905 1 0 1.1714290380477905 0.5 0
          1.1714290380477905 0 0 1.7571430206298828 1 0
          1.7571430206298828 0.5 0 1.7571430206298828 0 0
          2.3428568840026855 1 0 2.3428568840026855 0.5 0
          2.3428568840026855 0 0 2.9285709857940674 1 0
          2.9285709857940674 0.5 0 2.9285709857940674 0 0
          3.5142860412597656 1 0 3.5142860412597656 0.5 0
          3.5142860412597656 0 0 4.099999904632568 1 0
          4.099999904632568 0.5 0 4.099999904632568 0 0
          <InformationKey name="L2_NORM_RANGE" location="vtkDataArray" length="2">
            <Value index="0">
              0
            </Value>
            <Value index="1">
              4.2201894766
            </Value>
          </InformationKey>
        </DataArray>
      </Points>
      <Cells>
        <DataArray type="Int64" Name="connectivity" format="ascii" RangeMin="0" RangeMax="23">
          5 3 4 3 1 4
          8 7 5 7 3 5
          11 10 8 10 7 8
          14 13 11 13 10 11
          17 16 14 16 13 14
          20 19 17 19 16 17
          23 22 20 22 19 20
          3 2 1 2 0 1
          7 6 3 6 2 3
          10 9 7 9 6 7
          13 12 10 12 9 10
          16 15 13 15 12 13
          19 18 16 18 15 16
          22 21 19 21 18 19
        </DataArray>
        <DataArray type="Int64" Name="offsets" format="ascii" RangeMin="3" RangeMax="84">
          3 6 9 12 15 18
          21 24 27 30 33 36
          39 42 45 48 51 54
          57 60 63 66 69 72
          75 78 81 84
        </DataArray>
        <DataArray type="UInt8" Name="types" format="ascii" RangeMin="5" RangeMax="5">
          5 5 5 5 5 5
          5 5 5 5 5 5
          5 5 5 5 5 5
          5 5 5 5 5 5
          5 5 5 5
        </DataArray>
      </Cells>
    </Piece>
  </UnstructuredGrid>
</VTKFile>
