<?xml version="1.0"?>
<VTKFile type="UnstructuredGrid" version="0.1" byte_order="LittleEndian" header_type="UInt32" compressor="vtkZLibDataCompressor">
  <UnstructuredGrid>
    <Piece NumberOfPoints="33" NumberOfCells="20">
      <PointData>
        <DataArray type="Float64" Name="Displacement" NumberOfComponents="3" format="ascii" RangeMin="0" RangeMax="0.00014756212894520126">
          0 0 0 0 0 0
          0 0 0 2.6617659638451464e-7 -0.000002756784507366545 0
          -1.2543569046665285e-13 -0.0000027567607488802743 0 -2.66176345659556e-7 -0.0000027567528361350857 0
          4.794116985201503e-7 -0.000010297661589340208 0 6.685256237518913e-14 -0.000010297644174690147 0
          -4.794118325162209e-7 -0.00001029763836452141 0 6.455882630783521e-7 -0.000021622663015816562 0
          -2.6877746073387885e-14 -0.000021622643910459506 0 -6.45588209780949e-7 -0.00002162263754479634 0
          7.705882270271054e-7 -0.00003584942737339912 0 9.338253916763611e-15 -0.00003584940871778602 0
          -7.705882463679521e-7 -0.0000358494024980166 0 8.602941221863893e-7 -0.00005221325103216434 0
          -3.3978242992704335e-15 -0.00005221323225714192 0 -8.602941163366849e-7 -0.00005221322599929157 0
          9.205882357272616e-7 -0.00007006707456928469 0 6.836076419391331e-16 -0.00007006705582590563 0
          -9.205882383940283e-7 -0.0000700670495779302 0 9.573529429230536e-7 -0.00008888148637727456 0
          -7.400608421033806e-16 -0.00008888146762552555 0 -9.573529431526724e-7 -0.00008888146137500721 0
          9.764705895092949e-7 -0.00010824472170732718 0 -4.4210063412278806e-16 -0.0001082447029577904 0
          -9.764705907748337e-7 -0.00010824469670792267 0 9.838235307322899e-7 -0.00012786266292258278 0
          -6.594327065704732e-16 -0.00012786264417245276 0 -9.838235319291517e-7 -0.00012786263792241722 0
          9.852941188593646e-7 -0.00014755883943139275 0 -6.704592045959155e-16 -0.000147558820681457 0
          -9.852941202711174e-7 -0.0001475588144314742 0
          <InformationKey name="L2_NORM_RANGE" location="vtkDataArray" length="2">
            <Value index="0">
              0
            </Value>
            <Value index="1">
              0.00014756212895
            </Value>
          </InformationKey>
        </DataArray>
      </PointData>
      <CellData>
        <DataArray type="UInt8" Name="vtkGhostType" format="ascii" RangeMin="0" RangeMax="0">
          0 0 0 0 0 0
          0 0 0 0 0 0
          0 0 0 0 0 0
          0 0
        </DataArray>
        <DataArray type="Float64" Name="Stress" NumberOfComponents="6" format="ascii" RangeMin="521.7770937462612" RangeMax="28262.3720496641">
          -26617.64710952465 -15.825490377143804 0 -9499.459026902477 0 0
          -21323.5294568412 -27.44582785206459 0 -8500.328117161 0 0
          -16617.64709950365 -24.351663803381772 0 -7499.863530228264 0 0
          -12500.000037100293 -25.170865160250873 0 -6500.049417929462 0 0
          -8970.588270481101 -24.955239540406726 0 -5499.983386477146 0 0
          -6029.411797591152 -25.01165157690714 0 -4500.005353619608 0 0
          -3676.470618231253 -24.99698753652586 0 -3499.9983445987527 0 0
          -1911.7647324201082 -25.000772128523295 0 -2500.000513670824 0 0
          -735.2941371649997 -24.999806516384435 0 -1499.9998553939276 0 0
          -147.05883529923395 -25.000036687084645 0 -500.0000326843708 0 0
          26617.647094882414 -47.51697254119997 0 -9500.540992135808 0 0
          21323.529442388844 -82.3462726636361 0 -8499.671901383677 0 0
          16617.64708278933 -73.04001423726882 0 -7500.136488599346 0 0
          12500.00001647532 -75.52194031956597 0 -6499.95060050406 0 0
          8970.58824232056 -74.86127103688376 0 -5500.016632991203 0 0
          6029.411762230408 -75.03680292137577 0 -4499.994666334964 0 0
          3676.4705772123443 -74.99025612717897 0 -3500.001673721059 0 0
          1911.7646884201379 -75.00257158507722 0 -2499.999501363962 0 0
          735.2941005662776 -74.9993336098681 0 -1500.0001527805043 0 0
          147.05881160480888 -75.0001315176149 0 -499.99996916638656 0 0
          <InformationKey name="L2_NORM_RANGE" location="vtkDataArray" length="2">
            <Value index="0">
              521.77709375
            </Value>
            <Value index="1">
              28262.37205
            </Value>
          </InformationKey>
        </DataArray>
        <DataArray type="Float64" Name="Strain" NumberOfComponents="6" format="ascii" RangeMin="5.055322525841972e-9" RangeMax="1.6351930400593335e-7">
          -1.3308823554762322e-7 -7.9127451885719e-11 0 -9.499459026902498e-8 0 0
          -1.06617647284206e-7 -1.3722913926032294e-10 0 -8.50032811716099e-8 0 0
          -8.308823549751825e-8 -1.2175831901690883e-10 0 -7.49986353022826e-8 0 0
          -6.250000018550147e-8 -1.2585432580125436e-10 0 -6.500049417929449e-8 0 0
          -4.48529413524055e-8 -1.2477619770203362e-10 0 -5.499983386477149e-8 0 0
          -3.014705898795576e-8 -1.2505825788453571e-10 0 -4.500005353619605e-8 0 0
          -1.8382353091156265e-8 -1.2498493768262932e-10 0 -3.499998344598752e-8 0 0
          -9.558823662100541e-9 -1.2500386064261647e-10 0 -2.500000513670825e-8 0 0
          -3.6764706858249984e-9 -1.2499903258192217e-10 0 -1.4999998553939273e-8 0 0
          -7.352941764961699e-10 -1.250001834354232e-10 0 -5.000000326843708e-9 0 0
          1.3308823547441205e-7 -2.3758486270599984e-10 0 -9.500540992135826e-8 0 0
          1.0661764721194425e-7 -4.117313633181805e-10 0 -8.49967190138368e-8 0 0
          8.308823541394666e-8 -3.652000711863441e-10 0 -7.500136488599355e-8 0 0
          6.25000000823766e-8 -3.7760970159782985e-10 0 -6.499950600504066e-8 0 0
          4.485294121160281e-8 -3.743063551844188e-10 0 -5.5000166329912e-8 0 0
          3.014705881115204e-8 -3.7518401460687884e-10 0 -4.49999466633496e-8 0 0
          1.8382352886061723e-8 -3.749512806358948e-10 0 -3.500001673721064e-8 0 0
          9.558823442100689e-9 -3.7501285792538625e-10 0 -2.4999995013639627e-8 0 0
          3.6764705028313883e-9 -3.749966680493405e-10 0 -1.500000152780504e-8 0 0
          7.352940580240445e-10 -3.7500065758807466e-10 0 -4.999999691663866e-9 0 0
          <InformationKey name="L2_NORM_RANGE" location="vtkDataArray" length="2">
            <Value index="0">
              5.0553225258e-09
            </Value>
            <Value index="1">
              1.6351930401e-07
            </Value>
          </InformationKey>
        </DataArray>
      </CellData>
      <Points>
        <DataArray type="Float32" Name="Points" NumberOfComponents="3" format="ascii" RangeMin="0" RangeMax="10.000499987515525">
          0 0.10000000149011612 0 0 0.05000000074505806 0
          0 0 0 1 0.10000000149011612 0
          1 0.05000000074505806 0 1 0 0
          2 0.10000000149011612 0 2 0.05000000074505806 0
          2 0 0 3 0.10000000149011612 0
          3 0.05000000074505806 0 3 0 0
          4 0.10000000149011612 0 4 0.05000000074505806 0
          4 0 0 5 0.10000000149011612 0
          5 0.05000000074505806 0 5 0 0
          6 0.10000000149011612 0 6 0.05000000074505806 0
          6 0 0 7 0.10000000149011612 0
          7 0.05000000074505806 0 7 0 0
          8 0.10000000149011612 0 8 0.05000000074505806 0
          8 0 0 9 0.10000000149011612 0
          9 0.05000000074505806 0 9 0 0
          10 0.10000000149011612 0 10 0.05000000074505806 0
          10 0 0
          <InformationKey name="L2_NORM_RANGE" location="vtkDataArray" length="2">
            <Value index="0">
              0
            </Value>
            <Value index="1">
              10.000499988
            </Value>
          </InformationKey>
        </DataArray>
      </Points>
      <Cells>
        <DataArray type="Int64" Name="connectivity" format="ascii" RangeMin="0" RangeMax="32">
          5 4 1 2 8 7
          4 5 11 10 7 8
          14 13 10 11 17 16
          13 14 20 19 16 17
          23 22 19 20 26 25
          22 23 29 28 25 26
          32 31 28 29 4 3
          0 1 7 6 3 4
          10 9 6 7 13 12
          9 10 16 15 12 13
          19 18 15 16 22 21
          18 19 25 24 21 22
          28 27 24 25 31 30
          27 28
        </DataArray>
        <DataArray type="Int64" Name="offsets" format="ascii" RangeMin="4" RangeMax="80">
          4 8 12 16 20 24
          28 32 36 40 44 48
          52 56 60 64 68 72
          76 80
        </DataArray>
        <DataArray type="UInt8" Name="types" format="ascii" RangeMin="9" RangeMax="9">
          9 9 9 9 9 9
          9 9 9 9 9 9
          9 9 9 9 9 9
          9 9
        </DataArray>
      </Cells>
    </Piece>
  </UnstructuredGrid>
</VTKFile>
