<?xml version="1.0"?>
<VTKFile type="UnstructuredGrid" version="0.1" byte_order="LittleEndian" header_type="UInt32" compressor="vtkZLibDataCompressor">
  <UnstructuredGrid>
    <Piece NumberOfPoints="25" NumberOfCells="16">
      <PointData>
        <DataArray type="Float64" Name="nsi_SBC" NumberOfComponents="3" format="ascii" RangeMin="0" RangeMax="0">
          0 0 0 0 0 0
          0 0 0 0 0 0
          0 0 0 0 0 0
          0 0 0 0 0 0
          0 0 0 0 0 0
          0 0 0 0 0 0
          0 0 0 0 0 0
          0 0 0 0 0 0
          0 0 0 0 0 0
          0 0 0 0 0 0
          0 0 0 0 0 0
          0 0 0 0 0 0
          0 0 0
          <InformationKey name="L2_NORM_RANGE" location="vtkDataArray" length="2">
            <Value index="0">
              0
            </Value>
            <Value index="1">
              0
            </Value>
          </InformationKey>
        </DataArray>
        <DataArray type="Float64" Name="nsi_SFIXNO" NumberOfComponents="3" format="ascii" RangeMin="1.7320508075688772" RangeMax="1.7320508075688772">
          1 1 1 1 1 1
          1 1 1 -1 -1 -1
          1 1 1 1 1 1
          -1 -1 -1 -1 -1 -1
          -1 -1 -1 1 1 1
          1 1 1 -1 -1 -1
          -1 -1 -1 -1 -1 -1
          -1 -1 -1 1 1 1
          1 1 1 1 1 1
          1 1 1 -1 -1 -1
          1 1 1 1 1 1
          1 1 1 1 1 1
          1 1 1
          <InformationKey name="L2_NORM_RANGE" location="vtkDataArray" length="2">
            <Value index="0">
              1.7320508076
            </Value>
            <Value index="1">
              1.7320508076
            </Value>
          </InformationKey>
        </DataArray>
        <DataArray type="Float64" Name="nsi_UBC" NumberOfComponents="3" format="ascii" RangeMin="0" RangeMax="0">
          0 0 0 0 0 0
          0 0 0 0 0 0
          0 0 0 0 0 0
          0 0 0 0 0 0
          0 0 0 0 0 0
          0 0 0 0 0 0
          0 0 0 0 0 0
          0 0 0 0 0 0
          0 0 0 0 0 0
          0 0 0 0 0 0
          0 0 0 0 0 0
          0 0 0 0 0 0
          0 0 0
          <InformationKey name="L2_NORM_RANGE" location="vtkDataArray" length="2">
            <Value index="0">
              0
            </Value>
            <Value index="1">
              0
            </Value>
          </InformationKey>
        </DataArray>
        <DataArray type="Float64" Name="nsi_UFIXNO" NumberOfComponents="3" format="ascii" RangeMin="1.4142135623730951" RangeMax="1.4142135623730951">
          1 1 0 1 1 0
          1 1 0 -1 -1 0
          1 1 0 1 1 0
          -1 -1 0 -1 -1 0
          -1 -1 0 1 1 0
          1 1 0 -1 -1 0
          -1 -1 0 -1 -1 0
          -1 -1 0 1 1 0
          1 1 0 1 1 0
          1 1 0 -1 -1 0
          1 1 0 1 1 0
          1 1 0 1 1 0
          1 1 0
          <InformationKey name="L2_NORM_RANGE" location="vtkDataArray" length="2">
            <Value index="0">
              1.4142135624
            </Value>
            <Value index="1">
              1.4142135624
            </Value>
          </InformationKey>
        </DataArray>
        <DataArray type="Float64" Name="Velocity" NumberOfComponents="3" format="ascii" RangeMin="0" RangeMax="0.0032766809675008274">
          0 0 0 0 0 0
          0 0 0 -0.0018431330442192156 -0.0018431330442192156 0
          0 0 0 0 0 0
          0 -0.0032766809675008274 0 -0.0032766809675008274 0 0
          0 0 0 0 0 0
          0 0 0 0.0018431330442192156 -0.0018431330442192156 0
          -0.0018431330442192156 0.0018431330442192156 0 0.0032766809675008274 0 0
          0 0.0032766809675008274 0 0 0 0
          0 0 0 0 0 0
          0 0 0 0.0018431330442192156 0.0018431330442192156 0
          0 0 0 0 0 0
          0 0 0 0 0 0
          0 0 0
          <InformationKey name="L2_NORM_RANGE" location="vtkDataArray" length="2">
            <Value index="0">
              0
            </Value>
            <Value index="1">
              0.0032766809675
            </Value>
          </InformationKey>
        </DataArray>
        <DataArray type="Float64" Name="Pressure" format="ascii" RangeMin="-0.6704477088758168" RangeMax="2.598929710490456">
          0 -0.6704453419749102 0.8563713871845869 0.28765995890253404 0.47759114459285956 0.5006738035640962
          1.3709924674121639 1.3571700279564058 2.598929710490456 1.6220140505041385 0.12224054395304254 1.453552901139544
          1.4535530368600142 1.3571713877518694 1.3709933472508116 0.9958360088243045 0.9958363450452722 1.62201509022825
          0.12224216234484173 0.2876584925744446 0.47759110955312756 0.5006737543661475 -0.6704477088758168 0.8563686213286537
          -0.0000030226996885406412
        </DataArray>
        <DataArray type="Float64" Name="stream" format="ascii" RangeMin="-0.000007533710696719706" RangeMax="0.0008474358817315778">
          0 0.000006399767514650065 0 0.00020959238610478926 -0.0000022999164505773588 0.000006399767514650065
          0.00043358424911754114 0.00042825944255261744 0.0008474358817315778 -0.000007533710696719706 -0.0000019999273483281387 0.00022034199560205304
          0.00021661039287931556 0.000433428004793453 0.00043451780895396776 -0.0000019999273483281387 0.0000023319465370154357 -0.00000602478113683853
          -0.000005724645555535475 0.00022141886620462943 0.000008909051359505521 0.000013632317276689887 0.0000023319465370154357 -0.0000033204088928785426
          0.0000023319465370154357
        </DataArray>
        <DataArray type="Float64" Name="exSigma" NumberOfComponents="3" format="ascii" RangeMin="0" RangeMax="1.9771420432253675">
          0 0 0 2.444429306574638e-7 -2.444429306574638e-7 0
          0 0 0 -1.398050546133673 1.398050546133673 0
          -2.136988055033323e-14 2.136988055033323e-14 0 0 0 0
          -1.222214653287324e-7 1.222214653287324e-7 0 1.2222146532873146e-7 -1.2222146532873146e-7 0
          1.0684940275166653e-14 -1.0684940275166653e-14 0 -2.44442930657462e-7 2.44442930657462e-7 0
          0 0 0 1.3980505461336834 -1.3980505461336834 0
          1.3980505461336625 -1.3980505461336625 0 -1.222214653287324e-7 1.222214653287324e-7 0
          1.2222146532873146e-7 -1.2222146532873146e-7 0 0 0 0
          4.273976110066629e-14 -4.273976110066629e-14 0 0 0 0
          -2.4444293065746197e-7 2.4444293065746197e-7 0 -1.398050546133673 1.398050546133673 0
          0 0 0 -2.1369880550333223e-14 2.1369880550333223e-14 0
          0 0 0 2.444429306574638e-7 -2.444429306574638e-7 0
          0 0 0
          <InformationKey name="L2_NORM_RANGE" location="vtkDataArray" length="2">
            <Value index="0">
              0
            </Value>
            <Value index="1">
              1.9771420432
            </Value>
          </InformationKey>
        </DataArray>
        <DataArray type="Float64" Name="exVeloc" NumberOfComponents="3" format="ascii" RangeMin="0" RangeMax="0.0032766809675008274">
          0 0 0 0 0 0
          0 0 0 -0.0018431330442192156 -0.0018431330442192156 0
          0 0 0 0 0 0
          0 -0.0032766809675008274 0 -0.0032766809675008274 0 0
          0 0 0 0 0 0
          0 0 0 0.0018431330442192156 -0.0018431330442192156 0
          -0.0018431330442192156 0.0018431330442192156 0 0.0032766809675008274 0 0
          0 0.0032766809675008274 0 0 0 0
          0 0 0 0 0 0
          0 0 0 0.0018431330442192156 0.0018431330442192156 0
          0 0 0 0 0 0
          0 0 0 0 0 0
          0 0 0
          <InformationKey name="L2_NORM_RANGE" location="vtkDataArray" length="2">
            <Value index="0">
              0
            </Value>
            <Value index="1">
              0.0032766809675
            </Value>
          </InformationKey>
        </DataArray>
        <DataArray type="Float64" Name="Sigma" NumberOfComponents="6" format="ascii" RangeMin="0" RangeMax="1.9968155829397887">
          0 0 0 0 0 0
          2.444429306574638e-7 -2.444429306574638e-7 0 4.888858613149276e-8 0 0
          0 0 0 0 0 0
          -1.398050546133673 1.398050546133673 0 -0.2796101092267346 0 0
          -2.136988055033323e-14 2.136988055033323e-14 0 -4.273976110066645e-15 0 0
          0 0 0 0 0 0
          -1.222214653287324e-7 1.222214653287324e-7 0 -2.4444293065746474e-8 0 0
          1.2222146532873146e-7 -1.2222146532873146e-7 0 2.4444293065746295e-8 0 0
          1.0684940275166653e-14 -1.0684940275166653e-14 0 2.1369880550333306e-15 0 0
          -2.44442930657462e-7 2.44442930657462e-7 0 -4.8888586131492404e-8 0 0
          0 0 0 0 0 0
          1.3980505461336834 -1.3980505461336834 0 0.27961010922673674 0 0
          1.3980505461336625 -1.3980505461336625 0 0.2796101092267325 0 0
          -1.222214653287324e-7 1.222214653287324e-7 0 -2.4444293065746474e-8 0 0
          1.2222146532873146e-7 -1.2222146532873146e-7 0 2.4444293065746295e-8 0 0
          0 0 0 0 0 0
          4.273976110066629e-14 -4.273976110066629e-14 0 8.547952220133259e-15 0 0
          0 0 0 0 0 0
          -2.4444293065746197e-7 2.4444293065746197e-7 0 -4.8888586131492404e-8 0 0
          -1.398050546133673 1.398050546133673 0 -0.2796101092267346 0 0
          0 0 0 0 0 0
          -2.1369880550333223e-14 2.1369880550333223e-14 0 -4.273976110066645e-15 0 0
          0 0 0 0 0 0
          2.444429306574638e-7 -2.444429306574638e-7 0 4.888858613149276e-8 0 0
          0 0 0 0 0 0
          <InformationKey name="L2_NORM_RANGE" location="vtkDataArray" length="2">
            <Value index="0">
              0
            </Value>
            <Value index="1">
              1.9968155829
            </Value>
          </InformationKey>
        </DataArray>
      </PointData>
      <CellData>
        <DataArray type="UInt8" Name="vtkGhostType" format="ascii" RangeMin="0" RangeMax="0">
          0 0 0 0 0 0
          0 0 0 0 0 0
          0 0 0 0
        </DataArray>
      </CellData>
      <Points>
        <DataArray type="Float32" Name="Points" NumberOfComponents="3" format="ascii" RangeMin="0" RangeMax="1.4142135623730951">
          0 1 0 0.25 1 0
          0 0.75 0 0.25 0.75 0
          0.5 1 0 0 0.5 0
          0.25 0.5 0 0.5 0.75 0
          0.5 0.5 0 0.75 1 0
          0 0.25 0 0.25 0.25 0
          0.75 0.75 0 0.5 0.25 0
          0.75 0.5 0 0 0 0
          1 1 0 0.25 0 0
          1 0.75 0 0.75 0.25 0
          0.5 0 0 1 0.5 0
          0.75 0 0 1 0.25 0
          1 0 0
          <InformationKey name="L2_NORM_RANGE" location="vtkDataArray" length="2">
            <Value index="0">
              0
            </Value>
            <Value index="1">
              1.4142135624
            </Value>
          </InformationKey>
        </DataArray>
      </Points>
      <Cells>
        <DataArray type="Int64" Name="connectivity" format="ascii" RangeMin="0" RangeMax="24">
          17 11 10 15 20 13
          11 17 22 19 13 20
          24 23 19 22 11 6
          5 10 13 8 6 11
          19 14 8 13 23 21
          14 19 6 3 2 5
          8 7 3 6 14 12
          7 8 21 18 12 14
          3 1 0 2 7 4
          1 3 12 9 4 7
          18 16 9 12
        </DataArray>
        <DataArray type="Int64" Name="offsets" format="ascii" RangeMin="4" RangeMax="64">
          4 8 12 16 20 24
          28 32 36 40 44 48
          52 56 60 64
        </DataArray>
        <DataArray type="UInt8" Name="types" format="ascii" RangeMin="9" RangeMax="9">
          9 9 9 9 9 9
          9 9 9 9 9 9
          9 9 9 9
        </DataArray>
      </Cells>
    </Piece>
  </UnstructuredGrid>
</VTKFile>
