<?xml version="1.0"?>
<VTKFile type="UnstructuredGrid" version="0.1" byte_order="LittleEndian" header_type="UInt32" compressor="vtkZLibDataCompressor">
  <UnstructuredGrid>
    <Piece NumberOfPoints="25" NumberOfCells="16">
      <PointData>
        <DataArray type="Float64" Name="nsi_SBC" NumberOfComponents="3" format="ascii" RangeMin="0" RangeMax="0">
          0 0 0 0 0 0
          0 0 0 0 0 0
          0 0 0 0 0 0
          0 0 0 0 0 0
          0 0 0 0 0 0
          0 0 0 0 0 0
          0 0 0 0 0 0
          0 0 0 0 0 0
          0 0 0 0 0 0
          0 0 0 0 0 0
          0 0 0 0 0 0
          0 0 0 0 0 0
          0 0 0
          <InformationKey name="L2_NORM_RANGE" location="vtkDataArray" length="2">
            <Value index="0">
              0
            </Value>
            <Value index="1">
              0
            </Value>
          </InformationKey>
        </DataArray>
        <DataArray type="Float64" Name="nsi_SFIXNO" NumberOfComponents="3" format="ascii" RangeMin="1.7320508075688772" RangeMax="1.7320508075688772">
          1 1 1 1 1 1
          1 1 1 -1 -1 -1
          1 1 1 1 1 1
          -1 -1 -1 -1 -1 -1
          -1 -1 -1 1 1 1
          1 1 1 -1 -1 -1
          -1 -1 -1 -1 -1 -1
          -1 -1 -1 1 1 1
          1 1 1 1 1 1
          1 1 1 -1 -1 -1
          1 1 1 1 1 1
          1 1 1 1 1 1
          1 1 1
          <InformationKey name="L2_NORM_RANGE" location="vtkDataArray" length="2">
            <Value index="0">
              1.7320508076
            </Value>
            <Value index="1">
              1.7320508076
            </Value>
          </InformationKey>
        </DataArray>
        <DataArray type="Float64" Name="nsi_UBC" NumberOfComponents="3" format="ascii" RangeMin="0" RangeMax="0">
          0 0 0 0 0 0
          0 0 0 0 0 0
          0 0 0 0 0 0
          0 0 0 0 0 0
          0 0 0 0 0 0
          0 0 0 0 0 0
          0 0 0 0 0 0
          0 0 0 0 0 0
          0 0 0 0 0 0
          0 0 0 0 0 0
          0 0 0 0 0 0
          0 0 0 0 0 0
          0 0 0
          <InformationKey name="L2_NORM_RANGE" location="vtkDataArray" length="2">
            <Value index="0">
              0
            </Value>
            <Value index="1">
              0
            </Value>
          </InformationKey>
        </DataArray>
        <DataArray type="Float64" Name="nsi_UFIXNO" NumberOfComponents="3" format="ascii" RangeMin="1.4142135623730951" RangeMax="1.4142135623730951">
          1 1 0 1 1 0
          1 1 0 -1 -1 0
          1 1 0 1 1 0
          -1 -1 0 -1 -1 0
          -1 -1 0 1 1 0
          1 1 0 -1 -1 0
          -1 -1 0 -1 -1 0
          -1 -1 0 1 1 0
          1 1 0 1 1 0
          1 1 0 -1 -1 0
          1 1 0 1 1 0
          1 1 0 1 1 0
          1 1 0
          <InformationKey name="L2_NORM_RANGE" location="vtkDataArray" length="2">
            <Value index="0">
              1.4142135624
            </Value>
            <Value index="1">
              1.4142135624
            </Value>
          </InformationKey>
        </DataArray>
        <DataArray type="Float64" Name="Velocity" NumberOfComponents="3" format="ascii" RangeMin="0" RangeMax="0.0032019275421927">
          0 0 0 0 0 0
          0 0 0 0.001968566230270079 0.002466228789650875 0
          0 0 0 0 0 0
          0.00018582430978562132 0.0023307451476729784 0 0.0031965674227933897 -0.00018519367426618694 0
          -7.634424239546083e-10 1.0141152279129868e-9 0 0 0 0
          0 0 0 -0.0025040559537537425 0.0019627094859061126 0
          0.0025040577536015493 -0.001962710973458314 0 -0.003196566907233776 0.00018519418852605828 0
          -0.0001858247752169391 -0.0023307457757066816 0 0 0 0
          0 0 0 0 0 0
          0 0 0 -0.001968567640480254 -0.0024662277204587817 0
          0 0 0 0 0 0
          0 0 0 0 0 0
          0 0 0
          <InformationKey name="L2_NORM_RANGE" location="vtkDataArray" length="2">
            <Value index="0">
              0
            </Value>
            <Value index="1">
              0.0032019275422
            </Value>
          </InformationKey>
        </DataArray>
        <DataArray type="Float64" Name="Pressure" format="ascii" RangeMin="-0.29358155232171373" RangeMax="1.1644089929889492">
          0 0.3509138644877622 -0.29357965581187984 -0.2559962291570094 0.10897084241337922 0.12864641111354602
          0.2876726444738823 0.26886654721074654 0.9812051661872647 0.4898940631071623 1.1644077883251507 1.0137327749151586
          1.0137329451541306 0.2688675658619666 0.28767342152882824 1.0446995337872964 1.0446998284343973 0.48989476268995613
          1.1644089929889492 -0.2559973108501181 0.10897076278913623 0.12864635290791282 0.35091221195196676 -0.29358155232171373
          -0.0000020670523974048166
        </DataArray>
        <DataArray type="Float64" Name="stream" format="ascii" RangeMin="-0.0007416542006273635" RangeMax="0.00017306948033035853">
          -0.00003110390996129974 0.000041344479237123444 0 -0.00012614849605859923 0.00017306948033035853 -0.00003577928409427496
          -0.00041490051506789274 -0.00031817665008867835 -0.0007416542006273635 0.00012406429426620004 0.0000032198184708904116 -0.00021622826115314078
          -0.00013721224910179805 -0.000400423620981815 -0.00037651497328669483 0.0000032198184708904116 0.00004688640626852941 0.00004999927576848371
          0.00007750651442451029 -0.00017781829254567946 0.00002457325909544533 -0.00001914267252741512 0.00004688640626852941 0.00008867328939009882
          0.00004688640626852941
        </DataArray>
        <DataArray type="Float64" Name="exSigma" NumberOfComponents="3" format="ascii" RangeMin="0" RangeMax="4.683642869348046">
          0 0 0 -5.79059756004525e-7 5.79059756004525e-7 0
          0 0 0 3.311835633571998 -3.311835633571998 0
          5.062301365819418e-14 -5.062301365819418e-14 0 0 0 0
          2.895298780022636e-7 -2.895298780022636e-7 0 -2.895298780022614e-7 2.895298780022614e-7 0
          -2.531150682909718e-14 2.531150682909718e-14 0 5.790597560045206e-7 -5.790597560045206e-7 0
          0 0 0 -3.3118356335720223 3.3118356335720223 0
          -3.311835633571973 3.311835633571973 0 2.8952987800226365e-7 -2.8952987800226365e-7 0
          -2.895298780022614e-7 2.895298780022614e-7 0 0 0 0
          -1.0124602731638795e-13 1.0124602731638795e-13 0 0 0 0
          5.790597560045206e-7 -5.790597560045206e-7 0 3.311835633571998 -3.311835633571998 0
          0 0 0 5.062301365819417e-14 -5.062301365819417e-14 0
          0 0 0 -5.79059756004525e-7 5.79059756004525e-7 0
          0 0 0
          <InformationKey name="L2_NORM_RANGE" location="vtkDataArray" length="2">
            <Value index="0">
              0
            </Value>
            <Value index="1">
              4.6836428693
            </Value>
          </InformationKey>
        </DataArray>
        <DataArray type="Float64" Name="exVeloc" NumberOfComponents="3" format="ascii" RangeMin="0" RangeMax="0.0077621147661844445">
          0 0 0 0 0 0
          0 0 0 0.0043661895559787495 0.0043661895559787495 0
          0 0 0 0 0 0
          0 0.0077621147661844445 0 0.0077621147661844445 0 0
          0 0 0 0 0 0
          0 0 0 -0.0043661895559787495 0.0043661895559787495 0
          0.0043661895559787495 -0.0043661895559787495 0 -0.0077621147661844445 0 0
          0 -0.0077621147661844445 0 0 0 0
          0 0 0 0 0 0
          0 0 0 -0.0043661895559787495 -0.0043661895559787495 0
          0 0 0 0 0 0
          0 0 0 0 0 0
          0 0 0
          <InformationKey name="L2_NORM_RANGE" location="vtkDataArray" length="2">
            <Value index="0">
              0
            </Value>
            <Value index="1">
              0.0077621147662
            </Value>
          </InformationKey>
        </DataArray>
        <DataArray type="Float64" Name="Sigma" NumberOfComponents="6" format="ascii" RangeMin="0" RangeMax="5.394923390203783">
          0 0 0 0 0 0
          -6.014424732585185e-7 6.014424732585186e-7 0 -1.202884946517037e-7 0 0
          0 0 0 0 0 0
          3.771350436741016 -3.781072741611501 0 0.7584151767499969 0 0
          5.2579773024575635e-14 -5.257977302457563e-14 0 1.0515954604915126e-14 0 0
          0 0 0 0 0 0
          0.0023710986194677994 0.0014889193936213573 0 -0.0026359487165006678 0 0
          0.003466118064183879 0.001515922690350318 0 0.002541733208518389 0 0
          -0.0003382242869052573 0.000002324303460812997 0 0.0012881680096271096 0 0
          6.014424732585139e-7 -6.014424732585141e-7 0 1.202884946517028e-7 0 0
          0 0 0 0 0 0
          -3.7829127595704337 3.770861677533615 0 -0.758532562620392 0 0
          -3.7829127262040405 3.770861644804513 0 -0.7585325542051182 0 0
          0.0034667847358071067 0.001515254750932712 0 0.0025418675564746877 0 0
          0.002370428963592809 0.0014895886498163618 0 -0.002636083306407624 0 0
          0 0 0 0 0 0
          -1.0515954604915083e-13 1.0515954604915083e-13 0 -2.103190920983017e-14 0 0
          0 0 0 0 0 0
          6.014424732585139e-7 -6.014424732585139e-7 0 1.2028849465170277e-7 0 0
          3.771350435933229 -3.781072741499704 0 0.7584151759058271 0 0
          0 0 0 0 0 0
          5.2579773024575616e-14 -5.2579773024575616e-14 0 1.0515954604915126e-14 0 0
          0 0 0 0 0 0
          -6.014424732585184e-7 6.014424732585185e-7 0 -1.2028849465170367e-7 0 0
          0 0 0 0 0 0
          <InformationKey name="L2_NORM_RANGE" location="vtkDataArray" length="2">
            <Value index="0">
              0
            </Value>
            <Value index="1">
              5.3949233902
            </Value>
          </InformationKey>
        </DataArray>
      </PointData>
      <CellData>
        <DataArray type="UInt8" Name="vtkGhostType" format="ascii" RangeMin="0" RangeMax="0">
          0 0 0 0 0 0
          0 0 0 0 0 0
          0 0 0 0
        </DataArray>
      </CellData>
      <Points>
        <DataArray type="Float32" Name="Points" NumberOfComponents="3" format="ascii" RangeMin="0" RangeMax="1.4142135623730951">
          0 1 0 0.25 1 0
          0 0.75 0 0.25 0.75 0
          0.5 1 0 0 0.5 0
          0.25 0.5 0 0.5 0.75 0
          0.5 0.5 0 0.75 1 0
          0 0.25 0 0.25 0.25 0
          0.75 0.75 0 0.5 0.25 0
          0.75 0.5 0 0 0 0
          1 1 0 0.25 0 0
          1 0.75 0 0.75 0.25 0
          0.5 0 0 1 0.5 0
          0.75 0 0 1 0.25 0
          1 0 0
          <InformationKey name="L2_NORM_RANGE" location="vtkDataArray" length="2">
            <Value index="0">
              0
            </Value>
            <Value index="1">
              1.4142135624
            </Value>
          </InformationKey>
        </DataArray>
      </Points>
      <Cells>
        <DataArray type="Int64" Name="connectivity" format="ascii" RangeMin="0" RangeMax="24">
          17 11 10 15 20 13
          11 17 22 19 13 20
          24 23 19 22 11 6
          5 10 13 8 6 11
          19 14 8 13 23 21
          14 19 6 3 2 5
          8 7 3 6 14 12
          7 8 21 18 12 14
          3 1 0 2 7 4
          1 3 12 9 4 7
          18 16 9 12
        </DataArray>
        <DataArray type="Int64" Name="offsets" format="ascii" RangeMin="4" RangeMax="64">
          4 8 12 16 20 24
          28 32 36 40 44 48
          52 56 60 64
        </DataArray>
        <DataArray type="UInt8" Name="types" format="ascii" RangeMin="9" RangeMax="9">
          9 9 9 9 9 9
          9 9 9 9 9 9
          9 9 9 9
        </DataArray>
      </Cells>
    </Piece>
  </UnstructuredGrid>
</VTKFile>
