<?xml version="1.0"?>
<VTKFile type="UnstructuredGrid" version="0.1" byte_order="LittleEndian" header_type="UInt32" compressor="vtkZLibDataCompressor">
  <UnstructuredGrid>
    <Piece NumberOfPoints="94" NumberOfCells="150">
      <PointData>
        <DataArray type="Float64" Name="Velocity" NumberOfComponents="3" format="ascii" RangeMin="4.692632210892508e-24" RangeMax="2.653737605031299">
          2.4728410661026614 0 0 2.455226644292407 0.1582238230489947 0
          2.6322358005384086 0.21599409294273614 0 2.181037953551428 0 0
          2.0663707564563656 0.2589031063977293 0 2.308074560317367 0.25983213170601666 0
          2.5687236307896164 0.44339285509300436 0 2.1337803995319717 0.27986401521370297 0
          1.1694295298099553 0.280202891509569 0 1.7748850221367638 0 0
          2.2846871072921804 0.46298619914490036 0 2.121512793794265 0.36455483773813024 0
          2.475969880918519 0.6877599071366932 0 0.3388036729167628 0.2433582749459526 0
          1.3467134929162126 0.3962720033071596 0 2.502462414279616 0.7695708483837352 0
          0.055465112421803776 0.19775935899615543 0 2.228431294589198 0.6887365809804403 0
          0.487160204402567 0.2818675174083465 0 1.7661188045934435 0.7546807301894668 0
          -0.038907799137713604 0.009483860099908481 0 2.424002752374309 1.0800620041641265 0
          1.7024004458378392 0.26752884414240785 0 -0.03132018901808177 0.007287680595927835 0
          0.9893427027979668 0.5220781087361918 0 2.098945859344652 0.8477445464377571 0
          2.1308923420473027 1.3300865335371999 0 -0.040525654270108666 0.004529236488370105 0
          -0.033061298909747364 0.0022462561761743462 0 2.0524171767724586 1.0630848547029437 0
          1.7628972503037506 1.5292251981575142 0 1.3986601610895626 0 0
          -0.02456818079308281 0.00012198696384436102 0 -0.015218383734117873 -0.0015516773182183302 0
          1.8761436770650155 1.3469079551898033 0 1.124692231131344 1.6679173224517863 0
          1.6718040820555562 0.6027304292373957 0 -0.006575483894961709 -0.002404823294651316 0
          1.7351719694598398 0.9828255102609654 0 1.5734882460948783 1.5099399382245944 0
          -0.0015793624231780908 -0.0016537846079873726 0 1.1133786094344307 1.5873003646457466 0
          0.3204207282958992 0.8012976044618952 0 4.692632210892508e-24 0 0
          1.5354087859779904 1.09945220202974 0 1.2381733930690433 1.4243286703037394 0
          0.9468397173307407 1.3928872948575783 0 1.4471837857855905 0.7141447443809932 0
          1.2680975745983933 0.1899016880823539 0 0.44375372246135003 0.7425014784096454 0
          1.3283653070612125 1.0299304467195687 0 1.0834248573852734 1.1601776587409314 0
          1.361770278471277 0.8046043053771964 0 0.7945266951649437 1.0268186322593253 0
          0.19445918663220793 0 0 1.1498892527015498 0.9474035927032177 0
          1.2951558807211236 0.6276541300194889 0 0.347456308312203 0.2705446193121448 0
          0.9494180985573024 0.9209491827511767 0 0.6537769647543445 0.5462425923115398 0
          1.2337058055194505 0.3778222923537629 0 1.2132974041587008 0.5919566806581523 0
          1.1174104329897407 0 0 1.044750211111802 0.6730931293943534 0
          0.4960357517307943 0 0 0.8873847724960346 0.619208419514194 0
          0.8281589430794377 0.48473582355611883 0 1.041363543009049 0.12868375776649715 0
          0.7701680838501896 0.2831848593497958 0 0.7347070199420191 0 0
          1.0510104221930858 0.2312335700700399 0 1.0478243535596647 0.35418256425680306 0
          0.9799335877172575 0.3262171219837832 0 0.9514878695704633 0.2562912156613915 0
          0.9089583545625851 0.15334658247114424 0 0.9188081786660216 0 0
          1.0000000000231337 0 0 1.0000000000231337 0 0
          1.0000000000231337 0 0 1.002287519085749 0 0
          1.0000000000231337 0 0 1.0000000000231337 0 0
          1.0000000000231337 0 0 1.0000000000231337 0 0
          2.616734048725067 0.16863854746245174 0 2.6081389152176344 0 0
          0.16340203632311417 0.2853909878009966 0 0.34482464164293636 0.22931501847602245 0
          1.167142076421165 0.13770131101309974 0 1.2227007383325132 0.11871049084672008 0
          2.0768830148541153 0.1282263894735805 0 2.0854100492536043 0.10291100745782328 0
          0.09937006428174251 0.27806733956574503 0 -0.022631920609493015 0.0050915017694926155 0
          <InformationKey name="L2_NORM_RANGE" location="vtkDataArray" length="2">
            <Value index="0">
              4.6926322109e-24
            </Value>
            <Value index="1">
              2.653737605
            </Value>
          </InformationKey>
        </DataArray>
        <DataArray type="Float64" Name="Pressure" format="ascii" RangeMin="-3.3746040098391865" RangeMax="6.148283911365439">
          -2.2299613682094424 -2.0186455751449452 -2.525365582850849 -0.9718590079135552 -2.99690789980591 -1.0401425740448413
          -1.871954137970154 -2.872372169153987 -3.224764407330629 0.7362086027772576 -2.6424831020622164 -0.05951204516680199
          -1.7668722223103865 -3.2909489968925354 -3.152799090706683 -2.1217850488236087 -3.21669593175456 -0.2633970209030173
          -3.226458520138297 -2.8500290982846823 -2.9923670678785825 -1.0039393581065696 1.2689259165217315 -3.338421765383524
          -2.651696098750086 0.3730211794745254 -1.371372183361395 -0.39140582699427684 2.8685402173955565 0.48323754358293214
          -1.0160025769907577 2.0714619089115103 4.375782433670312 5.440984697908903 0.5645369727030886 0.9913745801168079
          1.628670319721935 5.967183965046219 1.5338534566516708 1.4163377420158976 6.1004068186830915 2.945134988213448
          4.897958234684288 6.148283911365439 2.0722740211141115 2.701218814197614 4.074112566608387 2.2961001457706125
          2.482154017285333 5.578029558309701 2.7659787672451825 3.68033988198815 2.7387328009069787 5.008456207041869
          6.132160368906695 3.4954342998710777 2.784282310814022 6.05168275205731 4.442483927692089 5.825314574063465
          2.865824023513437 3.2735709774259316 2.9307220258490694 4.025218621110146 6.031555244775775 4.802486563321001
          5.419285128571173 3.0832430270774105 5.723951835230423 5.762342643668731 3.4553709208299566 3.9208654352206644
          4.59737241980976 5.097835322489299 5.4339943465079585 5.584725818259886 3.0920288791579567 3.2998939444053907
          3.8215972269283958 5.47904570595651 4.487519539942689 5.0108775903183576 5.32159485966109 5.424800111020333
          -3.0136997384152533 -2.7960047912207173 -3.2885102161091515 -3.3016688934692224 -3.212092947235906 -3.1951263539513515
          -2.9386036522280357 -3.039716113161031 -3.2801545657074134 -3.3746040098391865
        </DataArray>
        <DataArray type="Float64" Name="BTraction" NumberOfComponents="3" format="ascii" RangeMin="0" RangeMax="6.12496417418303">
          -0.005053608869697386 2.091966583661089 0 0 0 0
          0 0 0 -0.009532254258215973 0.8571576873652265 0
          0 0 0 0 0 0
          0 0 0 0 0 0
          0 0 0 -0.00896340218272687 -0.7249185758724904 0
          0 0 0 0 0 0
          0 0 0 0 0 0
          0 0 0 0 0 0
          0 0 0 0 0 0
          0 0 0 0 0 0
          -2.1615117266764585 -0.3680019641528083 0 0 0 0
          0 0 0 -3.155739207586111 0.9693472361068438 0
          0 0 0 0 0 0
          0 0 0 -0.8460255610472736 -0.6214049116188414 0
          -2.7358506360844146 0.5805664396650014 0 0 0 0
          0 0 0 -0.0014175431926407925 -2.0377466501395314 0
          -4.270034098047953 1.129199971677752 0 -5.217744251929098 1.3820287108318938 0
          0 0 0 0 0 0
          0 0 0 -5.784066957489211 1.3662400253526472 0
          0 0 0 0 0 0
          -6.053382968339105 0.9336705916155061 0 0 0 0
          0 0 0 -3.069381317811511 3.3737906333297563 0
          0 0 0 0 0 0
          0 0 0 0 0 0
          0 0 0 0 0 0
          0 0 0 0 0 0
          0 0 0 0 0 0
          -0.003961877486379001 6.085140978490975 0 0 0 0
          0 0 0 0 0 0
          0 0 0 0 0 0
          0 0 0 0 0 0
          0.003327987298472144 -2.8426582281573043 0 0 0 0
          -0.006772120219414023 5.942689056779537 0 0 0 0
          0 0 0 0 0 0
          0 0 0 -0.00739553241472409 5.7299897501443136 0
          0 0 0 0 0 0
          0 0 0 0 0 0
          0 0 0 -0.0030066527713864624 5.558549441305514 0
          1.5786103897965387 -1.5320065124413376 0 3.3389105458217014 -0.00995392603450787 0
          3.828737270376735 -0.016123030372478014 0 0.00048354948953092193 5.474708747596081 0
          4.444545805120233 -0.018906520453153167 0 4.9702954840823805 -0.017363744802986615 0
          5.286665345043229 -0.008118606093395556 0 3.1090005475368536 2.3033045422049354 0
          0 0 0 -0.002679873177096689 2.718869929275088 0
          0 0 0 0 0 0
          0 0 0 0 0 0
          0 0 0 0 0 0
          0 0 0 -3.2303403603733707 0.9616319907707168 0
          <InformationKey name="L2_NORM_RANGE" location="vtkDataArray" length="2">
            <Value index="0">
              0
            </Value>
            <Value index="1">
              6.1249641742
            </Value>
          </InformationKey>
        </DataArray>
        <DataArray type="Float64" Name="ALEdispl" NumberOfComponents="3" format="ascii" RangeMin="0" RangeMax="2.660803599867698">
          0 0 0 0.8337959630244863 -0.09973832594245534 0
          1.6431863592744744 -0.3551779248310412 0 0 0 0
          2.106109638324507 -0.571779994450329 0 1.0445822267185356 -0.16250464319372762 0
          1.9437929926752882 -0.4327123815664631 0 2.2705641868746356 -0.5986339231413833 0
          2.427676159521907 -0.6588496794181032 0 0 0 0
          2.382059526046493 -0.5417123416015928 0 1.3475649191661239 -0.20016706010222632 0
          2.2640773858624983 -0.4145104290697465 0 2.4691042152849962 -0.6819480766187273 0
          2.55472750483568 -0.5703012764694594 0 2.4830195266312862 -0.4347210823206893 0
          2.3747617018199385 -0.6532800691717308 0 2.120401937001644 -0.28519235802474496 0
          2.5684660013785074 -0.552815711987991 0 2.631052995310449 -0.39678197153703276 0
          2.449919377368597 -0.4899797484849201 0 2.524997442410336 -0.27547016218770554 0
          1.1418824651440342 -0.09848628734932714 0 1.989849227801417 -0.4171406462139445 0
          2.619237936466717 -0.3232798799709476 0 2.2767481830066396 -0.19777285532039796 0
          2.6179971974346556 -0.2165157369171339 0 2.497988614305982 -0.18359994889346937 0
          2.040312596177613 -0.11287323388767773 0 2.445003604722132 -0.1313727260039996 0
          2.5734885558714087 -0.1052580937473808 0 0 0 0
          1.5520406482691715 -0.04217391949076463 0 1.0195783130149443 0.025025332892209127 0
          2.515697492582289 -0.04729797172698404 0 2.380574896789209 0.009451576881670797 0
          1.9974561791934293 -0.0866861104764007 0 0.5077235619666619 0.07333526428902797 0
          2.3275155141921777 -0.019734152183128944 0 2.4342567585722596 0.06064764228942292 0
          0.15125128033862856 0.06920428798398319 0 2.0402766265216417 0.13981659637723606 0
          1.3276353088579127 0.15765208260523808 0 0 0 0
          2.325616292276966 0.07260884321848679 0 2.229126618986979 0.1874066973432311 0
          1.6215024470827077 0.2342360180151916 0 2.0946390036415226 0.01689583486259499 0
          0.9659867825497015 -0.13386318072598444 0 0.9100835342125314 0.26189928657797784 0
          2.208455908473534 0.17499135096995042 0 1.8978948932270836 0.30643225364953874 0
          2.094679621239676 0.12000149597165724 0 1.2712304089069886 0.34379980423854356 0
          0 0 0 1.9919723298131562 0.29500173518747 0
          1.8831831339997094 0.09010570683397767 0 0.2444916818970381 0.18638861987285102 0
          1.5374031572185647 0.38902646701161625 0 0.5826750005859881 0.30195369615798257 0
          1.5034004023630587 -0.04819296535431604 0 1.8389462830345638 0.18178748978126827 0
          0 0 0 1.6727311501727775 0.37744466561130624 0
          0 0 0 1.2128254766956323 0.4539483359403281 0
          0.7880010306577099 0.44434004378241054 0 0.7756545538565129 -0.16847762685049095 0
          0.3742204668123555 0.2900075911954239 0 0 0 0
          0.9551199162962374 0.023488181812826324 0 1.1078873737213162 0.23370378800590916 0
          0.888616464454874 0.36308790285411985 0 0.6548298408777211 0.39758638422790693 0
          0.36749591053862685 0.31230189808534564 0 0 0 0
          0 0 0 0 0 0
          0 0 0 0 0 0
          0 0 0 0 0 0
          0 0 0 0 0 0
          1.3554613559002058 -0.14491960304459992 0 0 0 0
          2.2951473806713625 -0.774032258463066 0 2.3486915679841793 -0.7553555460834614 0
          2.2857943179116367 -0.6916230907265455 0 2.1239873853076574 -0.6657031245300599 0
          1.897347374154995 -0.4926329473035803 0 1.7062539283669589 -0.3911517537377523 0
          2.0765938656532215 -0.7107581689685052 0 1.4923998860546686 -0.336199356199626 0
          <InformationKey name="L2_NORM_RANGE" location="vtkDataArray" length="2">
            <Value index="0">
              0
            </Value>
            <Value index="1">
              2.6608035999
            </Value>
          </InformationKey>
        </DataArray>
        <DataArray type="Float64" Name="ALEveloc" NumberOfComponents="3" format="ascii" RangeMin="0" RangeMax="0.047044455082116486">
          0 0 0 -0.013924470544384837 0.002506396509446396 0
          -0.027708609659459427 0.0072763599149793246 0 0 0 0
          -0.036041717455018496 0.011141556765551286 0 -0.017065006168477836 0.0036153426560279756 0
          -0.03218440107724341 0.008997714761837083 0 -0.03864707615218155 0.01193676153729939 0
          -0.0420292972643912 0.01317464139465141 0 0 0 0
          -0.040130572177175416 0.011472623232064438 0 -0.02183694839448469 0.004570826445115861 0
          -0.03751551425202804 0.009504400001702273 0 -0.043758391128767116 0.013810051030686221 0
          -0.04382378183709568 0.012550478976544488 0 -0.04139249037271142 0.010654545563417384 0
          -0.043719374115999354 0.013714942402362595 0 -0.034455386346948114 0.007469966415546148 0
          -0.04512449452222711 0.012816025278501342 0 -0.04466655002945075 0.011195556837704013 0
          -0.04483277497773974 0.012657203431416075 0 -0.04207133314376277 0.00944481098974026 0
          -0.018117603321933018 0.002923972744353076 0 -0.04070425915393683 0.012154204190543694 0
          -0.04570477916043014 0.011146924054176832 0 -0.03764195169889728 0.007984480810638184 0
          -0.04451771621467593 0.0099080236052973 0 -0.0455671702879239 0.010223150552298 0
          -0.04184396991818362 0.00874430979040286 0 -0.0410594714210033 0.008479587355276597 0
          -0.045233947574574884 0.009439739954057003 0 0 0 0
          -0.03470402487527968 0.0058763487821475585 0 -0.023299622256990782 0.002392129128678193 0
          -0.04340966194267315 0.008362791658726665 0 -0.043548423147764304 0.008177508486251957 0
          -0.03311727353247784 0.006811613979526926 0 -0.01079372285677449 -0.00057469447596456 0
          -0.03980938135090861 0.007387408978749566 0 -0.043192367127296016 0.007175083549202127 0
          -0.002470039456995532 -0.0011892683876635751 0 -0.03908860645082424 0.005272316784228681 0
          -0.0287213614896058 0.001511052141410757 0 0 0 0
          -0.040722910339058505 0.00648671791132463 0 -0.04053829952572707 0.004956864963543806 0
          -0.0322480775537497 0.0018773286520714083 0 -0.036309188960786276 0.006603756422844748 0
          -0.01581427919820988 0.005213247325109527 0 -0.019633673462174484 -0.002463967343828144 0
          -0.03940299908411671 0.00473995522819548 0 -0.03555833454355373 0.0019588221372779935 0
          -0.036970344779148956 0.005130284305111532 0 -0.025845851720062818 -0.001611011023949671 0
          0 0 0 -0.03608897260973709 0.002203545689355768 0
          -0.03317623312772122 0.005028649194520812 0 -0.00521474661121013 -0.0034359750045584447 0
          -0.02929316908332069 -0.0009299891104888047 0 -0.01257987908860314 -0.004127118892098824 0
          -0.026480445692748766 0.006342656689494339 0 -0.032793741332303394 0.0032795546934473174 0
          0 0 0 -0.03049468742757311 -0.00040091918234763657 0
          0 0 0 -0.02317217828936413 -0.003252265832314083 0
          -0.0158913707902284 -0.005058596738563903 0 -0.014007580980720968 0.006098873992041121 0
          -0.008067522919902537 -0.004320790544619146 0 0 0 0
          -0.017249069751169577 0.0031167748126085387 0 -0.01995957114920155 -0.0001402778943045968 0
          -0.016177227148989504 -0.0030688387472441736 0 -0.012439768511178118 -0.004624546058519918 0
          -0.007429143496248902 -0.004472450458980426 0 0 0 0
          0 0 0 0 0 0
          0 0 0 0 0 0
          0 0 0 0 0 0
          0 0 0 0 0 0
          -0.023148705852350737 0.003447548741836143 0 0 0 0
          -0.04205248597427902 0.015076776456564023 0 -0.041777595087252095 0.014534013890743935 0
          -0.039770953786089525 0.013303586407178214 0 -0.03701136928899418 0.01266206404635195 0
          -0.03255016244098563 0.009637780620755487 0 -0.029392353216667555 0.007742789242741965 0
          -0.04003334095709121 0.014859298832155865 0 -0.032869722146507296 0.01124094437179457 0
          <InformationKey name="L2_NORM_RANGE" location="vtkDataArray" length="2">
            <Value index="0">
              0
            </Value>
            <Value index="1">
              0.047044455082
            </Value>
          </InformationKey>
        </DataArray>
      </PointData>
      <CellData>
        <DataArray type="UInt8" Name="vtkGhostType" format="ascii" RangeMin="0" RangeMax="1">
          0 0 0 0 0 0
          0 0 1 0 0 1
          0 1 0 0 1 1
          1 0 0 0 0 0
          1 1 0 1 1 0
          1 1 0 1 0 0
          0 0 0 0 0 0
          0 0 0 0 0 0
          0 0 0 0 0 0
          0 0 0 0 0 0
          0 0 0 0 0 0
          0 0 0 0 0 0
          0 0 0 0 0 0
          0 0 0 0 0 0
          0 1 0 0 0 0
          0 0 0 1 0 0
          0 0 0 0 0 1
          0 0 0 0 0 0
          0 0 0 0 0 0
          0 0 0 0 0 0
          0 0 0 0 0 0
          0 0 0 0 0 0
          0 1 0 0 0 0
          0 0 0 0 0 0
          0 0 0 0 0 0
        </DataArray>
        <DataArray type="Float64" Name="PStrain" NumberOfComponents="6" format="ascii" RangeMin="0.0066995124100413484" RangeMax="2.305822082593129">
          0.010108406255007186 0.010108406255007186 0 0.010108406255007186 0 0
          0.01227377520289083 0.01227377520289083 0 0.01227377520289083 0 0
          0.014980516614714324 0.014980516614714324 0 0.014980516614714324 0 0
          0.01205198745659297 0.01205198745659297 0 0.01205198745659297 0 0
          0.008768042658912897 0.008768042658912897 0 0.008768042658912897 0 0
          0.008358860661877016 0.008358860661877016 0 0.008358860661877016 0 0
          0.007602462269555641 0.007602462269555641 0 0.007602462269555641 0 0
          0.01071249790052194 0.01071249790052194 0 0.01071249790052194 0 0
          0.009206891651625184 0.009206891651625184 0 0.009206891651625184 0 0
          0.0075850168203216006 0.0075850168203216006 0 0.0075850168203216006 0 0
          0.009430434987385296 0.009430434987385296 0 0.009430434987385296 0 0
          0.005862899686100214 0.005862899686100214 0 0.005862899686100214 0 0
          0.007227218967883487 0.007227218967883487 0 0.007227218967883487 0 0
          0.004801246536425903 0.004801246536425903 0 0.004801246536425903 0 0
          0.07755174549200926 0.07755174549200926 0 0.07755174549200926 0 0
          0.05231802777847305 0.05231802777847305 0 0.05231802777847305 0 0
          0.09132704131475902 0.09132704131475902 0 0.09132704131475902 0 0
          0.09328983627106119 0.09328983627106119 0 0.09328983627106119 0 0
          0.04624521390813204 0.04624521390813204 0 0.04624521390813204 0 0
          0.05372344870136891 0.05372344870136891 0 0.05372344870136891 0 0
          0.041375905328509634 0.041375905328509634 0 0.041375905328509634 0 0
          0.02388574275677108 0.02388574275677108 0 0.02388574275677108 0 0
          0.0203357713894711 0.0203357713894711 0 0.0203357713894711 0 0
          0.023903880478118485 0.023903880478118485 0 0.023903880478118485 0 0
          0.04245900134719795 0.04245900134719795 0 0.04245900134719795 0 0
          0.024950229826425474 0.024950229826425474 0 0.024950229826425474 0 0
          0.0215663079706881 0.0215663079706881 0 0.0215663079706881 0 0
          0.028691129802473077 0.028691129802473077 0 0.028691129802473077 0 0
          0.01736661430608891 0.01736661430608891 0 0.01736661430608891 0 0
          0.024827511646606935 0.024827511646606935 0 0.024827511646606935 0 0
          0.0156387058480061 0.0156387058480061 0 0.0156387058480061 0 0
          0.013354783540161671 0.013354783540161671 0 0.013354783540161671 0 0
          0.015020047855758927 0.015020047855758927 0 0.015020047855758927 0 0
          0.007036134574983808 0.007036134574983808 0 0.007036134574983808 0 0
          0.09999999999999999 0.09999999999999999 0 0.09999999999999999 0 0
          0.004946488372210222 0.004946488372210222 0 0.004946488372210222 0 0
          0.01180744408377549 0.01180744408377549 0 0.01180744408377549 0 0
          0.007588346132252318 0.007588346132252318 0 0.007588346132252318 0 0
          0.0056126139742445295 0.0056126139742445295 0 0.0056126139742445295 0 0
          0.014339795704909973 0.014339795704909973 0 0.014339795704909973 0 0
          0.028310350132227907 0.028310350132227907 0 0.028310350132227907 0 0
          0.03381266407691214 0.03381266407691214 0 0.03381266407691214 0 0
          0.013623694022885716 0.013623694022885716 0 0.013623694022885716 0 0
          0.04413866987320418 0.04413866987320418 0 0.04413866987320418 0 0
          0.020205729546251407 0.020205729546251407 0 0.020205729546251407 0 0
          0.05738119459528429 0.05738119459528429 0 0.05738119459528429 0 0
          0.012697454318670929 0.012697454318670929 0 0.012697454318670929 0 0
          0.008250059718257177 0.008250059718257177 0 0.008250059718257177 0 0
          0.05103546850813478 0.05103546850813478 0 0.05103546850813478 0 0
          0.03257879036896535 0.03257879036896535 0 0.03257879036896535 0 0
          0.03801263844544693 0.03801263844544693 0 0.03801263844544693 0 0
          0.0251349898582676 0.0251349898582676 0 0.0251349898582676 0 0
          0.010358371885673092 0.010358371885673092 0 0.010358371885673092 0 0
          0.015955611830092985 0.015955611830092985 0 0.015955611830092985 0 0
          0.0304780716536084 0.0304780716536084 0 0.0304780716536084 0 0
          0.03054190836306505 0.03054190836306505 0 0.03054190836306505 0 0
          0.02816030322324172 0.02816030322324172 0 0.02816030322324172 0 0
          0.013526436741522988 0.013526436741522988 0 0.013526436741522988 0 0
          0.017413122217064238 0.017413122217064238 0 0.017413122217064238 0 0
          0.012440467664824553 0.012440467664824553 0 0.012440467664824553 0 0
          0.004355792706258291 0.004355792706258291 0 0.004355792706258291 0 0
          0.007678812329788518 0.007678812329788518 0 0.007678812329788518 0 0
          0.014011199799756315 0.014011199799756315 0 0.014011199799756315 0 0
          0.011381488509565123 0.011381488509565123 0 0.011381488509565123 0 0
          0.00945360177852322 0.00945360177852322 0 0.00945360177852322 0 0
          0.006406092716321544 0.006406092716321544 0 0.006406092716321544 0 0
          0.0038679652933766113 0.0038679652933766113 0 0.0038679652933766113 0 0
          1.3312670000885265 1.3312670000885265 0 1.3312670000885265 0 0
          0.8548168791097024 0.8548168791097024 0 0.8548168791097024 0 0
          0.8728434794808393 0.8728434794808393 0 0.8728434794808393 0 0
          0.9085831610462349 0.9085831610462349 0 0.9085831610462349 0 0
          0.21409547189843542 0.21409547189843542 0 0.21409547189843542 0 0
          0.24025882069948973 0.24025882069948973 0 0.24025882069948973 0 0
          1.1574178103765551 1.1574178103765551 0 1.1574178103765551 0 0
          0.5808338731534117 0.5808338731534117 0 0.5808338731534117 0 0
          0.15281569471967965 0.15281569471967965 0 0.15281569471967965 0 0
          0.23551754187255552 0.23551754187255552 0 0.23551754187255552 0 0
          0.061594841763716365 0.061594841763716365 0 0.061594841763716365 0 0
          0.30589364786041917 0.30589364786041917 0 0.30589364786041917 0 0
          0.21118125635809462 0.21118125635809462 0 0.21118125635809462 0 0
          0.20038196779128115 0.20038196779128115 0 0.20038196779128115 0 0
          0.5688809503310986 0.5688809503310986 0 0.5688809503310986 0 0
          0.15975742465715284 0.15975742465715284 0 0.15975742465715284 0 0
          0.24930353134313987 0.24930353134313987 0 0.24930353134313987 0 0
          0.12453549174405579 0.12453549174405579 0 0.12453549174405579 0 0
          0.27526679660561665 0.27526679660561665 0 0.27526679660561665 0 0
          0.08425353411330465 0.08425353411330465 0 0.08425353411330465 0 0
          0.05594730364619012 0.05594730364619012 0 0.05594730364619012 0 0
          0.3691664076448492 0.3691664076448492 0 0.3691664076448492 0 0
          0.07202543386942209 0.07202543386942209 0 0.07202543386942209 0 0
          0.02220525731089777 0.02220525731089777 0 0.02220525731089777 0 0
          0.08220842297149888 0.08220842297149888 0 0.08220842297149888 0 0
          0.028072065695589135 0.028072065695589135 0 0.028072065695589135 0 0
          0.2539781523309771 0.2539781523309771 0 0.2539781523309771 0 0
          0.1473572370370127 0.1473572370370127 0 0.1473572370370127 0 0
          0.08239657687105471 0.08239657687105471 0 0.08239657687105471 0 0
          0.31448403238603134 0.31448403238603134 0 0.31448403238603134 0 0
          0.0940693740848467 0.0940693740848467 0 0.0940693740848467 0 0
          0.05311233028841315 0.05311233028841315 0 0.05311233028841315 0 0
          0.14810809307469705 0.14810809307469705 0 0.14810809307469705 0 0
          0.07555045318924727 0.07555045318924727 0 0.07555045318924727 0 0
          0.14823986856692223 0.14823986856692223 0 0.14823986856692223 0 0
          0.0340499697450139 0.0340499697450139 0 0.0340499697450139 0 0
          0.1814801280269847 0.1814801280269847 0 0.1814801280269847 0 0
          0.16958987836632175 0.16958987836632175 0 0.16958987836632175 0 0
          0.1912861206274749 0.1912861206274749 0 0.1912861206274749 0 0
          0.032871571904262285 0.032871571904262285 0 0.032871571904262285 0 0
          0.029778337237478844 0.029778337237478844 0 0.029778337237478844 0 0
          0.1500132547336542 0.1500132547336542 0 0.1500132547336542 0 0
          0.09026280613454571 0.09026280613454571 0 0.09026280613454571 0 0
          0.08516878783612189 0.08516878783612189 0 0.08516878783612189 0 0
          0.027934356807860078 0.027934356807860078 0 0.027934356807860078 0 0
          0.17816981989560018 0.17816981989560018 0 0.17816981989560018 0 0
          0.04529547928930484 0.04529547928930484 0 0.04529547928930484 0 0
          0.07184152286626805 0.07184152286626805 0 0.07184152286626805 0 0
          0.04984600428813822 0.04984600428813822 0 0.04984600428813822 0 0
          0.07304387406046028 0.07304387406046028 0 0.07304387406046028 0 0
          0.05764362742624936 0.05764362742624936 0 0.05764362742624936 0 0
          0.037735372733999316 0.037735372733999316 0 0.037735372733999316 0 0
          0.08633920204489315 0.08633920204489315 0 0.08633920204489315 0 0
          0.10223031549890141 0.10223031549890141 0 0.10223031549890141 0 0
          0.09484697607998722 0.09484697607998722 0 0.09484697607998722 0 0
          0.015199985244448933 0.015199985244448933 0 0.015199985244448933 0 0
          0.1065029120095917 0.1065029120095917 0 0.1065029120095917 0 0
          0.09290329248256927 0.09290329248256927 0 0.09290329248256927 0 0
          0.028588050882772796 0.028588050882772796 0 0.028588050882772796 0 0
          0.05073202260966211 0.05073202260966211 0 0.05073202260966211 0 0
          0.06792542129268642 0.06792542129268642 0 0.06792542129268642 0 0
          0.06978223952229817 0.06978223952229817 0 0.06978223952229817 0 0
          0.26629135263268305 0.26629135263268305 0 0.26629135263268305 0 0
          0.03177174235762831 0.03177174235762831 0 0.03177174235762831 0 0
          0.017130251018564954 0.017130251018564954 0 0.017130251018564954 0 0
          0.05763102570793137 0.05763102570793137 0 0.05763102570793137 0 0
          0.25675249415532897 0.25675249415532897 0 0.25675249415532897 0 0
          0.07416877251500148 0.07416877251500148 0 0.07416877251500148 0 0
          0.1191359465224702 0.1191359465224702 0 0.1191359465224702 0 0
          0.11573166300989876 0.11573166300989876 0 0.11573166300989876 0 0
          0.05584288788381202 0.05584288788381202 0 0.05584288788381202 0 0
          0.018215324679912548 0.018215324679912548 0 0.018215324679912548 0 0
          0.015239643423214051 0.015239643423214051 0 0.015239643423214051 0 0
          0.0383032457154716 0.0383032457154716 0 0.0383032457154716 0 0
          0.011807444083775497 0.011807444083775497 0 0.011807444083775497 0 0
          0.0815762236751318 0.0815762236751318 0 0.0815762236751318 0 0
          0.015336255717876394 0.015336255717876394 0 0.015336255717876394 0 0
          0.0427609656633806 0.0427609656633806 0 0.0427609656633806 0 0
          0.026461533600931772 0.026461533600931772 0 0.026461533600931772 0 0
          0.02634781812826316 0.02634781812826316 0 0.02634781812826316 0 0
          0.03762721368467758 0.03762721368467758 0 0.03762721368467758 0 0
          0.04027576274236153 0.04027576274236153 0 0.04027576274236153 0 0
          0.026816155674280244 0.026816155674280244 0 0.026816155674280244 0 0
          <InformationKey name="L2_NORM_RANGE" location="vtkDataArray" length="2">