<?xml version="1.0"?>
<VTKFile type="UnstructuredGrid" version="0.1" byte_order="LittleEndian" header_type="UInt32" compressor="vtkZLibDataCompressor">
  <UnstructuredGrid>
    <Piece NumberOfPoints="97" NumberOfCells="154">
      <PointData>
        <DataArray type="Float64" Name="Velocity" NumberOfComponents="3" format="ascii" RangeMin="0" RangeMax="2.7340993953461292">
          1.0225339205685424 0.005040753742856235 0 1.032780237982262 0 0
          0.9923883603941122 -0.0015612523156556344 0 1.0042620493538348 -0.0207507477665761 0
          0.9862763696270365 -0.01336336134990373 0 1.083348583171203 0 0
          0.9897425785879782 0.0024153734424949697 0 0.9726400042336437 0 0
          0.9723204246903698 -0.012247403673282899 0 0.9941751625187383 -0.00255662383136614 0
          1.1405096074718373 0 0 0.9492905774144785 0 0
          0.910445006648046 0 0 1.4183955543451903 0 0
          0.943991974184677 -0.3026587540223513 0 1.5107651930315324 -0.49408389624087923 0
          0.6356707245996798 0 0 2.041547705340039 0 0
          0.5217602707038218 -0.4349764654045395 0 1.0147421166706836 -0.8224672803636841 0
          2.1688964702562594 -0.44161433293830343 0 0.1456065105356578 0 0
          2.5833591149697415 0 0 0.015946020698974966 -0.7182628984795569 0
          1.0054306920171379 -0.8307722439529459 0 2.6213932727578917 -0.16759271412648014 0
          -0.5946130328361001 0 0 2.7287891556655977 0 0
          -0.505801716956994 -0.24192164840669989 0 1.7515014739834167 -0.20699642756207437 0
          0.162179423097517 -0.28262475400133824 0 2.73307864569645 0.07470354790857348 0
          -0.8284896198530405 0 0 2.6081389152176344 0 0
          2.0803518548378825 0.03499374484417926 0 0.47318603200349724 0.15295010444612855 0
          -0.7351345595915343 0.01933270137685688 0 -0.7783370608594683 0 0
          2.616734048725067 0.16863854746245174 0 1.0263148935241364 0.2873111138138881 0
          -0.20484257865076766 0.31449880802894276 0 2.0854100492536043 0.10291100745782328 0
          -0.6359546786037675 0.1799384201011385 0 0.48968803842435454 0.3750835171156679 0
          0.8942558643089374 0.2576302477584165 0 0.10801792512894223 0.40570343640361056 0
          -0.5409693680786489 0 0 1.392515069392758 0.07365380666428276 0
          -0.3603377911741157 0.30194183813430353 0 2.0768830148541153 0.1282263894735805 0
          0.47259796489726563 0.39210182727854614 0 -0.5012720745588632 0.12739310392430317 0
          -0.11737167187456159 0.3812775640787009 0 0.6637834818374503 0.2181129129706155 0
          -0.43990806168270413 0.2505976936887642 0 0.1629448043828538 0.424399872435885 0
          1.2227007383325132 0.11871049084672008 0 -0.2445078078805164 0.3458873665930365 0
          0.3799257839160535 0.35598127183564493 0 -0.34481538568563175 0 0
          -0.02563379373618586 0.4139760342297578 0 -0.3495770626410091 0.14089132579637717 0
          0.4860826867192477 0.18756293731888588 0 -0.2830067923846939 0.2544077502773915 0
          0.17746170701167538 0.42877858198741015 0 1.167142076421165 0.13770131101309974 0
          -0.12348717766773916 0.3440392476001149 0 0.2649353996440774 0.347709827548315 0
          0.05400570258533672 0.3991349653361601 0 0.34482464164293636 0.22931501847602245 0
          -0.20889110818492435 0.14118293047920744 0 0.1632395519446412 0.37903622475701626 0
          -0.20000054501310616 0 0 -0.14664781127808385 0.23432394249596042 0
          0.16340203632311417 0.2853909878009966 0 -0.01693454319004892 0.3216761183366898 0
          0.07328593377375725 0.3230401801824504 0 0.09937006428174251 0.27806733956574503 0
          -0.08258420878240419 2.105784317494437e-23 0 -0.031318314014743075 0.19818869549611914 0
          0.03019452089778216 0.19189628210812945 0 -0.034245186885752205 0.069788693627044 0
          -0.022631920609493015 0.0050915017694926155 0 -0.021890366697162898 -7.504415345638152e-24 0
          -0.01322738148870578 0.0028433525685055802 0 -0.005503381531821274 0.0010403871618443793 0
          -0.0011610616456341357 0.00007555398537889584 0 0 0 0
          2.455226644292407 0.1582238230489947 0 2.6322358005384086 0.21599409294273614 0
          2.4728410661026614 0 0 0.3388036729167628 0.2433582749459526 0
          1.1694295298099553 0.280202891509569 0 2.1337803995319717 0.27986401521370297 0
          2.0663707564563656 0.2589031063977293 0 0.055465112421803776 0.19775935899615543 0
          -0.03132018901808177 0.007287680595927835 0
          <InformationKey name="L2_NORM_RANGE" location="vtkDataArray" length="2">
            <Value index="0">
              0
            </Value>
            <Value index="1">
              2.7340993953
            </Value>
          </InformationKey>
        </DataArray>
        <DataArray type="Float64" Name="Pressure" format="ascii" RangeMin="-4.505889098872081" RangeMax="0.007483813168332369">
          -0.01695828923625312 -0.016116348262802005 -0.0024664906785900544 -0.018554692057848217 -0.020447956926072115 -0.0016599627030426181
          0.007483813168332369 -0.019003433850711828 -0.050293575317159715 -0.05426264541559928 -0.020136111866226304 -0.048775147747221595
          -0.05436183962204363 -0.013603294928002385 -0.1395825570615933 -0.6083690634213841 -0.22921882625494386 -0.8620779769502394
          -0.5495052534229716 -1.2688135770227729 -1.646049195827113 -0.7190116464813154 -2.266966917946399 -1.5470201745539365
          -3.2861977092826997 -2.857969741369876 -2.163866731906173 -2.937809272269067 -3.2207405292120983 -4.349657856869568
          -4.330418217423828 -3.223977609530742 -3.386198469153345 -2.7960047912207173 -3.8373936276294915 -4.505889098872081
          -4.08843475373212 -3.6535641892383457 -3.0136997384152533 -3.8832075800917405 -4.001456486145024 -3.039716113161031
          -3.6460434506368053 -3.742354814046047 -3.4616860230943676 -3.7006808722945386 -3.500393845407823 -3.1777307234533665
          -3.6450352319291888 -2.9386036522280357 -3.5019138051089818 -3.4678108403941823 -3.586206458149899 -3.296803347896557
          -3.476771024089006 -3.4914910445729648 -3.1951263539513515 -3.473439909369742 -3.349168595600376 -3.360573921985849
          -3.4342741592255353 -3.3637184012768997 -3.2658385611824676 -3.3612536782639673 -3.3682811003839923 -3.212092947235906
          -3.3601456699865313 -3.303275317899111 -3.3405877264828083 -3.3016688934692224 -3.3093136439281263 -3.3095534077075617
          -3.311513311747563 -3.3085270173134553 -3.2885102161091515 -3.3117526943680677 -3.302861294625944 -3.2801545657074134
          -3.322731999293612 -3.3126057342967448 -3.328213015506272 -3.337150809807501 -3.3746040098391865 -3.349709527424233
          -3.360065639436642 -3.3691565853545833 -3.3681380108492043 -3.3636750715949413 -2.0186455751449452 -2.525365582850849
          -2.2299613682094424 -3.2909489968925354 -3.224764407330629 -2.872372169153987 -2.99690789980591 -3.21669593175456
          -3.338421765383524
        </DataArray>
        <DataArray type="Float64" Name="BTraction" NumberOfComponents="3" format="ascii" RangeMin="0" RangeMax="3.5957504895879895">
          0.006553412807024915 0.008289138991151768 0 0.0011446703714276902 0.014558347641892094 0
          0.003092726944819961 0.0005250455411904217 0 0 0 0
          0 0 0 0.0022052623546618233 0.00778753597688656 0
          -0.00238604075945975 -0.000028238584999089138 0 -0.0005708120950316983 -0.01863682156591488 0
          0 0 0 0 0 0
          0.005986182239875109 0.022086122406551358 0 -0.0006849870393789065 -0.04387466155684508 0
          -0.0033090988224961124 -0.076117271947669 0 0.01087624007246249 0.16627257908365797 0
          0 0 0 0 0 0
          -0.006942029615449143 -0.2466874067215139 0 0.010207384348512214 0.9496522684711017 0
          0 0 0 0 0 0
          0 0 0 -0.008841043684911705 -0.7810270428120885 0
          0.003936399062256481 2.147333588833445 0 0 0 0
          0 0 0 0 0 0
          -0.00937511386961706 -2.0351828151050784 0 -0.0006671053874504088 2.8027680888067903 0
          0 0 0 0 0 0
          0 0 0 0 0 0
          -0.0065366526212278725 -3.196056483145815 0 -0.002679873177096689 2.718869929275088 0
          0 0 0 0 0 0
          0 0 0 -0.0001886634861061006 -3.595750484638548 0
          0 0 0 0 0 0
          0 0 0 0 0 0
          0 0 0 0 0 0
          0 0 0 0 0 0
          0.003396971454364799 -3.535833824127515 0 0 0 0
          0 0 0 0 0 0
          0 0 0 0 0 0
          0 0 0 0 0 0
          0 0 0 0 0 0
          0 0 0 0 0 0
          0 0 0 0.0031372709448810807 -3.4068237063004383 0
          0 0 0 0 0 0
          0 0 0 0 0 0
          0 0 0 0 0 0
          0 0 0 0 0 0
          0 0 0 0 0 0
          0 0 0 0 0 0
          0.002191341776849268 -3.3489901554904966 0 0 0 0
          0 0 0 0 0 0
          0 0 0 0 0 0
          0.0008964844558271343 -3.345269279851038 0 0 0 0
          0 0 0 0 0 0
          -3.2303403603733707 0.9616319907707168 0 -0.000009887135472703053 -3.3544248800079344 0
          -3.232683647298328 0.9025510105655116 0 -3.2591683628551587 0.7905380977631269 0
          -3.312038730733256 0.5256480411569892 0 -1.6131080139225933 -1.5793589557064196 0
          0 0 0 0 0 0
          -0.005053608869697386 2.091966583661089 0 0 0 0
          0 0 0 0 0 0
          0 0 0 0 0 0
          -3.155739207586111 0.9693472361068438 0
          <InformationKey name="L2_NORM_RANGE" location="vtkDataArray" length="2">
            <Value index="0">
              0
            </Value>
            <Value index="1">
              3.5957504896
            </Value>
          </InformationKey>
        </DataArray>
        <DataArray type="Float64" Name="ALEdispl" NumberOfComponents="3" format="ascii" RangeMin="0" RangeMax="2.5615481266496083">
          0 0 0 0 0 0
          0 0 0 0.20266493956299367 0.033774385268483254 0
          0.1325744846960055 -0.05224651310564379 0 0 0 0
          0 0 0 0 0 0
          0.1893355491662244 -0.018421893370319808 0 0.32342659601639223 0.004228979128213367 0
          0 0 0 0 0 0
          0 0 0 0 0 0
          0.5713090565205092 0.008603519986034154 0 0.4138132697385622 0.06893258205976827 0
          0 0 0 0 0 0
          0.4234243804670714 -0.13509585153767317 0 0.8330622271963606 -0.06021018140748839 0
          0.44379061533546865 0.09330785318203272 0 0 0 0
          0 0 0 0.47135247751933795 -0.2005485969389358 0
          1.0659971301050635 -0.15197603992199585 0 0.5466780759239155 0.08707406298044702 0
          0 0 0 0 0 0
          0.6034152210986219 -0.2710636550410253 0 1.1894907384091007 -0.19114300941313658 0
          1.1480688954644571 -0.3707335726355764 0 0.7162398209527895 0.04922446601932263 0
          0 0 0 0 0 0
          1.3116511470182415 -0.24766484198386013 0 1.4162049330114779 -0.5277889543464586 0
          0.8153982990725486 -0.45765865645742954 0 0 0 0
          1.3554613559002058 -0.14491960304459992 0 1.7593480249161921 -0.5926326337212222 0
          1.3989254871916241 -0.7722815972945453 0 1.7062539283669589 -0.3911517537377523 0
          0.7044877472667925 -0.5061633749249166 0 1.7423901823855807 -0.768621985746685 0
          1.9244565762974202 -0.6784233042882103 0 1.661330731468943 -0.8454606947807548 0
          0 0 0 1.9301842409432086 -0.5939850310241253 0
          1.1411142145511204 -0.7495728233493754 0 1.897347374154995 -0.4926329473035803 0
          1.9033843498361973 -0.8266933275911545 0 0.48113706605845125 -0.38183006147361515 0
          1.47339874496529 -0.8614871753892503 0 2.0703922449872016 -0.7549185153794096 0
          0.8675658728283709 -0.6411670462689568 0 1.7942159356343168 -0.8945211142150463 0
          2.1239873853076574 -0.6657031245300599 0 1.2417576518560816 -0.8153319228470554 0
          2.048410577675463 -0.859452519397725 0 0 0 0
          1.5947954615371773 -0.8883823188558332 0 0.5469614638065265 -0.4499834944025161 0
          2.2162553614822107 -0.780150348659321 0 0.9253067546364916 -0.6844601726580001 0
          1.917095820572222 -0.8921252361422141 0 2.2857943179116367 -0.6916230907265455 0
          1.3064950215623272 -0.8052482656723232 0 2.1789192027469855 -0.8410632137025261 0
          1.6794951306132755 -0.8448851864539545 0 2.3486915679841793 -0.7553555460834614 0
          0.5553720362997513 -0.46040909724767576 0 2.017914054207203 -0.8354171600159994 0
          0 0 0 0.9253152037868706 -0.6311328095342505 0
          2.2951473806713625 -0.774032258463066 0 1.322954841643519 -0.7074509791149192 0
          1.6746113712701822 -0.6977827357484101 0 2.0765938656532215 -0.7107581689685052 0
          0 0 0 0.9025810419772934 -0.49920179734677733 0
          1.3112067128720521 -0.5098582803518178 0 0.37257653810070845 -0.26869890860315476 0
          1.4923998860546686 -0.336199356199626 0 0 0 0
          0.9495281678164013 -0.24640580443167615 0 0.4710587293955597 -0.1597844113195727 0
          0.13902304395210885 -0.08135110558622485 0 0 0 0
          0.8337959630244863 -0.09973832594245534 0 1.6431863592744744 -0.3551779248310412 0
          0 0 0 2.4691042152849962 -0.6819480766187273 0
          2.427676159521907 -0.6588496794181032 0 2.2705641868746356 -0.5986339231413833 0
          2.106109638324507 -0.571779994450329 0 2.3747617018199385 -0.6532800691717308 0
          1.989849227801417 -0.4171406462139445 0
          <InformationKey name="L2_NORM_RANGE" location="vtkDataArray" length="2">
            <Value index="0">
              0
            </Value>
            <Value index="1">
              2.5615481266
            </Value>
          </InformationKey>
        </DataArray>
        <DataArray type="Float64" Name="ALEveloc" NumberOfComponents="3" format="ascii" RangeMin="0" RangeMax="0.04588588348989613">
          0 0 0 0 0 0
          0 0 0 -0.003566189892043159 -0.0005949587925918529 0
          -0.0023326852919971497 0.0009187495707418392 0 0 0 0
          0 0 0 0 0 0
          -0.00333175898676219 0.00032370221402652777 0 -0.0056911228937981395 -0.00007545327278067268 0
          0 0 0 0 0 0
          0 0 0 0 0 0
          -0.010059273540881652 -0.00010806170320432767 0 -0.00727773994856129 -0.0011375972647938992 0
          0 0 0 0 0 0
          -0.0074737684879251365 0.002454426407486776 0 -0.01465749172771802 0.0011887629874442612 0
          -0.007753206158461867 -0.001486181373822948 0 0 0 0
          0 0 0 -0.008363187884222523 0.0036561769209523254 0
          -0.018778975068050263 0.002987901909006885 0 -0.00947768857003195 -0.0012748221733350218 0
          0 0 0 0 0 0
          -0.01077786165340433 0.004949386270654443 0 -0.020837417387516544 0.003832723376839209 0
          -0.02034906491069033 0.006801839881954264 0 -0.012294792688669398 -0.0004503158689207337 0
          0 0 0 0 0 0
          -0.022945234118768365 0.0049177510347355735 0 -0.025058910987429073 0.00983835540262512 0
          -0.014822332625144652 0.008334399750201227 0 0 0 0
          -0.023148705852350737 0.003447548741836143 0 -0.031066832105363318 0.011146283467868723 0
          -0.025506031458551348 0.014454221905828124 0 -0.029392353216667555 0.007742789242741965 0
          -0.013319569992980007 0.009628334951428896 0 -0.031294080022609805 0.01441170311980966 0
          -0.03398437121351883 0.012774071760320194 0 -0.0303052599624154 0.01593846335738247 0
          0 0 0 -0.033667282063061243 0.011310639537260081 0
          -0.021363258556274856 0.014387775210138232 0 -0.03255016244098563 0.009637780620755487 0
          -0.034309912701058654 0.01552365391159194 0 -0.0093909910995007 0.007550093256584289 0
          -0.0273858937005258 0.016527678749207686 0 -0.03670554367952494 0.01418052614556009 0
          -0.0167201136078039 0.012699678120195568 0 -0.0330423984186381 0.017027102568171193 0
          -0.03701136928899418 0.01266206404635195 0 -0.023630941367993152 0.01610201985711046 0
          -0.037174499027653685 0.016196137015761947 0 0 0 0
          -0.030019224037099335 0.017371215583241284 0 -0.0110292499428849 0.009412945585598465 0
          -0.039400910975404546 0.014728978390001535 0 -0.018262214055258186 0.014243858265368559 0
          -0.035722591214178756 0.017163152389191527 0 -0.039770953786089525 0.013303586407178214 0
          -0.025396070994359032 0.016556289232475763 0 -0.03977651152459716 0.015985807854819845 0
          -0.03216044705647114 0.01698265431761614 0 -0.041777595087252095 0.014534013890743935 0
          -0.011489049999585887 0.010403375545606774 0 -0.03816247072045975 0.016408347213450192 0
          0 0 0 -0.018902590367191552 0.014330419091291069 0
          -0.04205248597427902 0.015076776456564023 0 -0.0266046845408916 0.015621786731310872 0
          -0.033111814065072576 0.015123114752686018 0 -0.04003334095709121 0.014859298832155865 0
          0 0 0 -0.018924296538931573 0.012668583874642425 0
          -0.027929247116460942 0.013326753043974793 0 -0.007647104796658644 0.007294993817967832 0
          -0.032869722146507296 0.01124094437179457 0 0 0 0
          -0.020676889094438877 0.008388699241691722 0 -0.009247743831642952 0.00497447642461829 0
          -0.0019987632780365527 0.0019041361646150168 0 0 0 0
          -0.013924470544384837 0.002506396509446396 0 -0.027708609659459427 0.0072763599149793246 0
          0 0 0 -0.043758391128767116 0.013810051030686221 0
          -0.0420292972643912 0.01317464139465141 0 -0.03864707615218155 0.01193676153729939 0
          -0.036041717455018496 0.011141556765551286 0 -0.043719374115999354 0.013714942402362595 0
          -0.04070425915393683 0.012154204190543694 0
          <InformationKey name="L2_NORM_RANGE" location="vtkDataArray" length="2">
            <Value index="0">
              0
            </Value>
            <Value index="1">
              0.04588588349
            </Value>
          </InformationKey>
        </DataArray>
      </PointData>
      <CellData>
        <DataArray type="UInt8" Name="vtkGhostType" format="ascii" RangeMin="0" RangeMax="0">
          0 0 0 0 0 0
          0 0 0 0 0 0
          0 0 0 0 0 0
          0 0 0 0 0 0
          0 0 0 0 0 0
          0 0 0 0 0 0
          0 0 0 0 0 0
          0 0 0 0 0 0
          0 0 0 0 0 0
          0 0 0 0 0 0
          0 0 0 0 0 0
          0 0 0 0 0 0
          0 0 0 0 0 0
          0 0 0 0 0 0
          0 0 0 0 0 0
          0 0 0 0 0 0
          0 0 0 0 0 0
          0 0 0 0 0 0
          0 0 0 0 0 0
          0 0 0 0 0 0
          0 0 0 0 0 0
          0 0 0 0 0 0
          0 0 0 0 0 0
          0 0 0 0 0 0
          0 0 0 0 0 0
          0 0 0 0
        </DataArray>
        <DataArray type="Float64" Name="PStrain" NumberOfComponents="6" format="ascii" RangeMin="7.005312688327768e-8" RangeMax="0.4767760773576562">
          0.09999999999999999 0.09999999999999999 0 0.09999999999999999 0 0
          0.000001842601921987748 0.000001842601921987748 0 0.000001842601921987748 0 0
          0.000008606628877302977 0.000008606628877302977 0 0.000008606628877302977 0 0
          0.0000016539084342362812 0.0000016539084342362812 0 0.0000016539084342362812 0 0
          0.0000016939049683382472 0.0000016939049683382472 0 0.0000016939049683382472 0 0
          2.4435847056257864e-7 2.4435847056257864e-7 0 2.4435847056257864e-7 0 0
          0.0000011219061156473295 0.0000011219061156473295 0 0.0000011219061156473295 0 0
          1.5861582569841326e-7 1.5861582569841326e-7 0 1.5861582569841326e-7 0 0
          5.295604266670433e-7 5.295604266670433e-7 0 5.295604266670433e-7 0 0
          4.5987697512431474e-7 4.5987697512431474e-7 0 4.5987697512431474e-7 0 0
          1.161469260308637e-7 1.161469260308637e-7 0 1.161469260308637e-7 0 0
          2.0701772444015158e-7 2.0701772444015158e-7 0 2.0701772444015158e-7 0 0
          0.000013748815186284392 0.000013748815186284392 0 0.000013748815186284392 0 0
          8.757403246258036e-8 8.757403246258036e-8 0 8.757403246258036e-8 0 0
          8.757403246258036e-8 8.757403246258036e-8 0 8.757403246258036e-8 0 0
          0.000013748815186284392 0.000013748815186284392 0 0.000013748815186284392 0 0
          4.044519166363538e-8 4.044519166363538e-8 0 4.044519166363538e-8 0 0
          0.00001011634281271222 0.00001011634281271222 0 0.00001011634281271222 0 0
          0.009206891651625184 0.009206891651625184 0 0.009206891651625184 0 0
          0.005862899686100214 0.005862899686100214 0 0.005862899686100214 0 0
          0.008462415800672427 0.008462415800672427 0 0.008462415800672427 0 0
          0.004801246536425903 0.004801246536425903 0 0.004801246536425903 0 0
          0.005573920157681373 0.005573920157681373 0 0.005573920157681373 0 0
          0.005440647323559616 0.005440647323559616 0 0.005440647323559616 0 0
          0.005276727374371638 0.005276727374371638 0 0.005276727374371638 0 0
          0.0028890343769911358 0.0028890343769911358 0 0.0028890343769911358 0 0
          0.002205776879991948 0.002205776879991948 0 0.002205776879991948 0 0
          0.0041075064114832905 0.0041075064114832905 0 0.0041075064114832905 0 0
          0.005319201830186525 0.005319201830186525 0 0.005319201830186525 0 0
          0.002111221941744018 0.002111221941744018 0 0.002111221941744018 0 0
          0.0010241209204738257 0.0010241209204738257 0 0.0010241209204738257 0 0
          0.0024941921914457513 0.0024941921914457513 0 0.0024941921914457513 0 0
          0.0037249474169876026 0.0037249474169876026 0 0.0037249474169876026 0 0
          0.0017559206758843587 0.0017559206758843587 0 0.0017559206758843587 0 0
          0.004455912736304451 0.004455912736304451 0 0.004455912736304451 0 0
          0.0022208378397155534 0.0022208378397155534 0 0.0022208378397155534 0 0
          0.002472171811718485 0.002472171811718485 0 0.002472171811718485 0 0
          0.0017776717566605565 0.0017776717566605565 0 0.0017776717566605565 0 0
          0.0006293846869738822 0.0006293846869738822 0 0.0006293846869738822 0 0
          0.0008238695535820585 0.0008238695535820585 0 0.0008238695535820585 0 0
          0.0008753839297911956 0.0008753839297911956 0 0.0008753839297911956 0 0
          0.0007188758599184617 0.0007188758599184617 0 0.0007188758599184617 0 0
          0.0009702012539260531 0.0009702012539260531 0 0.0009702012539260531 0 0
          0.0011709542656627098 0.0011709542656627098 0 0.0011709542656627098 0 0
          0.002263941769649155 0.002263941769649155 0 0.002263941769649155 0 0
          0.001100462997256258 0.001100462997256258 0 0.001100462997256258 0 0
          0.0008034452866014527 0.0008034452866014527 0 0.0008034452866014527 0 0
          0.00031482356092908404 0.00031482356092908404 0 0.00031482356092908404 0 0
          0.0002708237572412856 0.0002708237572412856 0 0.0002708237572412856 0 0
          0.0003010603266464092 0.0003010603266464092 0 0.0003010603266464092 0 0
          0.0003297562121144797 0.0003297562121144797 0 0.0003297562121144797 0 0
          0.0001928151675731346 0.0001928151675731346 0 0.0001928151675731346 0 0
          0.0002443736252957549 0.0002443736252957549 0 0.0002443736252957549 0 0
          0.00011831617054634266 0.00011831617054634266 0 0.00011831617054634266 0 0
          0.00007753976628844323 0.00007753976628844323 0 0.00007753976628844323 0 0
          0.00007485333416293481 0.00007485333416293481 0 0.00007485333416293481 0 0
          0.00010596872753413687 0.00010596872753413687 0 0.00010596872753413687 0 0
          0.00031661565933668704 0.00031661565933668704 0 0.00031661565933668704 0 0
          0.0001322892218931141 0.0001322892218931141 0 0.0001322892218931141 0 0
          0.0004061200050895509 0.0004061200050895509 0 0.0004061200050895509 0 0
          0.00005386586503519656 0.00005386586503519656 0 0.00005386586503519656 0 0
          0.00005605155371831066 0.00005605155371831066 0 0.00005605155371831066 0 0
          0.00008716147863889297 0.00008716147863889297 0 0.00008716147863889297 0 0
          0.09132704131475902 0.09132704131475902 0 0.09132704131475902 0 0
          0.09328983627106119 0.09328983627106119 0 0.09328983627106119 0 0
          0.04624521390813204 0.04624521390813204 0 0.04624521390813204 0 0
          0.11413163969118853 0.11413163969118853 0 0.11413163969118853 0 0
          0.13514753246922465 0.13514753246922465 0 0.13514753246922465 0 0
          0.10003059466885085 0.10003059466885085 0 0.10003059466885085 0 0
          0.0743277930441134 0.0743277930441134 0 0.0743277930441134 0 0
          0.153502695492192 0.153502695492192 0 0.153502695492192 0 0
          0.05102946548282607 0.05102946548282607 0 0.05102946548282607 0 0
          0.05538854782337854 0.05538854782337854 0 0.05538854782337854 0 0
          0.02869474603694628 0.02869474603694628 0 0.02869474603694628 0 0
          0.04245900134719795 0.04245900134719795 0 0.04245900134719795 0 0
          0.024950229826425474 0.024950229826425474 0 0.024950229826425474 0 0
          0.0555668842937406 0.0555668842937406 0 0.0555668842937406 0 0
          0.06800766246206026 0.06800766246206026 0 0.06800766246206026 0 0
          0.07686807246694054 0.07686807246694054 0 0.07686807246694054 0 0
          0.04392766511074052 0.04392766511074052 0 0.04392766511074052 0 0
          0.05082468464870287 0.05082468464870287 0 0.05082468464870287 0 0
          0.039639012178072044 0.039639012178072044 0 0.039639012178072044 0 0
          0.07875211273538782 0.07875211273538782 0 0.07875211273538782 0 0
          0.029220261722774303 0.029220261722774303 0 0.029220261722774303 0 0
          0.028691129802473077 0.028691129802473077 0 0.028691129802473077 0 0
          0.01736661430608891 0.01736661430608891 0 0.01736661430608891 0 0
          0.03222744155133217 0.03222744155133217 0 0.03222744155133217 0 0
          0.017903493538226033 0.017903493538226033 0 0.017903493538226033 0 0
          0.029679271768121455 0.029679271768121455 0 0.029679271768121455 0 0
          0.04546441505135187 0.04546441505135187 0 0.04546441505135187 0 0
          0.04835051874644539 0.04835051874644539 0 0.04835051874644539 0 0
          0.02920762705779719 0.02920762705779719 0 0.02920762705779719 0 0
          0.040129503311155515 0.040129503311155515 0 0.040129503311155515 0 0
          0.026172252512357722 0.026172252512357722 0 0.026172252512357722 0 0
          0.027669406934028855 0.027669406934028855 0 0.027669406934028855 0 0
          0.021614221465846278 0.021614221465846278 0 0.021614221465846278 0 0
          0.017799400701287403 0.017799400701287403 0 0.017799400701287403 0 0
          0.009942779259803641 0.009942779259803641 0 0.009942779259803641 0 0
          0.0156387058480061 0.0156387058480061 0 0.0156387058480061 0 0
          0.013354783540161671 0.013354783540161671 0 0.013354783540161671 0 0
          0.05415494784367464 0.05415494784367464 0 0.05415494784367464 0 0
          0.016576713991706838 0.016576713991706838 0 0.016576713991706838 0 0
          0.018640182330195095 0.018640182330195095 0 0.018640182330195095 0 0
          0.012821925475497615 0.012821925475497615 0 0.012821925475497615 0 0
          0.04609868237894648 0.04609868237894648 0 0.04609868237894648 0 0
          0.05979433882361572 0.05979433882361572 0 0.05979433882361572 0 0
          0.017311893989517418 0.017311893989517418 0 0.017311893989517418 0 0
          0.033328436956485685 0.033328436956485685 0 0.033328436956485685 0 0
          0.028388510108779935 0.028388510108779935 0 0.028388510108779935 0 0
          0.017589160600789754 0.017589160600789754 0 0.017589160600789754 0 0
          0.021082451948452038 0.021082451948452038 0 0.021082451948452038 0 0
          0.010928359375579722 0.010928359375579722 0 0.010928359375579722 0 0
          0.03349654628196929 0.03349654628196929 0 0.03349654628196929 0 0
          0.02027671924388033 0.02027671924388033 0 0.02027671924388033 0 0
          0.016714267533400867 0.016714267533400867 0 0.016714267533400867 0 0
          0.013049191631241023 0.013049191631241023 0 0.013049191631241023 0 0
          0.008016031162520046 0.008016031162520046 0 0.008016031162520046 0 0
          0.03926493359626523 0.03926493359626523 0 0.03926493359626523 0 0
          0.019271623484025762 0.019271623484025762 0 0.019271623484025762 0 0
          0.010980185585047448 0.010980185585047448 0 0.010980185585047448 0 0
          0.015392072864485764 0.015392072864485764 0 0.015392072864485764 0 0
          0.039211013304251585 0.039211013304251585 0 0.039211013304251585 0 0
          0.024265154384777058 0.024265154384777058 0 0.024265154384777058 0 0
          0.02436164741983906 0.02436164741983906 0 0.02436164741983906 0 0
          0.011282336903700795 0.011282336903700795 0 0.011282336903700795 0 0
          0.02355246126327913 0.02355246126327913 0 0.02355246126327913 0 0
          0.015065841059453956 0.015065841059453956 0 0.015065841059453956 0 0
          0.025625194807238072 0.025625194807238072 0 0.025625194807238072 0 0
          0.01812275233209922 0.01812275233209922 0 0.01812275233209922 0 0
          0.014461365875917322 0.014461365875917322 0 0.014461365875917322 0 0
          0.011573179774718082 0.011573179774718082 0 0.011573179774718082 0 0
          0.018306677820568242 0.018306677820568242 0 0.018306677820568242 0 0
          0.010772983328829826 0.010772983328829826 0 0.010772983328829826 0 0
          0.007036134574983808 0.007036134574983808 0 0.007036134574983808 0 0
          0.007394940271413276 0.007394940271413276 0 0.007394940271413276 0 0
          0.01160563701521428 0.01160563701521428 0 0.01160563701521428 0 0
          0.012351000907834338 0.012351000907834338 0 0.012351000907834338 0 0
          0.028800343155221918 0.028800343155221918 0 0.028800343155221918 0 0
          0.27526679660561665 0.27526679660561665 0 0.27526679660561665 0 0
          0.2539781523309771 0.2539781523309771 0 0.2539781523309771 0 0
          0.14823986856692223 0.14823986856692223 0 0.14823986856692223 0 0