<?xml version="1.0"?>
<VTKFile type="UnstructuredGrid" version="0.1" byte_order="LittleEndian" header_type="UInt32" compressor="vtkZLibDataCompressor">
  <UnstructuredGrid>
    <Piece NumberOfPoints="94" NumberOfCells="150">
      <PointData>
        <DataArray type="Float64" Name="Velocity" NumberOfComponents="3" format="ascii" RangeMin="3.595679927580445e-23" RangeMax="2.7028095982556706">
          2.510582873186346 0 0 2.525618690482064 0.15300053186376178 0
          2.6931119306441307 0.22875282172078662 0 2.2341506282145764 0 0
          2.060208248109178 0.3096587525711371 0 2.366371173456234 0.2682507257060704 0
          2.5967243144094505 0.47855259575672116 0 2.1028157027532126 0.3371768111541454 0
          1.1023996647244096 0.3377288712764259 0 1.8182383003850355 0 0
          2.2482974455930878 0.5032979584560625 0 2.156780292867025 0.38512030547717624 0
          2.468188633247871 0.7239409447769991 0 0.29363693242492767 0.28767455679042686 0
          1.2775543052392229 0.4278554721568071 0 2.473704996536246 0.7980358605689789 0
          0.06244050807318737 0.22951086948229876 0 2.2459186855792526 0.7199278075377091 0
          0.43384557620919184 0.31180521558866797 0 1.7038639056033265 0.7730616445920941 0
          0.01055885706670519 0.014646982951134258 0 2.4018916438116835 1.1036874132530783 0
          1.723780478946636 0.28532747900539973 0 0.0025040763606709367 0.016812791879488656 0
          0.9403183909721737 0.5219946519789008 0 2.102912548648837 0.8787320488666815 0
          2.091310756624607 1.3381532538914647 0 0.012280444156281137 0.020000736196863322 0
          0.004130536218023506 0.021241984237917993 0 2.0499504279574854 1.0908609069220303 0
          1.7297394005195206 1.5190845827583714 0 1.4142330405759689 0 0
          -0.0023935731201418717 0.01945626923292 0 -0.005071342661282064 0.015019439713444025 0
          1.8625297900901174 1.3640921218944733 0 1.1193657137887967 1.6551828099683887 0
          1.6796389415783963 0.6283673352219763 0 -0.004428367743934063 0.00919934919089524 0
          1.736467928079295 1.0066664812407116 0 1.5619330234123476 1.522142708330316 0
          -0.0010485009088445766 0.003702707398523783 0 1.1070786924030986 1.5862069569769612 0
          0.321628427509305 0.8072660772910659 0 -3.595679927580445e-23 0 0
          1.532753117780303 1.1208476971375845 0 1.235769454080248 1.4361913603945906 0
          0.9444210855541582 1.3958009622775465 0 1.450053372054066 0.7352783723505478 0
          1.2717656950847445 0.19866961422206997 0 0.4388121058898946 0.7473353340227943 0
          1.3262766581116094 1.0484708485119933 0 1.0823272540141025 1.1725340826221011 0
          1.3621528422898765 0.8230070036527846 0 0.7914838061149267 1.0333666491490585 0
          0.19243518435255683 0 0 1.1499641383900594 0.9619842966943726 0
          1.2974057543032997 0.6435628393862641 0 0.34340412984776536 0.27158471356215874 0
          0.9507936591750875 0.9318479362731299 0 0.6494474586522921 0.5490276979492016 0
          1.2352764855543354 0.3872865700912686 0 1.2153768532832852 0.6047171420263212 0
          1.1182468178406608 0 0 1.0450758974691423 0.6844148636501377 0
          0.4911183967878845 0 0 0.8881157228453533 0.6290051442078757 0
          0.8271653862676251 0.4917323194251281 0 1.040697843208914 0.12941391309707442 0
          0.7671449157873123 0.28702770255975824 0 0.7322521097022103 0 0
          1.0512739101190656 0.23181157580316197 0 1.0492157793269223 0.35701371464990156 0
          0.9799919648470421 0.32863155003252037 0 0.9521189277556493 0.25906051906269395 0
          0.9080210737775515 0.15528933578425808 0 0.9180809799581617 0 0
          1.000000000048788 0 0 1.000000000048788 0 0
          1.0000000000487879 0 0 1.00250006593739 0 0
          1.0000000000487879 0 0 1.000000000048788 0 0
          1.000000000048788 0 0 1.000000000048788 0 0
          2.687735056078287 0.10437666427205752 0 2.5989185676196227 0 0
          0.13896078248574986 0.3207188127830494 0 0.28943021540181946 0.2917924478483145 0
          1.1072416228603141 0.21095268820066973 0 1.1731845973079422 0.16677691009152545 0
          2.0937751108453835 0.14031323274053698 0 2.1113704914990263 0.06056115089536164 0
          0.09508716686581214 0.29644333844581044 0 -0.003629359528726138 0.017477675792437555 0
          <InformationKey name="L2_NORM_RANGE" location="vtkDataArray" length="2">
            <Value index="0">
              3.5956799276e-23
            </Value>
            <Value index="1">
              2.7028095983
            </Value>
          </InformationKey>
        </DataArray>
        <DataArray type="Float64" Name="Pressure" format="ascii" RangeMin="-3.3317802141320705" RangeMax="5.897599920661582">
          -2.3048260207003963 -2.1004066488096713 -2.6668027754868686 -1.0537616848463707 -3.1317639135691993 -1.1220798645631076
          -1.9747051606808277 -2.9383478498655027 -3.1864828786542057 0.6561344884012876 -2.6902469654555716 -0.14744937890070298
          -1.8635244741343162 -3.1828998038998946 -3.0966132071278265 -2.1904645616621576 -3.054066702241965 -0.37298770013325355
          -3.119446025428548 -2.8493262170616473 -2.865179970130427 -1.127934351486879 1.1611322003773519 -3.0445509754660596
          -2.6786835947394296 0.22692884250484324 -1.50050458515701 -0.608269712773718 2.4290246062803904 0.3095666408979831
          -1.2066655127047219 1.9418033770529373 3.91834603414567 5.041912865702917 0.3426956813629043 0.7082158333526827
          1.4716483010603088 5.6583062524586625 1.329260442257584 1.1353843041611593 5.835862729410901 2.5651897062810685
          4.4994542792037056 5.897599920661582 1.8239743502105161 2.371019190366017 3.6886432248937138 2.0874856982078733
          2.321737859380692 5.242249412326908 2.486920424118397 3.3321563764403472 2.4924510565870643 4.6606258536516085
          5.889890521719019 3.1867722761267068 2.556444614583166 5.798024780628463 4.104764475137966 5.540886881946704
          2.662524544681224 3.02144423302232 2.7443435379999563 3.7271471946772508 5.777822786751732 4.493931307437375
          5.128297926238931 2.8791434492356545 5.452596530246164 5.498028832525567 3.2211458976074785 3.6588500801115016
          4.3184542028072395 4.818836687851485 5.161444916905551 5.317466897136924 2.88404545109008 3.076061313959781
          3.5706743808123655 5.210524624397266 4.220339518559555 4.739848510952454 5.05254392512598 5.156621313371076
          -3.0618081333716205 -2.820477112438774 -3.153773161161389 -3.2468377749473256 -3.2528145677260034 -3.3317802141320705
          -3.116130989757036 -3.176222150301995 -3.0671857162806844 -2.99648192080702
        </DataArray>
        <DataArray type="Float64" Name="BTraction" NumberOfComponents="3" format="ascii" RangeMin="0" RangeMax="5.854477033172805">
          -0.007129262004671504 2.1626230325856173 0 0 0 0
          0 0 0 -0.010632172608290977 0.9374238837215818 0
          0 0 0 0 0 0
          0 0 0 0 0 0
          0 0 0 -0.008557255857854832 -0.6380672602826751 0
          0 0 0 0 0 0
          0 0 0 0 0 0
          0 0 0 0 0 0
          0 0 0 0 0 0
          0 0 0 0 0 0
          -2.037550797514986 -0.384217061302435 0 0 0 0
          0 0 0 -2.8674376502976 0.8975671948610175 0
          0 0 0 0 0 0
          0 0 0 -0.6735344285087042 -0.703679807016707 0
          -2.327787510313825 0.47604862381364393 0 0 0 0
          0 0 0 -0.0005659089916991862 -1.9084572620557483 0
          -3.8302514539363335 1.024977821196693 0 -4.8284997734885735 1.3009607094869893 0
          0 0 0 0 0 0
          0 0 0 -5.468227721145149 1.3127015071624508 0
          0 0 0 0 0 0
          -5.784254511458278 0.9040470555354971 0 0 0 0
          0 0 0 -2.9437329033379998 3.23848145721936 0
          0 0 0 0 0 0
          0 0 0 0 0 0
          0 0 0 0 0 0
          0 0 0 0 0 0
          0 0 0 0 0 0
          -0.003975722161161794 5.838822389877227 0 0 0 0
          0 0 0 0 0 0
          0 0 0 0 0 0
          0 0 0 0 0 0
          0.0037106940874487536 -2.6624118186721666 0 0 0 0
          -0.006783298149822372 5.68857853623354 0 0 0 0
          0 0 0 0 0 0
          0 0 0 -0.00744479024109677 5.466492265826016 0
          0 0 0 0 0 0
          0 0 0 0 0 0
          0 0 0 -0.0030316549766474083 5.291160430497597 0
          1.472187970884876 -1.4315473656573177 0 3.113735196376379 -0.009935633608204025 0
          3.579980633840696 -0.01611373098301536 0 0.00047767133945642975 5.206327580434939 0
          4.179657988387469 -0.018944354000273854 0 4.700201946017959 -0.01743609318146762 0
          5.017333368709887 -0.008174884232904987 0 2.95411309438755 2.189769058582763 0
          0 0 0 -0.004619594060378698 2.7539676466043366 0
          0 0 0 0 0 0
          0 0 0 0 0 0
          0 0 0 0 0 0
          0 0 0 -2.865279595782975 0.8701897363660455 0
          <InformationKey name="L2_NORM_RANGE" location="vtkDataArray" length="2">
            <Value index="0">
              0
            </Value>
            <Value index="1">
              5.8544770332
            </Value>
          </InformationKey>
        </DataArray>
        <DataArray type="Float64" Name="ALEdispl" NumberOfComponents="3" format="ascii" RangeMin="0" RangeMax="2.716086807141515">
          0 0 0 0.8504411594645451 -0.10356515427223674 0
          1.6759888798916949 -0.36588631609217476 0 0 0 0
          2.1481950438335495 -0.5880544972021152 0 1.0659771542173924 -0.16753724129410072 0
          1.9835035244113521 -0.4452626494367205 0 2.3163056089406946 -0.6157267318244154 0
          2.4763666491096337 -0.6777206248348637 0 0 0 0
          2.4305704503532075 -0.5575439132694567 0 1.3757482038180366 -0.2057723079988148 0
          2.310768098033098 -0.42676208696850304 0 2.51824444568509 -0.7016458085367819 0
          2.6065408742162104 -0.5873345928992412 0 2.5342203685944016 -0.44789646417716117 0
          2.4213026221678624 -0.6724484965845344 0 2.1647211665809505 -0.2935788535577031 0
          2.620042485298717 -0.5697479905776427 0 2.6850220056322542 -0.4096149084185511 0
          2.4979156969858103 -0.5052937636443342 0 2.577454336469421 -0.2848231052413177 0
          1.1660757672587247 -0.10108098215497632 0 2.0270186384098086 -0.4288806291474151 0
          2.67228571960338 -0.3344488926000077 0 2.3244874398238875 -0.20459336254930982 0
          2.6719504645305263 -0.22482196537043084 0 2.548326863100217 -0.19167808407648143 0
          2.0798142047592725 -0.11760122918298518 0 2.49620368224449 -0.13710906975396014 0
          2.626040599843358 -0.11107028593055293 0 0 0 0
          1.5804562847115997 -0.043962950506422335 0 1.0369875251655603 0.02556628389140423 0
          2.5678781939745274 -0.05124794546388983 0 2.4283810749058343 0.0066365586233597465 0
          2.039934111727844 -0.09057770392720582 0 0.5154293469115763 0.07526372410402636 0
          2.3764504004190323 -0.022545435078612334 0 2.484182816869918 0.059393756486991696 0
          0.15320961922833728 0.070752729244725 0 2.080433422864545 0.14064995331173616 0
          1.351912351029668 0.1600983126336057 0 0 0 0
          2.37409761078111 0.07204002707898104 0 2.274132935670955 0.1894015736879162 0
          1.652551670882888 0.23773933792388957 0 2.138975679845326 0.015448002713711452 0
          0.9867838243064466 -0.13766204416635427 0 0.9261709140494133 0.26677259348373494 0
          2.254057731835095 0.17703886093022764 0 1.9355449931255533 0.3114330103570841 0
          2.1385926975224074 0.12098079478215787 0 1.2950783247004836 0.3499968203278719 0
          0 0 0 2.03246358667274 0.29993815270084323 0
          1.9230027063789374 0.09067425817589736 0 0.2486650558344643 0.18989223211052397 0
          1.567453062570093 0.39611832400536123 0 0.5931301402801059 0.30772991338919037 0
          1.5359180786532571 -0.05041457218910715 0 1.8775471444752296 0.18463020088558724 0
          0 0 0 1.7066032443105625 0.38456505500164273 0
          0 0 0 1.2363933513932819 0.462668144709174 0
          0.8028022856186928 0.45290388485713934 0 0.7927282699551103 -0.1727622904857423 0
          0.3811009518161093 0.29557904583257716 0 0 0 0
          0.9756372350615949 0.023620664141893177 0 1.1309430168198678 0.2383146454372727 0
          0.906518137188081 0.3704000900579366 0 0.6675305053369109 0.40549621743029096 0
          0.3744044751083597 0.3184078609683104 0 0 0 0
          0 0 0 0 0 0
          0 0 0 0 0 0
          0 0 0 0 0 0
          0 0 0 0 0 0
          1.3821640813004976 -0.15036040504746523 0 0 0 0
          2.3401704961195158 -0.7954363777255762 0 2.395167122343376 -0.7762564738408297 0
          2.3312950973237894 -0.7108803352737688 0 2.166063079710092 -0.6839531570908306 0
          1.9350014220004577 -0.5066737652999976 0 1.7399538128532352 -0.4025897383889764 0
          2.1165437250603545 -0.7303836660360241 0 1.5184587536976937 -0.3441879576012039 0
          <InformationKey name="L2_NORM_RANGE" location="vtkDataArray" length="2">
            <Value index="0">
              0
            </Value>
            <Value index="1">
              2.7160868071
            </Value>
          </InformationKey>
        </DataArray>
        <DataArray type="Float64" Name="ALEveloc" NumberOfComponents="3" format="ascii" RangeMin="0" RangeMax="0.06421103122787084">
          0 0 0 0.019729752650314847 -0.0029773706903184483 0
          0.03855024696250231 -0.010009737800665164 0 0 0 0
          0.048826058997278654 -0.016054932267396627 0 0.025775275398129738 -0.0043805383455352565 0
          0.047372656584957706 -0.011795038702426486 0 0.05333825405559711 -0.01672914817073945 0
          0.05596445913168502 -0.01859087144638827 0 0 0 0
          0.0571598949802028 -0.014807599968718055 0 0.03427093613658494 -0.004656134053776906 0
          0.05587257338365159 -0.010506122573093357 0 0.05529407352860183 -0.019394317886113344 0
          0.06021354542628776 -0.015647045364315826 0 0.06109081041972386 -0.010638502273361605 0
          0.05040123259651619 -0.01846549217424287 0 0.05401321874022891 -0.0059472711857643246 0
          0.05868442285584674 -0.01505519389883947 0 0.06359470127889866 -0.008875274677115574 0
          0.05215061781761943 -0.012112484809085333 0 0.06285123547874338 -0.004383235141153019 0
          0.03007406290738235 -0.0011925732665405697 0 0.03492411334142531 -0.005675213892408326 0
          0.061073031732225225 -0.005472501695509613 0 0.057602505828247 -0.001599612620192814 0
          0.06367015433976064 -0.001372290849989688 0 0.05601541504433305 -0.00027405932938462385 0
          0.03835205475841574 0.0045650137763216525 0 0.06112846513628023 0.0017136038419382216 0
          0.06046684038753236 0.0031840404534126954 0 0 0 0
          0.024003288980630977 0.006704026426097881 0 0.014208824573452405 0.006773816479482692 0
          0.06104331695085907 0.005400047373814151 0 0.05297264564973503 0.007743166761604981 0
          0.05125975787680748 0.002701308165601296 0 0.0076504887246150455 0.005513879086891854 0
          0.05767207153192766 0.0061639521251550325 0 0.05704698249648965 0.009464568599981155 0
          0.003352951239978391 0.0034081009413068214 0 0.042352229673615405 0.011584030786640331 0
          0.021782583852612003 0.010057305157384067 0 0 0 0
          0.056072267438143086 0.009690146584902179 0 0.05020269359023022 0.013393603089026818 0
          0.03135191739015708 0.01283029573581268 0 0.05169750843118992 0.007587223887416556 0
          0.025370490958812164 -0.00046828813295596294 0 0.014609218041378602 0.009974466632393653 0
          0.05186858815309803 0.01285978012390604 0 0.04073126785322101 0.015877558680590542 0
          0.05044796727913692 0.010849489918416805 0 0.023469808281941118 0.013991198130524185 0
          0 0 0 0.04537782548652869 0.015736571768298735 0
          0.04580896771169707 0.009551100880233504 0 0.004046977493365023 0.004564060312342133 0
          0.03196075201747117 0.016562422605543747 0 0.009524031906960162 0.009264524743920699 0
          0.037350472022247505 0.004843744686059026 0 0.04393345121438763 0.012036534418499556 0
          0 0 0 0.037724516290387644 0.01677663741799229 0
          0 0 0 0.025064049875262562 0.016827261576859653 0
          0.01482725877147506 0.014156993140552743 0 0.01912586325624166 -0.000697089268561768 0
          0.0062508171681897595 0.007903887487954286 0 0 0 0
          0.023038631300375645 0.004932138642813028 0 0.025976784972561173 0.010738762429043924 0
          0.019973881926451442 0.013014282390014564 0 0.013592198237890374 0.012472328440185865 0
          0.006877411409081824 0.00858013320501999 0 0 0 0
          0 0 0 0 0 0
          0 0 0 0 0 0
          0 0 0 0 0 0
          0 0 0 0 0 0
          0.031141706969491256 -0.004292863531639074 0 0 0 0
          0.04907704599433149 -0.021431986712651563 0 0.052099256919886816 -0.021074866960071104 0
          0.052036904274964435 -0.019321534089543402 0 0.04809179987809831 -0.018277369888662243 0
          0.043641440884377936 -0.0136389934858544 0 0.03897208952750786 -0.010863321231822765 0
          0.04116894418717276 -0.018208273347339432 0 0.021247750498715412 0.0002454715833740684 0
          <InformationKey name="L2_NORM_RANGE" location="vtkDataArray" length="2">
            <Value index="0">
              0
            </Value>
            <Value index="1">
              0.064211031228
            </Value>
          </InformationKey>
        </DataArray>
      </PointData>
      <CellData>
        <DataArray type="UInt8" Name="vtkGhostType" format="ascii" RangeMin="0" RangeMax="1">
          0 0 0 0 0 0
          0 0 1 0 0 1
          0 1 0 0 1 1
          1 0 0 0 0 0
          1 1 0 1 1 0
          1 1 0 1 0 0
          0 0 0 0 0 0
          0 0 0 0 0 0
          0 0 0 0 0 0
          0 0 0 0 0 0
          0 0 0 0 0 0
          0 0 0 0 0 0
          0 0 0 0 0 0
          0 0 0 0 0 0
          0 1 0 0 0 0
          0 0 0 1 0 0
          0 0 0 0 0 1
          0 0 0 0 0 0
          0 0 0 0 0 0
          0 0 0 0 0 0
          0 0 0 0 0 0
          0 0 0 0 0 0
          0 1 0 0 0 0
          0 0 0 0 0 0
          0 0 0 0 0 0
        </DataArray>
        <DataArray type="Float64" Name="PStrain" NumberOfComponents="6" format="ascii" RangeMin="0.006981136105313554" RangeMax="2.4054185743036895">
          0.01049139105048076 0.01049139105048076 0 0.01049139105048076 0 0
          0.012726858153510236 0.012726858153510236 0 0.012726858153510236 0 0
          0.015583211916948978 0.015583211916948978 0 0.015583211916948978 0 0
          0.012491588938288504 0.012491588938288504 0 0.012491588938288504 0 0
          0.009089575095267609 0.009089575095267609 0 0.009089575095267609 0 0
          0.008674836314818657 0.008674836314818657 0 0.008674836314818657 0 0
          0.007893805954105194 0.007893805954105194 0 0.007893805954105194 0 0
          0.011154290674864125 0.011154290674864125 0 0.011154290674864125 0 0
          0.009546069913575653 0.009546069913575653 0 0.009546069913575653 0 0
          0.00785620087018957 0.00785620087018957 0 0.00785620087018957 0 0
          0.009780972337863741 0.009780972337863741 0 0.009780972337863741 0 0
          0.006075543627854394 0.006075543627854394 0 0.006075543627854394 0 0
          0.007493531598584586 0.007493531598584586 0 0.007493531598584586 0 0
          0.004980118195479914 0.004980118195479914 0 0.004980118195479914 0 0
          0.08044635891215539 0.08044635891215539 0 0.08044635891215539 0 0
          0.05429956469939211 0.05429956469939211 0 0.05429956469939211 0 0
          0.09481614543917123 0.09481614543917123 0 0.09481614543917123 0 0
          0.0968632763334512 0.0968632763334512 0 0.0968632763334512 0 0
          0.047975372918994015 0.047975372918994015 0 0.047975372918994015 0 0
          0.0557294673691293 0.0557294673691293 0 0.0557294673691293 0 0
          0.04291302293732803 0.04291302293732803 0 0.04291302293732803 0 0
          0.024801670028293463 0.024801670028293463 0 0.024801670028293463 0 0
          0.021085408930063103 0.021085408930063103 0 0.021085408930063103 0 0
          0.024794064068012406 0.024794064068012406 0 0.024794064068012406 0 0
          0.04404905855336432 0.04404905855336432 0 0.04404905855336432 0 0
          0.025873565961848123 0.025873565961848123 0 0.025873565961848123 0 0
          0.022354135516370048 0.022354135516370048 0 0.022354135516370048 0 0
          0.029774111161317264 0.029774111161317264 0 0.029774111161317264 0 0
          0.018010093389250796 0.018010093389250796 0 0.018010093389250796 0 0
          0.02575130477663718 0.02575130477663718 0 0.02575130477663718 0 0
          0.016216899085353037 0.016216899085353037 0 0.016216899085353037 0 0
          0.01385649002039778 0.01385649002039778 0 0.01385649002039778 0 0
          0.015567794177944232 0.015567794177944232 0 0.015567794177944232 0 0
          0.007295902966814869 0.007295902966814869 0 0.007295902966814869 0 0
          0.09999999999999999 0.09999999999999999 0 0.09999999999999999 0 0
          0.005118527253568579 0.005118527253568579 0 0.005118527253568579 0 0
          0.012208460228161255 0.012208460228161255 0 0.012208460228161255 0 0
          0.007845092964071506 0.007845092964071506 0 0.007845092964071506 0 0
          0.005807772273264661 0.005807772273264661 0 0.005807772273264661 0 0
          0.014846440005391533 0.014846440005391533 0 0.014846440005391533 0 0
          0.02935913684943007 0.02935913684943007 0 0.02935913684943007 0 0
          0.035050948328254096 0.035050948328254096 0 0.035050948328254096 0 0
          0.014097517519443787 0.014097517519443787 0 0.014097517519443787 0 0
          0.04583162221186501 0.04583162221186501 0 0.04583162221186501 0 0
          0.020950126269141375 0.020950126269141375 0 0.020950126269141375 0 0
          0.059606925848393416 0.059606925848393416 0 0.059606925848393416 0 0
          0.013153030749744686 0.013153030749744686 0 0.013153030749744686 0 0
          0.008546143088251428 0.008546143088251428 0 0.008546143088251428 0 0
          0.05305855262543197 0.05305855262543197 0 0.05305855262543197 0 0
          0.033820318208083414 0.033820318208083414 0 0.033820318208083414 0 0
          0.03955782805986404 0.03955782805986404 0 0.03955782805986404 0 0
          0.02607413469780353 0.02607413469780353 0 0.02607413469780353 0 0
          0.010801038708868935 0.010801038708868935 0 0.010801038708868935 0 0
          0.016638926758209528 0.016638926758209528 0 0.016638926758209528 0 0
          0.031715585051564466 0.031715585051564466 0 0.031715585051564466 0 0
          0.031747218675733414 0.031747218675733414 0 0.031747218675733414 0 0
          0.02926060506068348 0.02926060506068348 0 0.02926060506068348 0 0
          0.01409187550871515 0.01409187550871515 0 0.01409187550871515 0 0
          0.01811866701625143 0.01811866701625143 0 0.01811866701625143 0 0
          0.01294842081077502 0.01294842081077502 0 0.01294842081077502 0 0
          0.0045380340393334235 0.0045380340393334235 0 0.0045380340393334235 0 0
          0.00801192477099961 0.00801192477099961 0 0.00801192477099961 0 0
          0.01461522982742014 0.01461522982742014 0 0.01461522982742014 0 0
          0.01185841698246388 0.01185841698246388 0 0.01185841698246388 0 0
          0.009858100187940116 0.009858100187940116 0 0.009858100187940116 0 0
          0.0066849129325786336 0.0066849129325786336 0 0.0066849129325786336 0 0
          0.004030560809652196 0.004030560809652196 0 0.004030560809652196 0 0
          1.3887690613879609 1.3887690613879609 0 1.3887690613879609 0 0
          0.8913208560061865 0.8913208560061865 0 0.8913208560061865 0 0
          0.9099556985728474 0.9099556985728474 0 0.9099556985728474 0 0
          0.9452400560258922 0.9452400560258922 0 0.9452400560258922 0 0
          0.2231902960866909 0.2231902960866909 0 0.2231902960866909 0 0
          0.2505828582927223 0.2505828582927223 0 0.2505828582927223 0 0
          1.2078511598651025 1.2078511598651025 0 1.2078511598651025 0 0
          0.6067938493760902 0.6067938493760902 0 0.6067938493760902 0 0
          0.15887661436528286 0.15887661436528286 0 0.15887661436528286 0 0
          0.2454883238271624 0.2454883238271624 0 0.2454883238271624 0 0
          0.06422773366456287 0.06422773366456287 0 0.06422773366456287 0 0
          0.3191032315238725 0.3191032315238725 0 0.3191032315238725 0 0
          0.2193221993786953 0.2193221993786953 0 0.2193221993786953 0 0
          0.20907232051713573 0.20907232051713573 0 0.20907232051713573 0 0
          0.5936312499514859 0.5936312499514859 0 0.5936312499514859 0 0
          0.16588236385925711 0.16588236385925711 0 0.16588236385925711 0 0
          0.26019966080331314 0.26019966080331314 0 0.26019966080331314 0 0
          0.12987402934374506 0.12987402934374506 0 0.12987402934374506 0 0
          0.28628319215846043 0.28628319215846043 0 0.28628319215846043 0 0
          0.08792254637607154 0.08792254637607154 0 0.08792254637607154 0 0
          0.05815725588154519 0.05815725588154519 0 0.05815725588154519 0 0
          0.3846083793329527 0.3846083793329527 0 0.3846083793329527 0 0
          0.07492813462022482 0.07492813462022482 0 0.07492813462022482 0 0
          0.023106023063385245 0.023106023063385245 0 0.023106023063385245 0 0
          0.08575451409673812 0.08575451409673812 0 0.08575451409673812 0 0
          0.029280282816767235 0.029280282816767235 0 0.029280282816767235 0 0
          0.264590817649325 0.264590817649325 0 0.264590817649325 0 0
          0.15359788823431159 0.15359788823431159 0 0.15359788823431159 0 0
          0.08594408777741279 0.08594408777741279 0 0.08594408777741279 0 0
          0.3277348572277732 0.3277348572277732 0 0.3277348572277732 0 0
          0.09814490766085655 0.09814490766085655 0 0.09814490766085655 0 0
          0.05537810009842413 0.05537810009842413 0 0.05537810009842413 0 0
          0.15436107621882464 0.15436107621882464 0 0.15436107621882464 0 0
          0.07874416975856682 0.07874416975856682 0 0.07874416975856682 0 0
          0.15416658720394225 0.15416658720394225 0 0.15416658720394225 0 0
          0.035535339195225925 0.035535339195225925 0 0.035535339195225925 0 0
          0.18879106748112529 0.18879106748112529 0 0.18879106748112529 0 0
          0.1765161629919892 0.1765161629919892 0 0.1765161629919892 0 0
          0.19934153505089397 0.19934153505089397 0 0.19934153505089397 0 0
          0.03424598696083321 0.03424598696083321 0 0.03424598696083321 0 0
          0.03106357615284038 0.03106357615284038 0 0.03106357615284038 0 0
          0.15618133438330367 0.15618133438330367 0 0.15618133438330367 0 0
          0.09383366266931434 0.09383366266931434 0 0.09383366266931434 0 0
          0.08869139369482973 0.08869139369482973 0 0.08869139369482973 0 0
          0.029018301977906204 0.029018301977906204 0 0.029018301977906204 0 0
          0.18544135466932604 0.18544135466932604 0 0.18544135466932604 0 0
          0.047236661402470376 0.047236661402470376 0 0.047236661402470376 0 0
          0.07487966940002637 0.07487966940002637 0 0.07487966940002637 0 0
          0.0519349109420871 0.0519349109420871 0 0.0519349109420871 0 0
          0.07603760105975034 0.07603760105975034 0 0.07603760105975034 0 0
          0.06003779694128819 0.06003779694128819 0 0.06003779694128819 0 0
          0.03932612116631628 0.03932612116631628 0 0.03932612116631628 0 0
          0.08971672885283544 0.08971672885283544 0 0.08971672885283544 0 0
          0.10642279092961422 0.10642279092961422 0 0.10642279092961422 0 0
          0.09866048140259828 0.09866048140259828 0 0.09866048140259828 0 0
          0.015659783637104387 0.015659783637104387 0 0.015659783637104387 0 0
          0.11073862191479764 0.11073862191479764 0 0.11073862191479764 0 0
          0.09651368597868056 0.09651368597868056 0 0.09651368597868056 0 0
          0.02980508761899414 0.02980508761899414 0 0.02980508761899414 0 0
          0.052693946530386296 0.052693946530386296 0 0.052693946530386296 0 0
          0.07050419045040532 0.07050419045040532 0 0.07050419045040532 0 0
          0.07253992059766931 0.07253992059766931 0 0.07253992059766931 0 0
          0.2777364898572564 0.2777364898572564 0 0.2777364898572564 0 0
          0.03312776914326312 0.03312776914326312 0 0.03312776914326312 0 0
          0.01769153643939727 0.01769153643939727 0 0.01769153643939727 0 0
          0.05959541218187199 0.05959541218187199 0 0.05959541218187199 0 0
          0.26772538551667663 0.26772538551667663 0 0.26772538551667663 0 0
          0.07698312404538299 0.07698312404538299 0 0.07698312404538299 0 0
          0.12387331573359542 0.12387331573359542 0 0.12387331573359542 0 0
          0.12053164560386231 0.12053164560386231 0 0.12053164560386231 0 0
          0.058081416416846735 0.058081416416846735 0 0.058081416416846735 0 0
          0.01885431232360679 0.01885431232360679 0 0.01885431232360679 0 0
          0.01574910761422409 0.01574910761422409 0 0.01574910761422409 0 0
          0.039768160481353426 0.039768160481353426 0 0.039768160481353426 0 0
          0.01220846022816126 0.01220846022816126 0 0.01220846022816126 0 0
          0.08476047856060445 0.08476047856060445 0 0.08476047856060445 0 0
          0.015871056758685685 0.015871056758685685 0 0.015871056758685685 0 0
          0.04431850562847268 0.04431850562847268 0 0.04431850562847268 0 0
          0.027372064991623778 0.027372064991623778 0 0.027372064991623778 0 0
          0.027275794188645792 0.027275794188645792 0 0.027275794188645792 0 0
          0.03895903488410209 0.03895903488410209 0 0.03895903488410209 0 0
          0.04187189583764374 0.04187189583764374 0 0.04187189583764374 0 0
          0.027956597989711778 0.027956597989711778 0 0.027956597989711778 0 0
          <InformationKey name="L2_NORM_RANGE" location="vtkDataArray" length="2">
            <Value index="0">