<?xml version="1.0"?>
<VTKFile type="UnstructuredGrid" version="0.1" byte_order="LittleEndian" header_type="UInt32" compressor="vtkZLibDataCompressor">
  <UnstructuredGrid>
    <Piece NumberOfPoints="97" NumberOfCells="154">
      <PointData>
        <DataArray type="Float64" Name="Velocity" NumberOfComponents="3" format="ascii" RangeMin="0" RangeMax="2.744431385850991">
          1.020300844010326 0.0035667067457045756 0 1.027261604557191 0 0
          0.9938529346115045 -0.0008398423351438818 0 1.0046431948352286 -0.017396105693290462 0
          0.9885987792015888 -0.010864404900511458 0 1.0675033588391063 0 0
          0.9900294322306855 0.001624315863065137 0 0.9759706069953797 0 0
          0.9770453277327407 -0.013821809614303278 0 1.0010075649216463 -0.005371524240204199 0
          1.1168901027901281 0 0 0.9558898272458403 0 0
          0.9159779569090634 0 0 1.3384875773828648 0 0
          0.9603423163106484 -0.23957984530215437 0 1.4351570692103395 -0.44598316924434345 0
          0.6963344838003318 0 0 1.8751870483574922 0 0
          0.6017676920986424 -0.3683790156105299 0 0.996796195929114 -0.7802626526672057 0
          2.060351345107053 -0.47599876339577774 0 0.25758874615966576 0 0
          2.4802566043748384 0 0 0.13514623647952506 -0.707109397185522 0
          0.984911214957191 -0.9548540559895811 0 2.5689631129789916 -0.25196054111164334 0
          -0.476524259691833 0 0 2.744431385850991 0 0
          -0.43667166740571817 -0.29330829240964906 0 1.7406004212767818 -0.3198764673432714 0
          0.1449360834603106 -0.4042075148086381 0 2.737951549103883 0.05196673439897075 0
          -0.7389986474319394 0 0 2.6492377851385083 0 0
          2.087443644864587 0.037946930478688676 0 0.44884625598173933 0.10748899474543809 0
          -0.743522820749644 -0.029718536675508292 0 -0.7307738034228279 0 0
          2.585952642464974 0.21980263278925416 0 1.0594084854370531 0.3504434221719238 0
          -0.23217800479074877 0.30548413865580903 0 2.059596509378288 0.1770316752530056 0
          -0.6541940645582593 0.16792200886909373 0 0.5132261576836129 0.41185317525251286 0
          0.954377498293738 0.32570095401082266 0 0.11276779979657499 0.4237575107401681 0
          -0.5171989270710978 0 0 1.4108917326758696 0.1550695827377103 0
          -0.37666460476117214 0.2985371360091635 0 2.0277491981855724 0.16387500713773862 0
          0.524177525358351 0.428450602672474 0 -0.5075028710668397 0.11681480500532453 0
          -0.12037972350786007 0.3939453511152957 0 0.7619650243911186 0.2792823020302239 0
          -0.45161439591177927 0.24594903353659706 0 0.18405001685561645 0.44949491623777593 0
          1.2302049821338457 0.13372722623803374 0 -0.24751285415845428 0.35416134204147454 0
          0.4541895270812567 0.3956011663168702 0 -0.339528178308561 0 0
          -0.015800866564125608 0.4326758255950188 0 -0.3558375731986785 0.13959986146650033 0
          0.5701298318278081 0.19187072691532464 0 -0.2841607607578249 0.2616750960555282 0
          0.2163918965695415 0.4586606123883581 0 1.1708403059850743 0.09791416459367669 0
          -0.11670086048284488 0.3588205281677833 0 0.32739948484469794 0.3588219553490978 0
          0.07603225795323937 0.42088272433729235 0 0.3947328992770996 0.19144358533443961 0
          -0.20806437107901282 0.14560774520068925 0 0.20103976292930403 0.3950267991496102 0
          -0.19812338464190504 0 0 -0.1397735208867431 0.24310007478932433 0
          0.19771790901085678 0.2719412873941558 0 -0.001474062136644208 0.33458024387918917 0
          0.09890711838711029 0.33399892494451183 0 0.12906066788724102 0.2824278381721675 0
          -0.07839526032741173 1.405898537578076e-23 0 -0.019172600633938226 0.20482260216748216 0
          0.04921808777691325 0.19733798592346183 0 -0.02764916054827507 0.07152592261414263 0
          0.001797657167529115 -0.0006296786330052006 0 -0.01810885447713476 -1.254620764472317e-23 0
          0.002751547571907923 -0.0012372828728650976 0 0.0022528653970599454 -0.0012423635441703473 0
          0.0008122203094055053 -0.0007610029575768273 0 0 0 0
          2.4267379760629053 0.17533065610949805 0 2.5806172016976805 0.23698930208855032 0
          2.4802398217745387 0 0 0.36613020736638924 0.20372593791037213 0
          1.1793685229858193 0.22998366568688017 0 2.109069798992779 0.24295954485020518 0
          2.019000782879349 0.24706202113629014 0 0.07482744426859807 0.19436155047639944 0
          -0.0014814629750992628 0.0008555539715023423 0
          <InformationKey name="L2_NORM_RANGE" location="vtkDataArray" length="2">
            <Value index="0">
              0
            </Value>
            <Value index="1">
              2.7444313859
            </Value>
          </InformationKey>
        </DataArray>
        <DataArray type="Float64" Name="Pressure" format="ascii" RangeMin="-4.424406362965369" RangeMax="0.09951878420327484">
          -0.015650798511865713 0.010613227368415705 -0.001017826692234854 0.02040624171963348 0.004782044011577398 0.04866300731817344
          0.0036493880164792753 0.000517076547756054 -0.004284196953896056 0.01888954400704171 0.06339532662756814 -0.010440989977739484
          0.003140623710439043 0.09951878420327484 -0.006384052958439301 -0.3168670138773383 -0.10285241960885513 -0.45181119590455054
          -0.2839303228160387 -0.8566892132282581 -1.172103839273102 -0.3644338333876067 -1.7832349865942212 -1.0837596943617598
          -2.7442420368925564 -2.479334084296365 -1.6917184890119832 -2.665327187649006 -2.688003611105382 -4.191345810742225
          -4.041195758300208 -3.0624353624170246 -2.9225526918112266 -2.5487687932960674 -3.7964482476302552 -4.424406362965369
          -3.7655024118334426 -3.284297912365783 -2.8368734389517263 -3.808905646154875 -3.784209707634991 -2.7873125858778085
          -3.3114939365353884 -3.5515904683473924 -3.238523425966279 -3.4429407907098866 -3.137288671544524 -2.866929682315649
          -3.308236310675982 -2.6050370225708495 -3.2299544567121754 -3.078509320802214 -3.2589976836114762 -2.9613157534840115
          -3.0806823556299396 -3.168297082999328 -2.8068277147628753 -3.082222448585316 -3.0085733137288035 -2.904487132629071
          -3.055965527040726 -2.899540925153969 -2.8884031843770392 -2.894447735692468 -3.0039383709032395 -2.8487477055725847
          -2.910370099467353 -2.948015150954809 -2.922945341278726 -2.977881875360577 -2.750950429500888 -2.93717095713288
          -2.7477863186896903 -2.7608590410800993 -2.975238645366694 -2.8024746383932024 -2.8412913670290036 -2.9196398135848898
          -2.645914361517017 -2.68628643061149 -2.744172523650092 -2.5977986215014557 -2.753525466195463 -2.5780753448122296
          -2.6270626216952535 -2.5668192574499313 -2.543587548037449 -2.541680117605761 -1.8051017223899284 -2.250265107285543
          -1.9951302333622338 -3.065622811892173 -2.964603122754514 -2.573619819554262 -2.646825979901677 -2.9595531039765017
          -2.862177946603817
        </DataArray>
        <DataArray type="Float64" Name="BTraction" NumberOfComponents="3" format="ascii" RangeMin="0" RangeMax="3.2075165892029256">
          0.005860857382197756 0.003626037305363193 0 0.000929239263315516 -0.012003937169688747 0
          0.0025951882445614397 0.00045802687839804104 0 0 0 0
          0 0 0 0.001726983190323596 -0.04416570377178108 0
          -0.0012803301519949606 0.0017234486076647415 0 -0.0005156089556174394 -0.000042811184296023816 0
          0 0 0 0 0 0
          0.0047412095384582065 -0.06203915029954092 0 -0.0006309523161134984 -0.005515119670698441 0
          -0.002869867577069895 -0.011540225360854408 0 0.008704358842642994 0.011348734553198413 0
          0 0 0 0 0 0
          -0.0062293526439939125 -0.10314471252705303 0 0.008105144926302984 0.583971555478817 0
          0 0 0 0 0 0
          0 0 0 -0.008599147273671039 -0.4564558913067812 0
          0.0029242557262275175 1.7153296620926066 0 0 0 0
          0 0 0 0 0 0
          -0.00854359562586685 -1.5837451079223797 0 -0.0003916005304315112 2.5030132976619837 0
          0 0 0 0 0 0
          0 0 0 0 0 0
          -0.003642191726234637 -2.740169439167468 0 -0.0010751682057105368 2.4686884434607665 0
          0 0 0 0 0 0
          0 0 0 0.0033997367644805305 -3.2075147874642607 0
          0 0 0 0 0 0
          0 0 0 0 0 0
          0 0 0 0 0 0
          0 0 0 0 0 0
          0.00638407945907911 -3.1561689508570723 0 0 0 0
          0 0 0 0 0 0
          0 0 0 0 0 0
          0 0 0 0 0 0
          0 0 0 0 0 0
          0 0 0 0 0 0
          0 0 0 0.005022340520720727 -2.950113490854096 0
          0 0 0 0 0 0
          0 0 0 0 0 0
          0 0 0 0 0 0
          0 0 0 0 0 0
          0 0 0 0 0 0
          0 0 0 0 0 0
          0.0027868618588466924 -2.7871685551610716 0 0 0 0
          0 0 0 0 0 0
          0 0 0 0 0 0
          0.0008022599292325372 -2.6746388925147224 0 0 0 0
          0 0 0 0 0 0
          -2.6350873331712585 0.7875061234465801 0 -0.0002717970669724353 -2.5914161594335945 0
          -2.531275286788297 0.7117866550396491 0 -2.486394421240069 0.6090652682366936 0
          -2.5029406869586834 0.4013490085795463 0 -1.2179705997865238 -1.2008536241283316 0
          0 0 0 0 0 0
          -0.0029674973148581174 1.8607751425074213 0 0 0 0
          0 0 0 0 0 0
          0 0 0 0 0 0
          -2.7126333007897303 0.834327124965337 0
          <InformationKey name="L2_NORM_RANGE" location="vtkDataArray" length="2">
            <Value index="0">
              0
            </Value>
            <Value index="1">
              3.2075165892
            </Value>
          </InformationKey>
        </DataArray>
        <DataArray type="Float64" Name="ALEdispl" NumberOfComponents="3" format="ascii" RangeMin="0" RangeMax="2.5921188778516866">
          0 0 0 0 0 0
          0 0 0 0.20504239949102243 0.03417102446354449 0
          0.13412960822400358 -0.05285901281947168 0 0 0 0
          0 0 0 0 0 0
          0.19155672182406586 -0.018637694846337493 0 0.327220677945591 0.004279281310067148 0
          0 0 0 0 0 0
          0 0 0 0 0 0
          0.578015238881097 0.008675561121503706 0 0.4186650963709364 0.06969098023629754 0
          0 0 0 0 0 0
          0.42840689279235483 -0.13673213580933102 0 0.8428338883481726 -0.061002690065784564 0
          0.4489594194411099 0.09429864076458136 0 0 0 0
          0 0 0 0.4769279361088197 -0.2029860482195707 0
          1.078516446817097 -0.15396797452800046 0 0.5529965349706034 0.08792394442933704 0
          0 0 0 0 0 0
          0.6106004622008915 -0.27436324588812827 0 1.2033823500007783 -0.1936981583310294 0
          1.1616349387382507 -0.37526813255687924 0 0.7244363494119024 0.04952467659860312 0
          0 0 0 0 0 0
          1.3269479697640871 -0.25094334267368384 0 1.4329108736697638 -0.5343478579482087 0
          0.8252798541559783 -0.46321492295756367 0 0 0 0
          1.3708938264684398 -0.14721796887249067 0 1.7800592463197678 -0.600063489366468 0
          1.4159295081639918 -0.7819177452317639 0 1.7258488305114041 -0.3963136132329136 0
          0.7133674605954458 -0.5125822648925359 0 1.763252902400654 -0.7782297878265582 0
          1.9471128237730995 -0.6869393521284238 0 1.6815342381105531 -0.8560863370190098 0
          0 0 0 1.952629095651916 -0.6015254573822987 0
          1.1553563869219703 -0.7591646734894675 0 1.9190474824489856 -0.4990581343840839 0
          1.9262576249702366 -0.8370424301988825 0 0.4873977267914517 -0.38686345697800467 0
          1.4916560074323073 -0.8725056278887222 0 2.094862607440218 -0.7643721994764496 0
          0.8787126152335736 -0.6496334983490871 0 1.8162442012467421 -0.9058725159271603 0
          2.14866163150032 -0.6741445005609612 0 1.257511612768077 -0.8260666027517958 0
          2.073193577027232 -0.8702499440748996 0 0 0 0
          1.61480827756191 -0.8999631292446607 0 0.5543142971017831 -0.45625879145958176 0
          2.242522635465814 -0.7899696675859887 0 0.9374815640066637 -0.6939560781682458 0
          1.9409108813816744 -0.9035673377350084 0 2.312308287102363 -0.700492148331331 0
          1.3234257355585666 -0.8162857918273071 0 2.2054368770967168 -0.8517204189390727 0
          1.7009354286509228 -0.856206955999032 0 2.3765432980423475 -0.7650448886772908 0
          0.5630314029661418 -0.46734468094474696 0 2.043355701354176 -0.8463560581582996 0
          0 0 0 0.9379169306983317 -0.640686422261778 0
          2.3231823713208817 -0.784083442767442 0 1.3406912980041135 -0.7178655036024598 0
          1.6966859139802306 -0.7078648122502009 0 2.1032827596246157 -0.7206643681899425 0
          0 0 0 0.9151972396699145 -0.5076475199298723 0
          1.3298262109496928 -0.5187427823811344 0 0.3776746079651475 -0.2735622378151333 0
          1.51431303415234 -0.34369331911415574 0 0 0 0
          0.9633127605460272 -0.25199827059280394 0 0.4772238919499883 -0.1631007289359849 0
          0.14035555280413323 -0.0826205296959682 0 0 0 0
          0.8430789433874095 -0.10140925694875293 0 1.6616587657141142 -0.36002883144102743 0
          0 0 0 2.4982764760375074 -0.6911547773058514 0
          2.4556956910315013 -0.6676327736812042 0 2.2963289043094233 -0.6065917641662496 0
          2.130137449961186 -0.5792076989606966 0 2.4039079512306047 -0.6624233641066392 0
          2.016985400570708 -0.42524344900764033 0
          <InformationKey name="L2_NORM_RANGE" location="vtkDataArray" length="2">
            <Value index="0">
              0
            </Value>
            <Value index="1">
              2.5921188779
            </Value>
          </InformationKey>
        </DataArray>
        <DataArray type="Float64" Name="ALEveloc" NumberOfComponents="3" format="ascii" RangeMin="0" RangeMax="0.03309395917716507">
          0 0 0 0 0 0
          0 0 0 -0.002066301975485074 -0.00034173737837902424 0
          -0.00135371537110629 0.000535225656942584 0 0 0 0
          0 0 0 0 0 0
          -0.001933150709721887 0.00019473498025223204 0 -0.0032975369670830146 -0.00002805617833955866 0
          0 0 0 0 0 0
          0 0 0 0 0 0
          -0.005836898731760742 0.000084070045865383 0 -0.004151634604713461 -0.0003958965666004677 0
          0 0 0 0 0 0
          -0.004382031347349935 0.001648676880248473 0 -0.008470287595842452 0.0012833162785937102 0
          -0.004394378293151702 -0.00046137202684110035 0 0 0 0
          0 0 0 -0.004935409957608883 0.0024901025205906757 0
          -0.010901119590697395 0.0030585513656821717 0 -0.005366363773536276 0.000026642517255648368 0
          0 0 0 0 0 0
          -0.006313719039831911 0.0036037066487253355 0 -0.012053747429829675 0.0046416662270663545 0
          -0.011889746654038191 0.006077401339475652 0 -0.007157525375737883 0.0011522390236525654 0
          0 0 0 0 0 0
          -0.013406847255083232 0.006433542759010535 0 -0.014541787358493874 0.009449863355798449 0
          -0.008505975094158291 0.006515803815021259 0 0 0 0
          -0.014191736592280346 0.006256788844086342 0 -0.01823727670356412 0.012538533907868854 0
          -0.014298860414857728 0.013023351567702957 0 -0.018079988533449942 0.010863378835183068 0
          -0.007204706523597615 0.007629893581950209 0 -0.017957281601279185 0.014963473225927837 0
          -0.020136766371452897 0.014834697974006827 0 -0.01706708543408464 0.01578868658497745 0
          0 0 0 -0.02043752942796262 0.01426896596433902 0
          -0.011479622496366249 0.012592763063813184 0 -0.02045399061633235 0.01305314349834319 0
          -0.019733306931911887 0.01690265666701163 0 -0.004831037601653598 0.005848118853212125 0
          -0.014847045928954916 0.015603493663089996 0 -0.021839964422225577 0.017009144106725715 0
          -0.00846270863946641 0.010563801782764282 0 -0.01835132014308405 0.017652029858955975 0
          -0.02286178716957865 0.01636536573739389 0 -0.01218867104296173 0.014489839874518795 0
          -0.021328917457053453 0.01858341645629147 0 0 0 0
          -0.015949959157065763 0.017153029221870453 0 -0.005122996787257916 0.007286343401437523 0
          -0.02361038494749934 0.018471768011246947 0 -0.008559735526130652 0.011875049396025572 0
          -0.019516627553578303 0.018860880614533837 0 -0.02504230588695666 0.017636818456291836 0
          -0.012402532692062929 0.015183089889829748 0 -0.022800153053923022 0.019541087058299933 0
          -0.016513832138843387 0.01761469698179363 0 -0.025357335681948978 0.01912391449347517 0
          -0.0047225137987843 0.0078103585948835486 0 -0.02032075306493253 0.01923466671205487 0
          0 0 0 -0.007906602602735013 0.011352918229902698 0
          -0.02417228388093262 0.019695080968278322 0 -0.01179387613768812 0.014269251538887584 0
          -0.015668766371491394 0.016049479674374645 0 -0.0204104351399943 0.018195280929931057 0
          0 0 0 -0.007024794015515701 0.009346336796099641 0
          -0.01024038203929134 0.010854411128240149 0 -0.002602747186964516 0.004574357570329313 0
          -0.010956195674757918 0.00848997989628164 0 0 0 0
          -0.006493911481166403 0.005424407212433979 0 -0.0033321772971214303 0.003104776624640121 0
          -0.001149148756552698 0.0014951954270027018 0 0 0 0
          -0.009098977315616263 0.004446246409315652 0 -0.017995459851200213 0.010479245876134358 0
          0 0 0 -0.027201322496133606 0.018849355121096423 0
          -0.027275693120471622 0.017846020658734973 0 -0.02574699846063666 0.01605324378796269 0
          -0.023257552320199437 0.015163025605887115 0 -0.025000991456225474 0.018710279625891113 0
          -0.017546387537926034 0.01229253635034444 0
          <InformationKey name="L2_NORM_RANGE" location="vtkDataArray" length="2">
            <Value index="0">
              0
            </Value>
            <Value index="1">
              0.033093959177
            </Value>
          </InformationKey>
        </DataArray>
      </PointData>
      <CellData>
        <DataArray type="UInt8" Name="vtkGhostType" format="ascii" RangeMin="0" RangeMax="0">
          0 0 0 0 0 0
          0 0 0 0 0 0
          0 0 0 0 0 0
          0 0 0 0 0 0
          0 0 0 0 0 0
          0 0 0 0 0 0
          0 0 0 0 0 0
          0 0 0 0 0 0
          0 0 0 0 0 0
          0 0 0 0 0 0
          0 0 0 0 0 0
          0 0 0 0 0 0
          0 0 0 0 0 0
          0 0 0 0 0 0
          0 0 0 0 0 0
          0 0 0 0 0 0
          0 0 0 0 0 0
          0 0 0 0 0 0
          0 0 0 0 0 0
          0 0 0 0 0 0
          0 0 0 0 0 0
          0 0 0 0 0 0
          0 0 0 0 0 0
          0 0 0 0 0 0
          0 0 0 0 0 0
          0 0 0 0
        </DataArray>
        <DataArray type="Float64" Name="PStrain" NumberOfComponents="6" format="ascii" RangeMin="7.189328422134519e-8" RangeMax="0.48820741175756843">
          0.09999999999999999 0.09999999999999999 0 0.09999999999999999 0 0
          0.0000018910117440111982 0.0000018910117440111982 0 0.0000018910117440111982 0 0
          0.000008832992976269544 0.000008832992976269544 0 0.000008832992976269544 0 0
          0.0000016973672887346634 0.0000016973672887346634 0 0.0000016973672887346634 0 0
          0.000001738406360045874 0.000001738406360045874 0 0.000001738406360045874 0 0
          2.507782556893224e-7 2.507782556893224e-7 0 2.507782556893224e-7 0 0
          0.0000011513818426134845 0.0000011513818426134845 0 0.0000011513818426134845 0 0
          1.627818490411389e-7 1.627818490411389e-7 0 1.627818490411389e-7 0 0
          5.434691018716158e-7 5.434691018716158e-7 0 5.434691018716158e-7 0 0
          4.7195643011291946e-7 4.7195643011291946e-7 0 4.7195643011291946e-7 0 0
          1.191983853959069e-7 1.191983853959069e-7 0 1.191983853959069e-7 0 0
          2.1245657342228313e-7 2.1245657342228313e-7 0 2.1245657342228313e-7 0 0
          0.000014110000037482559 0.000014110000037482559 0 0.000014110000037482559 0 0
          8.987440534188135e-8 8.987440534188135e-8 0 8.987440534188135e-8 0 0
          8.987440534188135e-8 8.987440534188135e-8 0 8.987440534188135e-8 0 0
          0.000014110000037482559 0.000014110000037482559 0 0.000014110000037482559 0 0
          4.150760699811992e-8 4.150760699811992e-8 0 4.150760699811992e-8 0 0
          0.000010381862057753612 0.000010381862057753612 0 0.000010381862057753612 0 0
          0.009428260315998045 0.009428260315998045 0 0.009428260315998045 0 0
          0.006003045966539885 0.006003045966539885 0 0.006003045966539885 0 0
          0.00869771361500459 0.00869771361500459 0 0.00869771361500459 0 0
          0.004921086933594487 0.004921086933594487 0 0.004921086933594487 0 0
          0.005723122584646323 0.005723122584646323 0 0.005723122584646323 0 0
          0.005592473178770935 0.005592473178770935 0 0.005592473178770935 0 0
          0.005420361534473828 0.005420361534473828 0 0.005420361534473828 0 0
          0.002967443419112534 0.002967443419112534 0 0.002967443419112534 0 0
          0.0022637447543764305 0.0022637447543764305 0 0.0022637447543764305 0 0
          0.004214671177978238 0.004214671177978238 0 0.004214671177978238 0 0
          0.005455746535671572 0.005455746535671572 0 0.005455746535671572 0 0
          0.0021647856332666256 0.0021647856332666256 0 0.0021647856332666256 0 0
          0.001051632289605264 0.001051632289605264 0 0.001051632289605264 0 0
          0.002560308457469444 0.002560308457469444 0 0.002560308457469444 0 0
          0.0038166581010316116 0.0038166581010316116 0 0.0038166581010316116 0 0
          0.0018002925179132429 0.0018002925179132429 0 0.0018002925179132429 0 0
          0.004571566431898852 0.004571566431898852 0 0.004571566431898852 0 0
          0.002275960778057712 0.002275960778057712 0 0.002275960778057712 0 0
          0.002535052838228256 0.002535052838228256 0 0.002535052838228256 0 0
          0.001824139936127536 0.001824139936127536 0 0.001824139936127536 0 0
          0.0006459145659940086 0.0006459145659940086 0 0.0006459145659940086 0 0
          0.0008451531990440063 0.0008451531990440063 0 0.0008451531990440063 0 0
          0.0008978802445738139 0.0008978802445738139 0 0.0008978802445738139 0 0
          0.0007373218728188187 0.0007373218728188187 0 0.0007373218728188187 0 0
          0.000996185872171249 0.000996185872171249 0 0.000996185872171249 0 0
          0.001202028827974278 0.001202028827974278 0 0.001202028827974278 0 0
          0.002325514191546461 0.002325514191546461 0 0.002325514191546461 0 0
          0.0011289661181956788 0.0011289661181956788 0 0.0011289661181956788 0 0
          0.0008249988558331866 0.0008249988558331866 0 0.0008249988558331866 0 0
          0.00032303002911206587 0.00032303002911206587 0 0.00032303002911206587 0 0
          0.00027784648041131457 0.00027784648041131457 0 0.00027784648041131457 0 0
          0.0003090619252131979 0.0003090619252131979 0 0.0003090619252131979 0 0
          0.0003385180004505928 0.0003385180004505928 0 0.0003385180004505928 0 0
          0.00019781635407337884 0.00019781635407337884 0 0.00019781635407337884 0 0
          0.0002508700394685584 0.0002508700394685584 0 0.0002508700394685584 0 0
          0.00012141947332150192 0.00012141947332150192 0 0.00012141947332150192 0 0
          0.00007956659046499942 0.00007956659046499942 0 0.00007956659046499942 0 0
          0.00007683136028130308 0.00007683136028130308 0 0.00007683136028130308 0 0
          0.00010876356797759386 0.00010876356797759386 0 0.00010876356797759386 0 0
          0.000324960523656237 0.000324960523656237 0 0.000324960523656237 0 0
          0.00013576806403698446 0.00013576806403698446 0 0.00013576806403698446 0 0
          0.00041675504042812015 0.00041675504042812015 0 0.00041675504042812015 0 0
          0.000055289450930573215 0.000055289450930573215 0 0.000055289450930573215 0 0
          0.000057516985892926525 0.000057516985892926525 0 0.000057516985892926525 0 0
          0.00008944096509237479 0.00008944096509237479 0 0.00008944096509237479 0 0
          0.09352315974658296 0.09352315974658296 0 0.09352315974658296 0 0
          0.09550174584206272 0.09550174584206272 0 0.09550174584206272 0 0
          0.04735210617135828 0.04735210617135828 0 0.04735210617135828 0 0
          0.11696937175645986 0.11696937175645986 0 0.11696937175645986 0 0
          0.13873850938131424 0.13873850938131424 0 0.13873850938131424 0 0
          0.10250858891928569 0.10250858891928569 0 0.10250858891928569 0 0
          0.07630270420089835 0.07630270420089835 0 0.07630270420089835 0 0
          0.1575071622677849 0.1575071622677849 0 0.1575071622677849 0 0
          0.0522828056199478 0.0522828056199478 0 0.0522828056199478 0 0
          0.05673911156802956 0.05673911156802956 0 0.05673911156802956 0 0
          0.029393423273218512 0.029393423273218512 0 0.029393423273218512 0 0
          0.0434585547498015 0.0434585547498015 0 0.0434585547498015 0 0
          0.025547548502174146 0.025547548502174146 0 0.025547548502174146 0 0
          0.05698271349369495 0.05698271349369495 0 0.05698271349369495 0 0
          0.06990633816987142 0.06990633816987142 0 0.06990633816987142 0 0
          0.07888959523561064 0.07888959523561064 0 0.07888959523561064 0 0
          0.045144067901630294 0.045144067901630294 0 0.045144067901630294 0 0
          0.052113994968036384 0.052113994968036384 0 0.052113994968036384 0 0
          0.04069702524801321 0.04069702524801321 0 0.04069702524801321 0 0
          0.08103067829101378 0.08103067829101378 0 0.08103067829101378 0 0
          0.029949465091510176 0.029949465091510176 0 0.029949465091510176 0 0
          0.029383377768881974 0.029383377768881974 0 0.029383377768881974 0 0
          0.01778651312118871 0.01778651312118871 0 0.01778651312118871 0 0
          0.033029696724099625 0.033029696724099625 0 0.033029696724099625 0 0
          0.01834523221195173 0.01834523221195173 0 0.01834523221195173 0 0
          0.030447157338058375 0.030447157338058375 0 0.030447157338058375 0 0
          0.04678384391470191 0.04678384391470191 0 0.04678384391470191 0 0
          0.04970020482325921 0.04970020482325921 0 0.04970020482325921 0 0
          0.03003527718584275 0.03003527718584275 0 0.03003527718584275 0 0
          0.041193699641646764 0.041193699641646764 0 0.041193699641646764 0 0
          0.02689192781114865 0.02689192781114865 0 0.02689192781114865 0 0
          0.02838075404558034 0.02838075404558034 0 0.02838075404558034 0 0
          0.02219236307872506 0.02219236307872506 0 0.02219236307872506 0 0
          0.018237346596484513 0.018237346596484513 0 0.018237346596484513 0 0
          0.0101890599093758 0.0101890599093758 0 0.0101890599093758 0 0
          0.016011194203429613 0.016011194203429613 0 0.016011194203429613 0 0
          0.013684418461924527 0.013684418461924527 0 0.013684418461924527 0 0
          0.0557808249038793 0.0557808249038793 0 0.0557808249038793 0 0
          0.016996285454146953 0.016996285454146953 0 0.016996285454146953 0 0
          0.019111740546462887 0.019111740546462887 0 0.019111740546462887 0 0
          0.01313859004404259 0.01313859004404259 0 0.01313859004404259 0 0
          0.04750107017714846 0.04750107017714846 0 0.04750107017714846 0 0
          0.061741423916481436 0.061741423916481436 0 0.061741423916481436 0 0
          0.017763314488857304 0.017763314488857304 0 0.017763314488857304 0 0
          0.034310896847250444 0.034310896847250444 0 0.034310896847250444 0 0
          0.029170893535742558 0.029170893535742558 0 0.029170893535742558 0 0
          0.018080268853656323 0.018080268853656323 0 0.018080268853656323 0 0
          0.021641758733843892 0.021641758733843892 0 0.021641758733843892 0 0
          0.011223096941964914 0.011223096941964914 0 0.011223096941964914 0 0
          0.0344627226578092 0.0344627226578092 0 0.0344627226578092 0 0
          0.02085473620597706 0.02085473620597706 0 0.02085473620597706 0 0
          0.01714865433899374 0.01714865433899374 0 0.01714865433899374 0 0
          0.013401226067017715 0.013401226067017715 0 0.013401226067017715 0 0
          0.00821975953161191 0.00821975953161191 0 0.00821975953161191 0 0
          0.040471289144646504 0.040471289144646504 0 0.040471289144646504 0 0
          0.01981450588607235 0.01981450588607235 0 0.01981450588607235 0 0
          0.011285289293727876 0.011285289293727876 0 0.011285289293727876 0 0
          0.01581134506272719 0.01581134506272719 0 0.01581134506272719 0 0
          0.04041693677307045 0.04041693677307045 0 0.04041693677307045 0 0
          0.024976535497579992 0.024976535497579992 0 0.024976535497579992 0 0
          0.02506944905662867 0.02506944905662867 0 0.02506944905662867 0 0
          0.01157860326363136 0.01157860326363136 0 0.01157860326363136 0 0
          0.024239951496224574 0.024239951496224574 0 0.024239951496224574 0 0
          0.015493701791340228 0.015493701791340228 0 0.015493701791340228 0 0
          0.026387730173282893 0.026387730173282893 0 0.026387730173282893 0 0
          0.018648637937379777 0.018648637937379777 0 0.018648637937379777 0 0
          0.014871188206207423 0.014871188206207423 0 0.014871188206207423 0 0
          0.011902024570305775 0.011902024570305775 0 0.011902024570305775 0 0
          0.018831547587885102 0.018831547587885102 0 0.018831547587885102 0 0
          0.01104739968561011 0.01104739968561011 0 0.01104739968561011 0 0
          0.007210868609895751 0.007210868609895751 0 0.007210868609895751 0 0
          0.00757762133533098 0.00757762133533098 0 0.00757762133533098 0 0
          0.011929703327037647 0.011929703327037647 0 0.011929703327037647 0 0
          0.012700013649598548 0.012700013649598548 0 0.012700013649598548 0 0
          0.029672226908999226 0.029672226908999226 0 0.029672226908999226 0 0
          0.2818666805986026 0.2818666805986026 0 0.2818666805986026 0 0
          0.2599404893935845 0.2599404893935845 0 0.2599404893935845 0 0
          0.15229940067072942 0.15229940067072942 0 0.15229940067072942 0 0