<?xml version="1.0"?>
<VTKFile type="UnstructuredGrid" version="0.1" byte_order="LittleEndian" header_type="UInt32" compressor="vtkZLibDataCompressor">
  <UnstructuredGrid>
    <Piece NumberOfPoints="94" NumberOfCells="150">
      <PointData>
        <DataArray type="Float64" Name="Velocity" NumberOfComponents="3" format="ascii" RangeMin="1.9824000720270125e-23" RangeMax="2.718746343276034">
          2.5454760235490403 0 0 2.5578332508085286 0.16033754135474695 0
          2.7073110700846557 0.24909526064115275 0 2.2600452831074787 0 0
          2.03209273256182 0.33733764138247563 0 2.3877716219161695 0.27865033444607373 0
          2.6005057992858682 0.49855750021583317 0 2.0703196874280754 0.3592419054143308 0
          1.0672362863611624 0.3515253832711783 0 1.830227567578621 0 0
          2.219326057772879 0.5190166083767582 0 2.167669932454262 0.3973135399290038 0
          2.4571921563431536 0.7418452035925854 0 0.28549161846986615 0.2906348618343467 0
          1.2472963310104923 0.4317080400999059 0 2.4540064771326677 0.8111282464560285 0
          0.06331326742111976 0.22268617987746436 0 2.248001165557691 0.7355298599882836 0
          0.4251734654202224 0.30405066341828524 0 1.6823745482799533 0.7775801945468901 0
          0.0005366667420011965 0.007975003002776357 0 2.387198138514547 1.1139021317449902 0
          1.7274709195206122 0.2919328263124556 0 -0.006875123755326966 0.011228981584685781 0
          0.93288599524449 0.5193774972975514 0 2.10018363632648 0.8922924120230808 0
          2.0760255527714517 1.342602126457254 0 0.00228064261844302 0.013296845893053029 0
          -0.005642462660223007 0.014926097218794277 0 2.0440171358846535 1.1022637163002165 0
          1.720956063815247 1.520661636851922 0 1.4157194139990472 0 0
          -0.009340410565273303 0.01356042966472376 0 -0.007239744008997923 0.009995890288388374 0
          1.8537216234915996 1.3709958770434176 0 1.112747305687099 1.6561799444979413 0
          1.6788328112386934 0.6366503360953637 0 -0.002378293978297305 0.005710638404663765 0
          1.7327014300415742 1.0138661697122995 0 1.5562360549303675 1.5255901266108143 0
          0.0008284449851047025 0.0026143704615656325 0 1.1009218010626918 1.5862355129791674 0
          0.31903636956810555 0.804338974409329 0 -1.9824000720270125e-23 0 0
          1.5286274634924306 1.1259078029047809 0 1.2321065056800866 1.4377897157878778 0
          0.9397572227073868 1.394338779825889 0 1.4485724909520497 0.7405565801879422 0
          1.2705959870183996 0.20002413865183952 0 0.4379050045827828 0.7448355584264307 0
          1.3239720089876443 1.051684920480871 0 1.0798705733047684 1.1735027091027075 0
          1.3600219475584105 0.8263948531145783 0 0.7897380432333774 1.0318562524221602 0
          0.19350886399968084 0 0 1.1486576032741773 0.9635022140180397 0
          1.2965787866458474 0.6455851659923084 0 0.34432735278452725 0.27048216079728743 0
          0.9498189331567757 0.9319204695880441 0 0.6495698950581811 0.5474828915689739 0
          1.2340989955521462 0.38736436216005377 0 1.2146183244581414 0.6052620786741784 0
          1.1172221266395714 0 0 1.0446208238051267 0.6846441675743862 0
          0.4918546396553802 0 0 0.8884865472398021 0.6289033572443653 0
          0.8275485456873728 0.49118782031237906 0 1.0403105632470182 0.12826332203067442 0
          0.7678470712804708 0.2866500416086755 0 0.7329010298516796 0 0
          1.050948315221077 0.2298551525217138 0 1.0492093247217158 0.3549914901175768 0
          0.9799238887539096 0.3266600554003551 0 0.9525785156262385 0.25763396694541196 0
          0.9084684357105665 0.1544542693903209 0 0.9185998537705546 0 0
          1.0000000000805174 0 0 1.0000000000805174 0 0
          1.0000000000805174 0 0 1.002565194361896 0 0
          1.0000000000805174 0 0 1.0000000000805174 0 0
          1.0000000000805174 0 0 1.0000000000805174 0 0
          2.716292642383043 0.09338423552561652 0 2.624129395050956 0 0
          0.1412154477917697 0.32503941025170047 0 0.28017823538900904 0.30893889689829057 0
          1.071146406075617 0.2384451573721848 0 1.140597882264771 0.20084650785022534 0
          2.0769681742318373 0.16633065477063383 0 2.110582107810703 0.0710225976370869 0
          0.09350921573943904 0.2923230341219921 0 -0.009710032170155833 0.013564208828003105 0
          <InformationKey name="L2_NORM_RANGE" location="vtkDataArray" length="2">
            <Value index="0">
              1.982400072e-23
            </Value>
            <Value index="1">
              2.7187463433
            </Value>
          </InformationKey>
        </DataArray>
        <DataArray type="Float64" Name="Pressure" format="ascii" RangeMin="-3.3448289136494767" RangeMax="5.995534574074072">
          -2.311585294535301 -2.1006980462565252 -2.6891077530369127 -1.0121999510929225 -3.1288539089496195 -1.0795591635924764
          -1.9379227788729247 -2.8916704260835444 -3.112049067828201 0.7450591102063802 -2.625394091167833 -0.07492346787123487
          -1.8027425233102286 -3.1123672866617933 -3.0008313283068313 -2.1092848829752464 -3.0125102238119017 -0.2974104604727484
          -3.0316410992979215 -2.7404480183209783 -2.8165604953048478 -1.0385670474284587 1.2567496025550087 -3.0910159460758084
          -2.5621827916745374 0.31356182830580154 -1.3917748913640609 -0.48124305565551584 2.6102596766163284 0.40430392321848785
          -1.0824609049050284 2.0445708836563137 4.0970932593101015 5.182008882707081 0.4499989952168403 0.83126246371118
          1.57087007927897 5.764036805026316 1.4321233855148332 1.252744322519114 5.932327440254766 2.697283933590682
          4.631659302785247 5.994795139650705 1.9332243689281357 2.493325788628697 3.817561286233484 2.192211077033192
          2.427646680253585 5.36064822723368 2.6009165675337647 3.4553882416657102 2.6026882762581334 4.782421532341843
          5.995534574074072 3.304888175569477 2.6654714813281117 5.9081220636057115 4.225251638400968 5.656413955434674
          2.770886262821495 3.133313721244016 2.8517183898869956 3.8433632054099403 5.888019818426451 4.61076605865911
          5.243550982056599 2.9880759171458884 5.5659637919950535 5.609973972945042 3.3313617750188853 3.7709077848355745
          4.431314206997831 4.931350722342896 5.273837154744898 5.429330852718292 2.9957776742885978 3.187449106323122
          3.681845118065338 5.32089539559634 4.331109904028105 4.850034756456766 5.162212421647681 5.266199770871566
          -3.124775554563924 -2.83554373842872 -3.1244872056302597 -3.202725432362253 -3.2136559168357604 -3.3448289136494767
          -3.160476819314491 -3.2521537500337985 -3.058686433557859 -3.0779568175236034
        </DataArray>
        <DataArray type="Float64" Name="BTraction" NumberOfComponents="3" format="ascii" RangeMin="0" RangeMax="5.952249515101521">
          -0.007113530735748688 2.1624532913839296 0 0 0 0
          0 0 0 -0.01050506630973963 0.894445728017006 0
          0 0 0 0 0 0
          0 0 0 0 0 0
          0 0 0 -0.008243138553641385 -0.7228638102617782 0
          0 0 0 0 0 0
          0 0 0 0 0 0
          0 0 0 0 0 0
          0 0 0 0 0 0
          0 0 0 0 0 0
          -2.0210611856582674 -0.3607173960618746 0 0 0 0
          0 0 0 -2.9058798862381336 0.9096238910314326 0
          0 0 0 0 0 0
          0 0 0 -0.7438466248619322 -0.639935588611222 0
          -2.491648412886125 0.5291125694073591 0 0 0 0
          0 0 0 -0.00031485748335413556 -2.0103424811811106 0
          -3.992812613205018 1.0823090897865528 0 -4.959779900482313 1.3519806433695294 0
          0 0 0 0 0 0
          0 0 0 -5.571833578681908 1.3515021767870026 0
          0 0 0 0 0 0
          -5.879982475078013 0.9247055654648823 0 0 0 0
          0 0 0 -2.9912854704159906 3.294278002804473 0
          0 0 0 0 0 0
          0 0 0 0 0 0
          0 0 0 0 0 0
          0 0 0 0 0 0
          0 0 0 0 0 0
          -0.0041124710028184385 5.944113685010832 0 0 0 0
          0 0 0 0 0 0
          0 0 0 0 0 0
          0 0 0 0 0 0
          0.0037726701325892526 -2.7697940756775643 0 0 0 0
          -0.006811858368644523 5.798519353202789 0 0 0 0
          0 0 0 0 0 0
          0 0 0 -0.007474125837759494 5.578183026009104 0
          0 0 0 0 0 0
          0 0 0 0 0 0
          0 0 0 -0.0030463964006186848 5.402887627511385 0
          1.527945024847242 -1.4866335778895035 0 3.225195146980449 -0.00983936653228148 0
          3.6911540401870018 -0.01598322634798836 0 0.00047618941778581063 5.316868469194733 0
          4.290418479976961 -0.01881295649981063 0 4.810385973042692 -0.01731822415613859 0
          5.127039032121129 -0.008122738001842674 0 3.017329108324582 2.2362519463711177 0
          0 0 0 -0.004668870254735613 2.771570561473129 0
          0 0 0 0 0 0
          0 0 0 0 0 0
          0 0 0 0 0 0
          0 0 0 -2.93516221612639 0.8974460486531763 0
          <InformationKey name="L2_NORM_RANGE" location="vtkDataArray" length="2">
            <Value index="0">
              0
            </Value>
            <Value index="1">
              5.9522495151
            </Value>
          </InformationKey>
        </DataArray>
        <DataArray type="Float64" Name="ALEdispl" NumberOfComponents="3" format="ascii" RangeMin="0" RangeMax="2.7258513440206054">
          0 0 0 0.8530598113659293 -0.10528752700329069 0
          1.6813742276524553 -0.3695233830343568 0 0 0 0
          2.1555402957178473 -0.5930100160234693 0 1.0690936463230842 -0.16946376527080131 0
          1.989609137303251 -0.44948622144859046 0 2.32413584833953 -0.6210399632737531 0
          2.4852438086353046 -0.6835277922810781 0 0 0 0
          2.4385125976018007 -0.5629479958826314 0 1.3796676124874947 -0.20806572933241158 0
          2.317863516950329 -0.4315852396388224 0 2.5279822794585316 -0.7077407400226494 0
          2.615590029208868 -0.5933682590535672 0 2.542131224701931 -0.4535402631235302 0
          2.4317923033442543 -0.6786803161553926 0 2.170810090513339 -0.29772267460941676 0
          2.6298705740362616 -0.5761024248110844 0 2.693901061890292 -0.41612812743829286 0
          2.508631357386727 -0.5120538144158543 0 2.5853943353758297 -0.29098287703979947 0
          1.1689992174938268 -0.10280769829486469 0 2.0387529469652486 -0.4364749288310932 0
          2.6819459455818957 -0.34162297628862587 0 2.331436110516341 -0.210174543130713 0
          2.6807579124726213 -0.23198497515748293 0 2.5587316480995357 -0.19931580421255757 0
          2.0914983589789613 -0.12531645994647886 0 2.5040841746945106 -0.143879394124511 0
          2.6356135635106934 -0.1188611589190627 0 0 0 0
          1.5912195245066587 -0.05045771717610621 0 1.044070720114238 0.021171927103996926 0
          2.576723426187939 -0.05876329963419989 0 2.4384067558421854 -0.0013361891295663325 0
          2.046100664933388 -0.09623632833628198 0 0.5179225804111464 0.07308480842246066 0
          2.38446329035707 -0.0294981022465058 0 2.4935225172548603 0.051732399953663924 0
          0.1530857124312919 0.0698413176451787 0 2.090205684641378 0.133511002218683 0
          1.3603400482371568 0.15533676295300564 0 0 0 0
          2.3827246754040927 0.06486441572241125 0 2.2833434850213425 0.18218376187637902 0
          1.6610209170102317 0.23220696917139527 0 2.1465963164893775 0.008838388396698624 0
          0.989611569919281 -0.1410493825658974 0 0.9317256840879612 0.2643364389186659 0
          2.2627354829485515 0.1702215809774586 0 1.9440472840384218 0.3053612101624631 0
          2.1466270285351094 0.11449648103680618 0 1.3019943770563178 0.3461968865411607 0
          0 0 0 2.0405952338595674 0.29392522153694567 0
          1.9302489895178714 0.08467277548094744 0 0.24998747074923702 0.18997626091593706 0
          1.5745825276169423 0.39152712165784825 0 0.5966939155288549 0.3066998776181109 0
          1.5418960316051962 -0.055902053470723995 0 1.8848723385707338 0.17912430024192505 0
          0 0 0 1.7135370946417336 0.3799222163801678 0
          0 0 0 1.2419548624921533 0.4594564220100934 0
          0.8068857570138592 0.451302504529161 0 0.7962030524360778 -0.1764523762190866 0
          0.3834161350100213 0.2953949829921396 0 0 0 0
          0.9797472676009891 0.02036017435799441 0 1.1354674775196263 0.2354037353225745 0
          0.9101228984529744 0.36851730013689216 0 0.6704399252657298 0.4045252873118194 0
          0.3763165786890439 0.3183519652453768 0 0 0 0
          0 0 0 0 0 0
          0 0 0 0 0 0
          0 0 0 0 0 0
          0 0 0 0 0 0
          1.3866850798865622 -0.15276500618243677 0 0 0 0
          2.350103790724835 -0.8017786977320885 0 2.4044839110888665 -0.7823349802883384 0
          2.3397372034092268 -0.7165308986786554 0 2.1738704974362357 -0.6892976403446037 0
          1.9415827815053088 -0.5110758695425303 0 1.7458891006435726 -0.4063410696769575 0
          2.126859991231066 -0.7371527350258504 0 1.528845430378789 -0.352179059011928 0
          <InformationKey name="L2_NORM_RANGE" location="vtkDataArray" length="2">
            <Value index="0">
              0
            </Value>
            <Value index="1">
              2.725851344
            </Value>
          </InformationKey>
        </DataArray>
        <DataArray type="Float64" Name="ALEveloc" NumberOfComponents="3" format="ascii" RangeMin="0" RangeMax="0.021002370164286525">
          0 0 0 0.003927977852076436 -0.002583559096580923 0
          0.008078021641140687 -0.005455600413273087 0 0 0 0
          0.01101787782644692 -0.007433278232030993 0 0.004674738158537695 -0.002889785965050906 0
          0.009158419337848223 -0.006335358017804937 0 0.011745359098252806 -0.007969847174006506 0
          0.013315739288506379 -0.008710751169321629 0 0 0 0
          0.01191322087289004 -0.008106123919762176 0 0.0058791130041870865 -0.0034401320003951685 0
          0.0106431283758468 -0.007234729005479057 0 0.014606750660162593 -0.009142397228801169 0
          0.013573732488986412 -0.009050499231488929 0 0.011866284161294427 -0.00846569841955358 0
          0.015734521764588116 -0.00934772935628736 0 0.009133385898582702 -0.0062157315775704935 0
          0.014742133106316668 -0.00953165135016254 0 0.01331858438705602 -0.009769828529612612 0
          0.016073490601375084 -0.010140076157280187 0 0.011909998359612928 -0.009239657697722614 0
          0.004385175352653148 -0.002590074209832538 0 0.01760146283316022 -0.011391449525517072 0
          0.014490338967773297 -0.010761125532927296 0 0.010423006038680072 -0.008371770872104778 0
          0.013211171913142472 -0.010744514680578132 0 0.015607177498977887 -0.01145658020411422 0
          0.017526231329533015 -0.011572846145240512 0 0.01182073867503064 -0.010155486555826293 0
          0.014359445501003432 -0.01168630948276464 0 0 0 0
          0.016144859692588387 -0.009742150004525829 0 0.010624792423016727 -0.006591535181110962 0
          0.013267848320117182 -0.011273031255465082 0 0.015038521404526328 -0.011959121629389119 0
          0.009249829808315901 -0.008487936613614244 0 0.003739850249355192 -0.0032683735223485444 0
          0.012019334907056756 -0.010429000751840202 0 0.014009550577413599 -0.011492034799991654 0
          -0.0001858601955680439 -0.0013671173993194535 0 0.014658392665249487 -0.010708426639579743 0
          0.012641545811233001 -0.0071423245209000785 0 0 0 0
          0.012940596934473803 -0.010763417034854672 0 0.013815824025581236 -0.010826717717305812 0
          0.012703869191015293 -0.008298553128741448 0 0.011430954966077156 -0.00991442147551924 0
          0.004241618419251525 -0.005081007599314735 0 0.008332155057821922 -0.003654231847603606 0
          0.01301662667018455 -0.01022591992915356 0 0.012753436369302928 -0.009107700291931475 0
          0.012051496519053018 -0.00972647061802756 0 0.010374078533751385 -0.005699900680066761 0
          0 0 0 0.012197470780241026 -0.009019396745846342 0
          0.010869424708401354 -0.009002224042424872 0 0.0019836223721590995 0.00012604320811965275 0
          0.0106941975702739 -0.006886803521269469 0 0.005345662873123436 -0.0015450536566191664 0
          0.008966929427908443 -0.008231221922425272 0 0.01098779114325632 -0.00825885096549328 0
          0 0 0 0.010400775496756776 -0.006964257932212448 0
          0 0 0 0.008342266648307284 -0.004817584048620871 0
          0.006125207092749774 -0.0024020704919675007 0 0.005212173721451219 -0.005535128600016481 0
          0.0034727747908679385 -0.00027609426065633436 0 0 0 0
          0.006165048809091189 -0.004890734675848149 0 0.006786691049637694 -0.0043663651720473595 0
          0.00540714189734004 -0.0028241848815666604 0 0.00436412989322843 -0.001456395177707348 0
          0.0028681553710262486 -0.00008384358440044481 0 0 0 0
          0 0 0 0 0 0
          0 0 0 0 0 0
          0 0 0 0 0 0
          0 0 0 0 0 0
          0.006781497879096765 -0.0036069017024573102 0 0 0 0
          0.014899941907978942 -0.009513480009768482 0 0.013975183118235535 -0.009117759671263048 0
          0.012663159128155854 -0.008475845107329683 0 0.011711126589215581 -0.008016724880659742 0
          0.009872039257276644 -0.006603156363798934 0 0.008902931685506044 -0.005626996931971773 0
          0.015474399256067528 -0.010153603484739593 0 0.015580015021642968 -0.011986652116086072 0
          <InformationKey name="L2_NORM_RANGE" location="vtkDataArray" length="2">
            <Value index="0">
              0
            </Value>
            <Value index="1">
              0.021002370164
            </Value>
          </InformationKey>
        </DataArray>
      </PointData>
      <CellData>
        <DataArray type="UInt8" Name="vtkGhostType" format="ascii" RangeMin="0" RangeMax="1">
          0 0 0 0 0 0
          0 0 1 0 0 1
          0 1 0 0 1 1
          1 0 0 0 0 0
          1 1 0 1 1 0
          1 1 0 1 0 0
          0 0 0 0 0 0
          0 0 0 0 0 0
          0 0 0 0 0 0
          0 0 0 0 0 0
          0 0 0 0 0 0
          0 0 0 0 0 0
          0 0 0 0 0 0
          0 0 0 0 0 0
          0 1 0 0 0 0
          0 0 0 1 0 0
          0 0 0 0 0 1
          0 0 0 0 0 0
          0 0 0 0 0 0
          0 0 0 0 0 0
          0 0 0 0 0 0
          0 0 0 0 0 0
          0 1 0 0 0 0
          0 0 0 0 0 0
          0 0 0 0 0 0
        </DataArray>
        <DataArray type="Float64" Name="PStrain" NumberOfComponents="6" format="ascii" RangeMin="0.0070798835547558146" RangeMax="2.4160535893415047">
          0.010559802804443885 0.010559802804443885 0 0.010559802804443885 0 0
          0.012807722550983534 0.012807722550983534 0 0.012807722550983534 0 0
          0.015731453071799247 0.015731453071799247 0 0.015731453071799247 0 0
          0.012562279916658483 0.012562279916658483 0 0.012562279916658483 0 0
          0.009149882245804732 0.009149882245804732 0 0.009149882245804732 0 0
          0.00873460518892787 0.00873460518892787 0 0.00873460518892787 0 0
          0.007951475275179741 0.007951475275179741 0 0.007951475275179741 0 0
          0.01128026238094401 0.01128026238094401 0 0.01128026238094401 0 0
          0.009609576750885526 0.009609576750885526 0 0.009609576750885526 0 0
          0.007894848198581422 0.007894848198581422 0 0.007894848198581422 0 0
          0.009846683420034886 0.009846683420034886 0 0.009846683420034886 0 0
          0.006113390226176145 0.006113390226176145 0 0.006113390226176145 0 0
          0.007544855362747285 0.007544855362747285 0 0.007544855362747285 0 0
          0.005019643541894411 0.005019643541894411 0 0.005019643541894411 0 0
          0.08101140584000395 0.08101140584000395 0 0.08101140584000395 0 0
          0.05465138568381129 0.05465138568381129 0 0.05465138568381129 0 0
          0.09559921576109068 0.09559921576109068 0 0.09559921576109068 0 0
          0.09759485236185793 0.09759485236185793 0 0.09759485236185793 0 0
          0.04833577112458795 0.04833577112458795 0 0.04833577112458795 0 0
          0.056079890406087976 0.056079890406087976 0 0.056079890406087976 0 0
          0.04320207311222181 0.04320207311222181 0 0.04320207311222181 0 0
          0.024958229014123666 0.024958229014123666 0 0.024958229014123666 0 0
          0.021209948924464643 0.021209948924464643 0 0.021209948924464643 0 0
          0.024943079014306622 0.024943079014306622 0 0.024943079014306622 0 0
          0.0443516274925756 0.0443516274925756 0 0.0443516274925756 0 0
          0.02605643493073489 0.02605643493073489 0 0.02605643493073489 0 0
          0.022479933188999872 0.022479933188999872 0 0.022479933188999872 0 0
          0.029994693070570323 0.029994693070570323 0 0.029994693070570323 0 0
          0.01813921325513563 0.01813921325513563 0 0.01813921325513563 0 0
          0.025922631219281008 0.025922631219281008 0 0.025922631219281008 0 0
          0.01632409858243338 0.01632409858243338 0 0.01632409858243338 0 0
          0.013964014327114239 0.013964014327114239 0 0.013964014327114239 0 0
          0.01566767018480195 0.01566767018480195 0 0.01566767018480195 0 0
          0.007351795027733131 0.007351795027733131 0 0.007351795027733131 0 0
          0.09999999999999999 0.09999999999999999 0 0.09999999999999999 0 0
          0.005153019834783853 0.005153019834783853 0 0.005153019834783853 0 0
          0.012283908367623594 0.012283908367623594 0 0.012283908367623594 0 0
          0.007885822144645319 0.007885822144645319 0 0.007885822144645319 0 0
          0.0058479229624687195 0.0058479229624687195 0 0.0058479229624687195 0 0
          0.014981502782696648 0.014981502782696648 0 0.014981502782696648 0 0
          0.02967557540467805 0.02967557540467805 0 0.02967557540467805 0 0
          0.03543234786878923 0.03543234786878923 0 0.03543234786878923 0 0
          0.014221907842473569 0.014221907842473569 0 0.014221907842473569 0 0
          0.046310939652262344 0.046310939652262344 0 0.046310939652262344 0 0
          0.02115178050927527 0.02115178050927527 0 0.02115178050927527 0 0
          0.06024088092649228 0.06024088092649228 0 0.06024088092649228 0 0
          0.013269340310082749 0.013269340310082749 0 0.013269340310082749 0 0
          0.008619594960317334 0.008619594960317334 0 0.008619594960317334 0 0
          0.053628241831552625 0.053628241831552625 0 0.053628241831552625 0 0
          0.03417315313054706 0.03417315313054706 0 0.03417315313054706 0 0
          0.03999418794660002 0.03999418794660002 0 0.03999418794660002 0 0
          0.026338259135127065 0.026338259135127065 0 0.026338259135127065 0 0
          0.010927626769447227 0.010927626769447227 0 0.010927626769447227 0 0
          0.016855970303982306 0.016855970303982306 0 0.016855970303982306 0 0
          0.032078063616492083 0.032078063616492083 0 0.032078063616492083 0 0
          0.03210607353423953 0.03210607353423953 0 0.03210607353423953 0 0
          0.029586419357016225 0.029586419357016225 0 0.029586419357016225 0 0
          0.0142645121363984 0.0142645121363984 0 0.0142645121363984 0 0
          0.018340090234983748 0.018340090234983748 0 0.018340090234983748 0 0
          0.013110683939129578 0.013110683939129578 0 0.013110683939129578 0 0
          0.0045993537141875524 0.0045993537141875524 0 0.0045993537141875524 0 0
          0.008122309044408499 0.008122309044408499 0 0.008122309044408499 0 0
          0.014802535053168964 0.014802535053168964 0 0.014802535053168964 0 0
          0.012013731608349261 0.012013731608349261 0 0.012013731608349261 0 0
          0.009996673581672293 0.009996673581672293 0 0.009996673581672293 0 0
          0.006786201166676548 0.006786201166676548 0 0.006786201166676548 0 0
          0.004087572676169474 0.004087572676169474 0 0.004087572676169474 0 0
          1.3949091901828794 1.3949091901828794 0 1.3949091901828794 0 0
          0.8977816331546524 0.8977816331546524 0 0.8977816331546524 0 0
          0.9151166009063509 0.9151166009063509 0 0.9151166009063509 0 0
          0.9524655357676544 0.9524655357676544 0 0.9524655357676544 0 0
          0.22447629574636285 0.22447629574636285 0 0.22447629574636285 0 0
          0.25246746245768364 0.25246746245768364 0 0.25246746245768364 0 0
          1.2156093797846568 1.2156093797846568 0 1.2156093797846568 0 0
          0.6111886174331574 0.6111886174331574 0 0.6111886174331574 0 0
          0.1599763494256204 0.1599763494256204 0 0.1599763494256204 0 0
          0.24740839991082358 0.24740839991082358 0 0.24740839991082358 0 0
          0.06477657612812954 0.06477657612812954 0 0.06477657612812954 0 0
          0.32168979487747956 0.32168979487747956 0 0.32168979487747956 0 0
          0.2210393246621975 0.2210393246621975 0 0.2210393246621975 0 0
          0.21107244105569617 0.21107244105569617 0 0.21107244105569617 0 0
          0.594748224720673 0.594748224720673 0 0.594748224720673 0 0
          0.16703279868611373 0.16703279868611373 0 0.16703279868611373 0 0
          0.2626295717611968 0.2626295717611968 0 0.2626295717611968 0 0
          0.131208123497555 0.131208123497555 0 0.131208123497555 0 0
          0.288697116938328 0.288697116938328 0 0.288697116938328 0 0
          0.08879295798441131 0.08879295798441131 0 0.08879295798441131 0 0
          0.05849357652078509 0.05849357652078509 0 0.05849357652078509 0 0
          0.38775078024138615 0.38775078024138615 0 0.38775078024138615 0 0
          0.07549068736180192 0.07549068736180192 0 0.07549068736180192 0 0
          0.02328569945064618 0.02328569945064618 0 0.02328569945064618 0 0
          0.08663202179819077 0.08663202179819077 0 0.08663202179819077 0 0
          0.02958702193074598 0.02958702193074598 0 0.02958702193074598 0 0
          0.26684905522531277 0.26684905522531277 0 0.26684905522531277 0 0
          0.15505329551448466 0.15505329551448466 0 0.15505329551448466 0 0
          0.08689135201497702 0.08689135201497702 0 0.08689135201497702 0 0
          0.329771045299291 0.329771045299291 0 0.329771045299291 0 0
          0.09920208243374898 0.09920208243374898 0 0.09920208243374898 0 0
          0.05601014368371644 0.05601014368371644 0 0.05601014368371644 0 0
          0.15592061315373099 0.15592061315373099 0 0.15592061315373099 0 0
          0.07960588180900234 0.07960588180900234 0 0.07960588180900234 0 0
          0.15636092902989676 0.15636092902989676 0 0.15636092902989676 0 0
          0.035945922659624305 0.035945922659624305 0 0.035945922659624305 0 0
          0.19056906599775905 0.19056906599775905 0 0.19056906599775905 0 0
          0.17820462319696995 0.17820462319696995 0 0.17820462319696995 0 0
          0.2009989905681349 0.2009989905681349 0 0.2009989905681349 0 0
          0.03458216684482844 0.03458216684482844 0 0.03458216684482844 0 0
          0.031428048818000265 0.031428048818000265 0 0.031428048818000265 0 0
          0.1576008753305137 0.1576008753305137 0 0.1576008753305137 0 0
          0.09480549758855544 0.09480549758855544 0 0.09480549758855544 0 0
          0.08959128127517262 0.08959128127517262 0 0.08959128127517262 0 0
          0.029225051257595606 0.029225051257595606 0 0.029225051257595606 0 0
          0.18698351265785 0.18698351265785 0 0.18698351265785 0 0
          0.04778858532383881 0.04778858532383881 0 0.04778858532383881 0 0
          0.07569923793859347 0.07569923793859347 0 0.07569923793859347 0 0
          0.05250782609556085 0.05250782609556085 0 0.05250782609556085 0 0
          0.0768679915176074 0.0768679915176074 0 0.0768679915176074 0 0
          0.06070086305061488 0.06070086305061488 0 0.06070086305061488 0 0
          0.03979679688728072 0.03979679688728072 0 0.03979679688728072 0 0
          0.09065574190727657 0.09065574190727657 0 0.09065574190727657 0 0
          0.10749507248467845 0.10749507248467845 0 0.10749507248467845 0 0
          0.0996891748900404 0.0996891748900404 0 0.0996891748900404 0 0
          0.015551323679440641 0.015551323679440641 0 0.015551323679440641 0 0
          0.11183730453176469 0.11183730453176469 0 0.11183730453176469 0 0
          0.09763692920114483 0.09763692920114483 0 0.09763692920114483 0 0
          0.03015325863288757 0.03015325863288757 0 0.03015325863288757 0 0
          0.053211761496812934 0.053211761496812934 0 0.053211761496812934 0 0
          0.07125242851321012 0.07125242851321012 0 0.07125242851321012 0 0
          0.07331791994819001 0.07331791994819001 0 0.07331791994819001 0 0
          0.27974981958642037 0.27974981958642037 0 0.27974981958642037 0 0
          0.03349402722084056 0.03349402722084056 0 0.03349402722084056 0 0
          0.017750176460467375 0.017750176460467375 0 0.017750176460467375 0 0
          0.06031186117275429 0.06031186117275429 0 0.06031186117275429 0 0
          0.2715218698634012 0.2715218698634012 0 0.2715218698634012 0 0
          0.07799006351039028 0.07799006351039028 0 0.07799006351039028 0 0
          0.1257007614993494 0.1257007614993494 0 0.1257007614993494 0 0
          0.12215128095999175 0.12215128095999175 0 0.12215128095999175 0 0
          0.058739853964956554 0.058739853964956554 0 0.058739853964956554 0 0
          0.018815237952828145 0.018815237952828145 0 0.018815237952828145 0 0
          0.015789871265902953 0.015789871265902953 0 0.015789871265902953 0 0
          0.04016903680692359 0.04016903680692359 0 0.04016903680692359 0 0
          0.012283908367623598 0.012283908367623598 0 0.012283908367623598 0 0
          0.08609381891666429 0.08609381891666429 0 0.08609381891666429 0 0
          0.015992460450166675 0.015992460450166675 0 0.015992460450166675 0 0
          0.04480078093774899 0.04480078093774899 0 0.04480078093774899 0 0
          0.027629046932434856 0.027629046932434856 0 0.027629046932434856 0 0
          0.027453132051961628 0.027453132051961628 0 0.027453132051961628 0 0
          0.03939592035633334 0.03939592035633334 0 0.03939592035633334 0 0
          0.04228609538441721 0.04228609538441721 0 0.04228609538441721 0 0
          0.028308588834958646 0.028308588834958646 0 0.028308588834958646 0 0