<?xml version="1.0"?>
<VTKFile type="UnstructuredGrid" version="0.1" byte_order="LittleEndian" header_type="UInt32" compressor="vtkZLibDataCompressor">
  <UnstructuredGrid>
    <Piece NumberOfPoints="97" NumberOfCells="154">
      <PointData>
        <DataArray type="Float64" Name="Velocity" NumberOfComponents="3" format="ascii" RangeMin="0" RangeMax="2.7401137509419855">
          1.0299404489850625 0.010661398339598383 0 1.0509407716613106 0 0
          0.9881707225282742 -0.0048042733417358345 0 1.0004442800798756 -0.024017551690842263 0
          0.9817349757047066 -0.017251237009023 0 1.123346652391562 0 0
          0.9898921350400007 0.0022189140346563514 0 0.967821623350785 0 0
          0.965832066630721 -0.0021149318928796847 0 0.9721526997107166 -0.0015353329949834016 0
          1.2105833636841814 0 0 0.9400828767561551 0 0
          0.8938119566312486 0 0 1.6273420084924328 0 0
          0.9121848354396298 -0.4510769968820718 0 1.6775235385455565 -0.5250570974495968 0
          0.4628824523723087 0 0 2.324452081435816 0 0
          0.34365932210646616 -0.550134602236417 0 1.0847033964249215 -0.7937282068209536 0
          2.3284876259553955 -0.32984950354829135 0 -0.08036153695414014 0 0
          2.690131418828628 0 0 -0.18693514788804877 -0.6666235405181452 0
          1.065888232689547 -0.574421757858397 0 2.670077219838349 -0.06852373256868116 0
          -0.8126555129214089 0 0 2.697611194506606 0 0
          -0.596276261344462 -0.1484179054676729 0 1.7533552215235597 -0.1154482451887329 0
          0.2139627731543916 -0.11482834690117612 0 2.739567499519145 0.05471091006168573 0
          -0.9606197743181485 0 0 2.5989185676196227 0 0
          2.067150222959663 -0.03627444242291642 0 0.46951041045114067 0.15937512685304545 0
          -0.6958750669641077 0.0794889053235526 0 -0.8544416949612506 0 0
          2.687735056078287 0.10437666427205752 0 0.9338624157356339 0.19553461046531168 0
          -0.18826402299142128 0.31424183362588254 0 2.1113704914990263 0.06056115089536164 0
          -0.6005547962044344 0.19314435362521254 0 0.4087417489777904 0.33890776720045174 0
          0.7847826097672627 0.21841808817399655 0 0.07686567207413605 0.3925158054275344 0
          -0.5896860938083167 0 0 1.347415184966327 0.053339659044150986 0
          -0.3325269286490697 0.3103986808498021 0 2.0937751108453835 0.14031323274053698 0
          0.3691298078438819 0.378605289012881 0 -0.4880028082919612 0.14780918282182778 0
          -0.11232553130937194 0.37641271393893383 0 0.5429014676328573 0.21951480567877502 0
          -0.40867442856231995 0.2669612239223618 0 0.12054643416619487 0.40997751034890206 0
          1.1731845973079422 0.16677691009152545 0 -0.2301991911047854 0.3486235939569835 0
          0.2826995352326289 0.3524447486799999 0 -0.3543298314080633 0 0
          -0.036466187331240414 0.403654080747965 0 -0.32718375001098055 0.1524116740545544 0
          0.39798113794545764 0.24122376466440903 0 -0.2631890219286901 0.25689664579404886 0
          0.1294708973397582 0.41590542307996514 0 1.1072416228603141 0.21095268820066973 0
          -0.12068405489043954 0.33737792877635625 0 0.20484458716235868 0.3715485512034709 0
          0.03458535031832569 0.38914893916100796 0 0.28943021540181946 0.2917924478483145 0
          -0.19057373592884225 0.1416586205646368 0 0.1316056389388598 0.3849920757377183 0
          -0.1907215385471485 0 0 -0.13585694398076983 0.2311402123815173 0
          0.13896078248574986 0.3207188127830494 0 -0.019459312982681137 0.31716064478535944 0
          0.06398086295992596 0.32602910247031297 0 0.09508716686581214 0.29644333844581044 0
          -0.07137476404007771 -3.068257351427709e-23 0 -0.026794144656048697 0.1922463894123625 0
          0.03170709128553785 0.18885652068464392 0 -0.02498637371721958 0.06920183024932522 0
          -0.003629359528726138 0.017477675792437555 0 -0.014955256673757997 5.2315909873308364e-23 0
          -0.0053781193199279025 0.015087710283490516 0 -0.004257377990747491 0.010953699124134512 0
          -0.0012508659609632082 0.005652772102005622 0 0 0 0
          2.525618690482064 0.15300053186376178 0 2.6931119306441307 0.22875282172078662 0
          2.510582873186346 0 0 0.29363693242492767 0.28767455679042686 0
          1.1023996647244096 0.3377288712764259 0 2.1028157027532126 0.3371768111541454 0
          2.060208248109178 0.3096587525711371 0 0.06244050807318737 0.22951086948229876 0
          0.0025040763606709367 0.016812791879488656 0
          <InformationKey name="L2_NORM_RANGE" location="vtkDataArray" length="2">
            <Value index="0">
              0
            </Value>
            <Value index="1">
              2.7401137509
            </Value>
          </InformationKey>
        </DataArray>
        <DataArray type="Float64" Name="Pressure" format="ascii" RangeMin="-4.189191624745793" RangeMax="0.14309432534909705">
          -0.0344923380024149 0.002082701712459195 -0.00009619418767545414 0.02207101642748446 0.014607715073720981 0.051485925166109045
          0.0014537020584638287 0.013799593433519518 0.030637430258023034 -0.002846568816521025 0.01771580832074182 0.04986677758362398
          0.14309432534909705 0.006195604761584678 -0.1160684535109004 -0.8517909141245953 -0.10423504132092873 -1.3081611719466022
          -0.8144283617688948 -1.7139732218998847 -2.0479058923279454 -1.1600581253939648 -2.5777347452887818 -2.0703352846754997
          -3.584850851128337 -2.959199261665512 -2.580326929187611 -2.956174477256964 -3.5639689021421717 -4.033895760107973
          -4.189191624745793 -3.1112588159701047 -3.5516903924049417 -2.820477112438774 -3.6087170291300485 -4.142753527846973
          -3.9929922273318494 -3.602489776564711 -3.0618081333716205 -3.707718450020518 -3.817872627459654 -3.176222150301995
          -3.5013756484315293 -3.6263127595808053 -3.4791836638363947 -3.566099564837978 -3.3224626141911555 -3.324495601936861
          -3.473550305916544 -3.116130989757036 -3.457132759724501 -3.272266359511229 -3.429634475116972 -3.3720821415604756
          -3.274721884598501 -3.3763766913609357 -3.3317802141320705 -3.2763115267991445 -3.3125674015705515 -3.108539760238464
          -3.2595525376724708 -3.115140239573599 -3.2967774518330475 -3.116116332742153 -3.2354608525573854 -3.2528145677260034
          -3.1260536890782054 -3.224547256384691 -3.130046515026761 -3.2468377749473256 -3.004076357154959 -3.135258163874328
          -2.9977273540439318 -3.0081445370606508 -3.153773161161389 -3.025714775552621 -3.0340956459164334 -3.0671857162806844
          -2.948110046167564 -2.9549489822214468 -2.9815022605065953 -2.928188186216733 -2.99648192080702 -2.9263851954382214
          -2.9579060654844507 -2.9280240007766065 -2.9178475713976297 -2.9150286071223124 -2.1004066488096713 -2.6668027754868686
          -2.3048260207003963 -3.1828998038998946 -3.1864828786542057 -2.9383478498655027 -3.1317639135691993 -3.054066702241965
          -3.0445509754660596
        </DataArray>
        <DataArray type="Float64" Name="BTraction" NumberOfComponents="3" format="ascii" RangeMin="0" RangeMax="3.5666496041448514">
          0.012272608085176882 0.011271177588353243 0 0.0017988811397587217 -0.003241166087321872 0
          0.0052388761868457125 0.0006818486654938833 0 0 0 0
          0 0 0 0.003601802688904439 -0.0369175464040281 0
          -0.0006262196172521125 0.0032992139585127085 0 -0.0005947321979968642 0.018936540777410256 0
          0 0 0 0 0 0
          0.009222561086110796 -0.012358834046709592 0 -0.0007471356398846369 0.06005968053883528 0
          -0.004659866880058496 0.09541905578040595 0 0.01514379120699302 0.21666229330034006 0
          0 0 0 0 0 0
          -0.008911443402608089 -0.18451349528731772 0 0.013283919326975351 1.284799620723086 0
          0 0 0 0 0 0
          0 0 0 -0.009928997617817426 -1.1080258542871453 0
          0.005282111588559957 2.4268496934804937 0 0 0 0
          0 0 0 0 0 0
          -0.012244359549707418 -2.4253766705015956 0 -0.0012408676452575894 2.8690794703017186 0
          0 0 0 0 0 0
          0 0 0 0 0 0
          -0.012670475791031068 -3.381180875818854 0 -0.004619594060378698 2.7539676466043366 0
          0 0 0 0 0 0
          0 0 0 -0.007083145975248697 -3.566642570792554 0
          0 0 0 0 0 0
          0 0 0 0 0 0
          0 0 0 0 0 0
          0 0 0 0 0 0
          -0.002620515419014723 -3.374253963311518 0 0 0 0
          0 0 0 0 0 0
          0 0 0 0 0 0
          0 0 0 0 0 0
          0 0 0 0 0 0
          0 0 0 0 0 0
          0 0 0 -0.0011696854706649835 -3.1626634165806697 0
          0 0 0 0 0 0
          0 0 0 0 0 0
          0 0 0 0 0 0
          0 0 0 0 0 0
          0 0 0 0 0 0
          0 0 0 0 0 0
          0.0002161341861902388 -3.0381339486741927 0 0 0 0
          0 0 0 0 0 0
          0 0 0 0 0 0
          0.0003475627877105281 -2.974058872185254 0 0 0 0
          0 0 0 0 0 0
          -2.865279595782975 0.8701897363660455 0 -0.000050671431196629465 -2.9362866758235864 0
          -2.8376757486856596 0.8079127720379385 0 -2.834458222266342 0.699736843076398 0
          -2.870849450837301 0.46243066955136447 0 -1.397889777497599 -1.372117311043309 0
          0 0 0 0 0 0
          -0.007129262004671504 2.1626230325856173 0 0 0 0
          0 0 0 0 0 0
          0 0 0 0 0 0
          -2.8674376502976 0.8975671948610175 0
          <InformationKey name="L2_NORM_RANGE" location="vtkDataArray" length="2">
            <Value index="0">
              0
            </Value>
            <Value index="1">
              3.5666496041
            </Value>
          </InformationKey>
        </DataArray>
        <DataArray type="Float64" Name="ALEdispl" NumberOfComponents="3" format="ascii" RangeMin="0" RangeMax="2.614165627664215">
          0 0 0 0 0 0
          0 0 0 0.20664344334210769 0.0344358389427798 0
          0.13517816490259757 -0.053273677744258334 0 0 0 0
          0 0 0 0 0 0
          0.19305379988702434 -0.018787312024478184 0 0.32977577392467455 0.004303750522800025 0
          0 0 0 0 0 0
          0 0 0 0 0 0
          0.5825289016393688 0.00869455482665954 0 0.42188554665800515 0.07013534044527252 0
          0 0 0 0 0 0
          0.4317925792945647 -0.13787994856656938 0 0.8493918302306047 -0.06172530706144969 0
          0.4524074674611827 0.09489932695986533 0 0 0 0
          0 0 0 0.48071065859627504 -0.20470781206801816 0
          1.0869223866494038 -0.15571649955095893 0 0.557261326243891 0.08831629838093621 0
          0 0 0 0 0 0
          0.6154092651636498 -0.27683004711536974 0 1.2127408448154875 -0.19630708951580642 0
          1.1707115774659718 -0.37923969154374715 0 0.7301744991341947 0.04931327001832932 0
          0 0 0 0 0 0
          1.3373016606736539 -0.25464376806266964 0 1.444014918195408 -0.5403539013355978 0
          0.8316050781456222 -0.46769173387020624 0 0 0 0
          1.3821640813004976 -0.15036040504746523 0 1.7938625156370338 -0.6078310709328362 0
          1.4262951695322448 -0.7902984496781952 0 1.7399538128532352 -0.4025897383889764 0
          0.7184209002890911 -0.5175402341027018 0 1.7764856095074535 -0.7876264843874354 0
          1.9622775841990947 -0.6960669253582109 0 1.6937832752767081 -0.8660065444826128 0
          0 0 0 1.968257480597935 -0.6101231852487534 0
          1.1633286695055838 -0.7670821407434247 0 1.9350014220004577 -0.5066737652999976 0
          1.9406464915449848 -0.8475378015658399 0 0.49061219229164565 -0.39048126515047055 0
          1.501985933923506 -0.8821667617488108 0 2.1111368425915735 -0.774782366710847 0
          0.884316391750142 -0.6560548411002132 0 1.8291567598944714 -0.9167133085633432 0
          2.166063079710092 -0.6839531570908306 0 1.2656123721422596 -0.8347522117395075 0
          2.088515206923077 -0.8816028890077052 0 0 0 0
          1.6255848409980282 -0.9101985469865365 0 0.557465802619527 -0.46041930216903726 0
          2.259962149793746 -0.8011039595843864 0 0.9427188019154633 -0.7006029799893506 0
          1.954339168874007 -0.9148498131514976 0 2.3312950973237894 -0.7108803352737688 0
          1.3312117970290553 -0.8247760957307874 0 2.221605867926543 -0.8633927890893293 0
          1.711695920721135 -0.8662083344806681 0 2.395167122343376 -0.7762564738408297 0
          0.5656179583572885 -0.47127525461270314 0 2.0569842429957896 -0.8574494010640931 0
          0 0 0 0.9421141889335827 -0.6460315335201786 0
          2.3401704961195158 -0.7954363777255762 0 1.3473699354279645 -0.7248668451698832 0
          1.7061763030482704 -0.7159553703559174 0 2.1165437250603545 -0.7303836660360241 0
          0 0 0 0.9181804035452168 -0.5106877697368895 0
          1.3342981527937905 -0.5221242633808486 0 0.37847003873102375 -0.2741796726888517 0
          1.5184587536976937 -0.3441879576012039 0 0 0 0
          0.9647558181174787 -0.25100333994018237 0 0.47763063159461666 -0.16179249601085802 0
          0.14057739160353866 -0.08190892192953039 0 0 0 0
          0.8504411594645451 -0.10356515427223674 0 1.6759888798916949 -0.36588631609217476 0
          0 0 0 2.51824444568509 -0.7016458085367819 0
          2.4763666491096337 -0.6777206248348637 0 2.3163056089406946 -0.6157267318244154 0
          2.1481950438335495 -0.5880544972021152 0 2.4213026221678624 -0.6724484965845344 0
          2.0270186384098086 -0.4288806291474151 0
          <InformationKey name="L2_NORM_RANGE" location="vtkDataArray" length="2">
            <Value index="0">
              0
            </Value>
            <Value index="1">
              2.6141656277
            </Value>
          </InformationKey>
        </DataArray>
        <DataArray type="Float64" Name="ALEveloc" NumberOfComponents="3" format="ascii" RangeMin="0" RangeMax="0.05897152861371475">
          0 0 0 0 0 0
          0 0 0 0.0045616029161891225 0.0007583022862060959 0
          0.0029849193800435547 -0.0011777704894807284 0 0 0 0
          0 0 0 0 0 0
          0.004262291118624972 -0.00041763638770052347 0 0.007279791278101522 0.00008859761254797517 0
          0 0 0 0 0 0
          0 0 0 0 0 0
          0.012852998123254356 0.00020701213406464775 0 0.009263892751921077 0.001549916764607348 0
          0 0 0 0 0 0
          0.009566092728138798 -0.003028830939801136 0 0.01872477552332219 -0.0014071241349037783 0
          0.009948627723446513 0.0021325253848889225 0 0 0 0
          0 0 0 0.010641633057438704 -0.004504650852654668 0
          0.02395368250810259 -0.0035275531437367613 0 0.012299600238609543 0.0019448982332700981 0
          0 0 0 0 0 0
          0.013566917388301958 -0.006195545783737821 0 0.026734476898261805 -0.004713562193918885 0
          0.025768210827059823 -0.008863976064713452 0 0.016279309309075618 0.0009499701288826767 0
          0 0 0 0 0 0
          0.029439441193359617 -0.006474552633945807 0 0.03170940515159426 -0.01276708098121615 0
          0.01803811462373006 -0.01074034464269047 0 0 0 0
          0.031141706969491256 -0.004292863531639074 0 0.03922880832297082 -0.015158380914869984 0
          0.030355811661060272 -0.018341344885197453 0 0.03897208952750786 -0.010863321231822765 0
          0.014887376896885796 -0.011526115089843358 0 0.03819576571623706 -0.01911961018324071 0
          0.04288400634530065 -0.0176356888292879 0 0.035867478273476916 -0.02060292064584046 0
          0 0 0 0.043553870605408385 -0.015998869356036782 0
          0.024012845870913013 -0.01731937924034277 0 0.043641440884377936 -0.0136389934858544 0
          0.0415138752452715 -0.020945988555547634 0 0.009738152060868255 -0.008324702392565442 0
          0.03108975799528979 -0.020347756513529047 0 0.0459416792699856 -0.020009763966006178 0
          0.017541080927000907 -0.014158261184896714 0 0.03819881860950147 -0.02200201577101768 0
          0.04809179987809831 -0.018277369888662243 0 0.025339849683787774 -0.018424597414894883 0
          0.04429345460797807 -0.022270252329616325 0 0 0 0
          0.03299503000175408 -0.020957262227367268 0 0.010371672374137386 -0.009168100149802072 0
          0.04906968620400187 -0.02119383051330903 0 0.017724953575499747 -0.014161552137755384 0
          0.04013781388319826 -0.02236564604571556 0 0.052036904274964435 -0.019321534089543402 0
          0.025588986832870697 -0.01747339718665475 0 0.04677724457322885 -0.022482250171286466 0
          0.033781737499029685 -0.019865267223643013 0 0.052099256919886816 -0.021074866960071104 0
          0.009799270399961313 -0.008208539271896909 0 0.04132245621931885 -0.021456885763164513 0
          0 0 0 0.016273194152294446 -0.011047245753863288 0
          0.04907704599433149 -0.021431986712651563 0 0.02406406191209287 -0.013855780950888574 0
          0.03170473921431727 -0.015373763200040802 0 0.04116894418717276 -0.018208273347339432 0
          0 0 0 0.014366926482158648 -0.005877713276445262 0
          0.020380656495419647 -0.006135601581938932 0 0.005789474932437533 -0.0011246779859067635 0
          0.021247750498715412 0.0002454715833740684 0 0 0 0
          0.012532013729015024 0.0028270189289526515 0 0.006684125957681197 0.003057354238940352 0
          0.0027022075715043004 0.0014992044560682566 0 0 0 0
          0.019729752650314847 -0.0029773706903184483 0 0.03855024696250231 -0.010009737800665164 0
          0 0 0 0.05529407352860183 -0.019394317886113344 0
          0.05596445913168502 -0.01859087144638827 0 0.05333825405559711 -0.01672914817073945 0
          0.048826058997278654 -0.016054932267396627 0 0.05040123259651619 -0.01846549217424287 0
          0.03492411334142531 -0.005675213892408326 0
          <InformationKey name="L2_NORM_RANGE" location="vtkDataArray" length="2">
            <Value index="0">
              0
            </Value>
            <Value index="1">
              0.058971528614
            </Value>
          </InformationKey>
        </DataArray>
      </PointData>
      <CellData>
        <DataArray type="UInt8" Name="vtkGhostType" format="ascii" RangeMin="0" RangeMax="0">
          0 0 0 0 0 0
          0 0 0 0 0 0
          0 0 0 0 0 0
          0 0 0 0 0 0
          0 0 0 0 0 0
          0 0 0 0 0 0
          0 0 0 0 0 0
          0 0 0 0 0 0
          0 0 0 0 0 0
          0 0 0 0 0 0
          0 0 0 0 0 0
          0 0 0 0 0 0
          0 0 0 0 0 0
          0 0 0 0 0 0
          0 0 0 0 0 0
          0 0 0 0 0 0
          0 0 0 0 0 0
          0 0 0 0 0 0
          0 0 0 0 0 0
          0 0 0 0 0 0
          0 0 0 0 0 0
          0 0 0 0 0 0
          0 0 0 0 0 0
          0 0 0 0 0 0
          0 0 0 0 0 0
          0 0 0 0
        </DataArray>
        <DataArray type="Float64" Name="PStrain" NumberOfComponents="6" format="ascii" RangeMin="7.269239292444855e-8" RangeMax="0.4958570341714575">
          0.09999999999999999 0.09999999999999999 0 0.09999999999999999 0 0
          0.000001912022248948304 0.000001912022248948304 0 0.000001912022248948304 0 0
          0.0000089308826057382 0.0000089308826057382 0 0.0000089308826057382 0 0
          0.0000017162196397414147 0.0000017162196397414147 0 0.0000017162196397414147 0 0
          0.0000017577231308953235 0.0000017577231308953235 0 0.0000017577231308953235 0 0
          2.5356471695219586e-7 2.5356471695219586e-7 0 2.5356471695219586e-7 0 0
          0.0000011641741069191045 0.0000011641741069191045 0 0.0000011641741069191045 0 0
          1.645917146452247e-7 1.645917146452247e-7 0 1.645917146452247e-7 0 0
          5.49511743206299e-7 5.49511743206299e-7 0 5.49511743206299e-7 0 0
          4.772029411906655e-7 4.772029411906655e-7 0 4.772029411906655e-7 0 0
          1.2052278049532925e-7 1.2052278049532925e-7 0 1.2052278049532925e-7 0 0
          2.1481715116965207e-7 2.1481715116965207e-7 0 2.1481715116965207e-7 0 0
          0.000014266804341322976 0.000014266804341322976 0 0.000014266804341322976 0 0
          9.087340248040703e-8 9.087340248040703e-8 0 9.087340248040703e-8 0 0
          9.087340248040703e-8 9.087340248040703e-8 0 9.087340248040703e-8 0 0
          0.000014266804341322976 0.000014266804341322976 0 0.000014266804341322976 0 0
          4.196897262296842e-8 4.196897262296842e-8 0 4.196897262296842e-8 0 0
          0.000010497480249159845 0.000010497480249159845 0 0.000010497480249159845 0 0
          0.009546069913575653 0.009546069913575653 0 0.009546069913575653 0 0
          0.006075543627854394 0.006075543627854394 0 0.006075543627854394 0 0
          0.008781712257447578 0.008781712257447578 0 0.008781712257447578 0 0
          0.004980118195479914 0.004980118195479914 0 0.004980118195479914 0 0
          0.005787635914978888 0.005787635914978888 0 0.005787635914978888 0 0
          0.005648370235139743 0.005648370235139743 0 0.005648370235139743 0 0
          0.005477975522182306 0.005477975522182306 0 0.005477975522182306 0 0
          0.002998776777579387 0.002998776777579387 0 0.002998776777579387 0 0
          0.0022895895142782618 0.0022895895142782618 0 0.0022895895142782618 0 0
          0.00426383522125163 0.00426383522125163 0 0.00426383522125163 0 0
          0.005521096661624307 0.005521096661624307 0 0.005521096661624307 0 0
          0.0021897970681431286 0.0021897970681431286 0 0.0021897970681431286 0 0
          0.0010631019249820806 0.0010631019249820806 0 0.0010631019249820806 0 0
          0.002588582037705058 0.002588582037705058 0 0.002588582037705058 0 0
          0.0038615729061436815 0.0038615729061436815 0 0.0038615729061436815 0 0
          0.0018208983947152514 0.0018208983947152514 0 0.0018208983947152514 0 0
          0.004624542736692857 0.004624542736692857 0 0.004624542736692857 0 0
          0.0023029103758329342 0.0023029103758329342 0 0.0023029103758329342 0 0
          0.0025643950300096334 0.0025643950300096334 0 0.0025643950300096334 0 0
          0.0018447419463716876 0.0018447419463716876 0 0.0018447419463716876 0 0
          0.0006531274181528926 0.0006531274181528926 0 0.0006531274181528926 0 0
          0.0008547547989146704 0.0008547547989146704 0 0.0008547547989146704 0 0
          0.0009079955859665025 0.0009079955859665025 0 0.0009079955859665025 0 0
          0.0007455605194460862 0.0007455605194460862 0 0.0007455605194460862 0 0
          0.0010070591794873462 0.0010070591794873462 0 0.0010070591794873462 0 0
          0.0012154783726461397 0.0012154783726461397 0 0.0012154783726461397 0 0
          0.0023505973863079464 0.0023505973863079464 0 0.0023505973863079464 0 0
          0.001141604657919322 0.001141604657919322 0 0.001141604657919322 0 0
          0.0008340895638394416 0.0008340895638394416 0 0.0008340895638394416 0 0
          0.00032663517853280066 0.00032663517853280066 0 0.00032663517853280066 0 0
          0.0002809418549773328 0.0002809418549773328 0 0.0002809418549773328 0 0
          0.0003124827079785305 0.0003124827079785305 0 0.0003124827079785305 0 0
          0.0003422467200229533 0.0003422467200229533 0 0.0003422467200229533 0 0
          0.0002000051900388269 0.0002000051900388269 0 0.0002000051900388269 0 0
          0.0002536630071049308 0.0002536630071049308 0 0.0002536630071049308 0 0
          0.00012276428689920926 0.00012276428689920926 0 0.00012276428689920926 0 0
          0.00008044786161894818 0.00008044786161894818 0 0.00008044786161894818 0 0
          0.00007768542401243684 0.00007768542401243684 0 0.00007768542401243684 0 0
          0.00010997483567388398 0.00010997483567388398 0 0.00010997483567388398 0 0
          0.0003285249581965396 0.0003285249581965396 0 0.0003285249581965396 0 0
          0.00013727252360186098 0.00013727252360186098 0 0.00013727252360186098 0 0
          0.0004214448961622208 0.0004214448961622208 0 0.0004214448961622208 0 0
          0.000055907759287298066 0.000055907759287298066 0 0.000055907759287298066 0 0
          0.00005815069807537632 0.00005815069807537632 0 0.00005815069807537632 0 0
          0.00009044140632743623 0.00009044140632743623 0 0.00009044140632743623 0 0
          0.09481614543917123 0.09481614543917123 0 0.09481614543917123 0 0
          0.0968632763334512 0.0968632763334512 0 0.0968632763334512 0 0
          0.047975372918994015 0.047975372918994015 0 0.047975372918994015 0 0
          0.1186265960353046 0.1186265960353046 0 0.1186265960353046 0 0
          0.1405673551255829 0.1405673551255829 0 0.1405673551255829 0 0
          0.10404810962159357 0.10404810962159357 0 0.10404810962159357 0 0
          0.07726562136691724 0.07726562136691724 0 0.07726562136691724 0 0
          0.1599407207051492 0.1599407207051492 0 0.1599407207051492 0 0
          0.05299273879727526 0.05299273879727526 0 0.05299273879727526 0 0
          0.057515300259662214 0.057515300259662214 0 0.057515300259662214 0 0
          0.029774755292169636 0.029774755292169636 0 0.029774755292169636 0 0
          0.04404905855336432 0.04404905855336432 0 0.04404905855336432 0 0
          0.025873565961848123 0.025873565961848123 0 0.025873565961848123 0 0
          0.05773483605212677 0.05773483605212677 0 0.05773483605212677 0 0
          0.07070448013304739 0.07070448013304739 0 0.07070448013304739 0 0
          0.07998590162927885 0.07998590162927885 0 0.07998590162927885 0 0
          0.045646543328805515 0.045646543328805515 0 0.045646543328805515 0 0
          0.05283575690027074 0.05283575690027074 0 0.05283575690027074 0 0
          0.04118635838885273 0.04118635838885273 0 0.04118635838885273 0 0
          0.08185363789829653 0.08185363789829653 0 0.08185363789829653 0 0
          0.030345039702316765 0.030345039702316765 0 0.030345039702316765 0 0
          0.029774111161317264 0.029774111161317264 0 0.029774111161317264 0 0
          0.018010093389250796 0.018010093389250796 0 0.018010093389250796 0 0
          0.03346330221404554 0.03346330221404554 0 0.03346330221404554 0 0
          0.01857997723626693 0.01857997723626693 0 0.01857997723626693 0 0
          0.030828575987449973 0.030828575987449973 0 0.030828575987449973 0 0
          0.047224383977093845 0.047224383977093845 0 0.047224383977093845 0 0
          0.050258274300820735 0.050258274300820735 0 0.050258274300820735 0 0
          0.030338281898960463 0.030338281898960463 0 0.030338281898960463 0 0
          0.04172216342948879 0.04172216342948879 0 0.04172216342948879 0 0
          0.027188533833062967 0.027188533833062967 0 0.027188533833062967 0 0
          0.0287520913278613 0.0287520913278613 0 0.0287520913278613 0 0
          0.022449075350633542 0.022449075350633542 0 0.022449075350633542 0 0
          0.018472875051072448 0.018472875051072448 0 0.018472875051072448 0 0
          0.010315608835686765 0.010315608835686765 0 0.010315608835686765 0 0
          0.016216899085353037 0.016216899085353037 0 0.016216899085353037 0 0
          0.01385649002039778 0.01385649002039778 0 0.01385649002039778 0 0
          0.056234648469229986 0.056234648469229986 0 0.056234648469229986 0 0
          0.017213521417472146 0.017213521417472146 0 0.017213521417472146 0 0
          0.0193517167012962 0.0193517167012962 0 0.0193517167012962 0 0
          0.013305145297121549 0.013305145297121549 0 0.013305145297121549 0 0
          0.04785811315140884 0.04785811315140884 0 0.04785811315140884 0 0
          0.06194518683423324 0.06194518683423324 0 0.06194518683423324 0 0
          0.017980937079304118 0.017980937079304118 0 0.017980937079304118 0 0
          0.03460519384645483 0.03460519384645483 0 0.03460519384645483 0 0
          0.02950017198259515 0.02950017198259515 0 0.02950017198259515 0 0
          0.018264911004078156 0.018264911004078156 0 0.018264911004078156 0 0
          0.02190771645029419 0.02190771645029419 0 0.02190771645029419 0 0
          0.011351168403919198 0.011351168403919198 0 0.011351168403919198 0 0
          0.034792724917099616 0.034792724917099616 0 0.034792724917099616 0 0
          0.02105692269126971 0.02105692269126971 0 0.02105692269126971 0 0
          0.01736267649824621 0.01736267649824621 0 0.01736267649824621 0 0
          0.013550424558169677 0.013550424558169677 0 0.013550424558169677 0 0
          0.008323806444035894 0.008323806444035894 0 0.008323806444035894 0 0
          0.04072852397433729 0.04072852397433729 0 0.04072852397433729 0 0
          0.020012481278765107 0.020012481278765107 0 0.020012481278765107 0 0
          0.0114021854904789 0.0114021854904789 0 0.0114021854904789 0 0
          0.01598929014347687 0.01598929014347687 0 0.01598929014347687 0 0
          0.040656131280229664 0.040656131280229664 0 0.040656131280229664 0 0
          0.025191557266084488 0.025191557266084488 0 0.025191557266084488 0 0
          0.025232456338632865 0.025232456338632865 0 0.025232456338632865 0 0
          0.01171661422818652 0.01171661422818652 0 0.01171661422818652 0 0
          0.024444368187651118 0.024444368187651118 0 0.024444368187651118 0 0
          0.015638166886538362 0.015638166886538362 0 0.015638166886538362 0 0
          0.02655481091165083 0.02655481091165083 0 0.02655481091165083 0 0
          0.018796537179636245 0.018796537179636245 0 0.018796537179636245 0 0
          0.015010254390276426 0.015010254390276426 0 0.015010254390276426 0 0
          0.012010645797798472 0.012010645797798472 0 0.012010645797798472 0 0
          0.018979401255131825 0.018979401255131825 0 0.018979401255131825 0 0
          0.0111814993113098 0.0111814993113098 0 0.0111814993113098 0 0
          0.007295902966814869 0.007295902966814869 0 0.007295902966814869 0 0
          0.0076708881570072465 0.0076708881570072465 0 0.0076708881570072465 0 0
          0.012051657925167346 0.012051657925167346 0 0.012051657925167346 0 0
          0.012813271041931331 0.012813271041931331 0 0.012813271041931331 0 0
          0.02973019272538254 0.02973019272538254 0 0.02973019272538254 0 0
          0.28628319215846043 0.28628319215846043 0 0.28628319215846043 0 0
          0.264590817649325 0.264590817649325 0 0.264590817649325 0 0
          0.15416658720394225 0.15416658720394225 0 0.15416658720394225 0 0