<?xml version="1.0"?>
<VTKFile type="UnstructuredGrid" version="0.1" byte_order="LittleEndian" header_type="UInt32" compressor="vtkZLibDataCompressor">
  <UnstructuredGrid>
    <Piece NumberOfPoints="24" NumberOfCells="15">
      <PointData>
        <DataArray type="Float64" Name="Velocity" NumberOfComponents="3" format="ascii" RangeMin="0" RangeMax="0.3100288829198445">
          0 0 0 -6.793580751900001e-17 -9.362422991124407e-18 0
          0.10530432086150478 0.075817563977001 0 -0.0956471069579964 0.105870829446945 0
          0.09213760169031444 -0.1169932933198067 0 -0.14960129152769605 -0.04334754368219618 0
          2.032159577755304e-17 1.115309910208941e-16 0 0 0 0
          -0.22312875370573898 -0.017535385474570297 0 -0.08009330732324423 -0.27377039469224196 0
          0 0 0 3.2816267981042403e-17 1.770384734936901e-16 0
          0 0 0 -0.2508753024493233 0.1821523836393233 0
          0 0 0 6.518857628513535e-18 5.185697114154251e-20 0
          0 0 0 -0.1642411194511822 -0.11900387996490669 0
          0 0 0 -0.013848613653341196 -0.22912870657359774 0
          -7.136576713790207e-18 -5.758322820894195e-17 0 6.431503122324564e-17 -1.8826591768095976e-17 0
          0 0 0 -1.7695977313586048e-17 -4.5761138020929446e-17 0
          <InformationKey name="L2_NORM_RANGE" location="vtkDataArray" length="2">
            <Value index="0">
              0
            </Value>
            <Value index="1">
              0.31002888292
            </Value>
          </InformationKey>
        </DataArray>
        <DataArray type="Float64" Name="Pressure" format="ascii" RangeMin="75.50039326021582" RangeMax="77.55501264050818">
          75.9239737549379 75.96850238658972 75.89750759107201 75.66484141705196 75.86242102238562 76.46537998298248
          75.76435187863481 76.02756375877728 76.68034228671775 76.76278629216289 75.98626803418013 76.68595338359698
          76.38771574755496 75.60850861937558 75.7365081779976 77.45170442259493 75.76853025572692 76.9229111901592
          75.70751961454926 76.04275798054164 76.38043484572749 75.50039326021582 77.55501264050818 77.15297174554235
        </DataArray>
        <DataArray type="Float64" Name="Temperature" format="ascii" RangeMin="240.64132169355224" RangeMax="961.3106442911277">
          960.4999243236794 851.4305594443309 607.8980587639624 485.34967863154486 635.5286788933004 541.8600205720406
          697.531100269055 960.3186890640987 392.9234902044442 551.5044088847902 240.64132169355224 241.12148098598834
          247.04696647650314 378.30647773713713 960.448741870483 314.67926483471206 961.3106442911277 416.23870263689065
          960.0130878685545 675.931685557982 240.9659828608854 786.6977312564712 277.3169995899904 241.03943699094984
        </DataArray>
        <DataArray type="Float64" Name="Density" format="ascii" RangeMin="0.31466675672742583" RangeMax="1.2570264346862845">
          0.31493235448158574 0.35527559974363254 0.49760399508710146 0.6232465291818595 0.47596986995676877 0.5582484242467279
          0.4336616711856467 0.3149917897999491 0.7698509002076962 0.5484861005160744 1.2570264346862845 1.2545232445060306
          1.2244331794918502 0.7995964130881879 0.3149491372725777 0.9612724333950887 0.31466675672742583 0.7267284390671453
          0.3150920612116266 0.4475193412436843 1.2553328028100812 0.38450918393207584 1.0907824009846943 1.2549502538789896
        </DataArray>
      </PointData>
      <CellData>
        <DataArray type="UInt8" Name="vtkGhostType" format="ascii" RangeMin="0" RangeMax="0">
          0 0 0 0 0 0
          0 0 0 0 0 0
          0 0 0
        </DataArray>
      </CellData>
      <Points>
        <DataArray type="Float32" Name="Points" NumberOfComponents="3" format="ascii" RangeMin="0" RangeMax="1.4142135623730951">
          0 1 0 0.25 1 0
          0.25 0.75 0 0.25 0.5 0
          0.5 0.75 0 0.5 0.5 0
          0.75 1 0 0 0.25 0
          0.5 0.25 0 0.75 0.5 0
          1 1 0 1 0.5 0
          0.25 0 0 0.25 0.25 0
          0 0 0 0.5 0 0
          0 0.5 0 0.75 0.25 0
          0 0.75 0 0.75 0.75 0
          1 0.75 0 0.5 1 0
          0.75 0 0 1 0.25 0
          <InformationKey name="L2_NORM_RANGE" location="vtkDataArray" length="2">
            <Value index="0">
              0
            </Value>
            <Value index="1">
              1.4142135624
            </Value>
          </InformationKey>
        </DataArray>
      </Points>
      <Cells>
        <DataArray type="Int64" Name="connectivity" format="ascii" RangeMin="0" RangeMax="23">
          12 13 7 14 15 8
          13 12 13 3 16 7
          8 5 3 13 17 9
          5 8 3 2 18 16
          5 4 2 3 9 19
          4 5 11 20 19 9
          2 1 0 18 4 21
          1 2 19 6 21 4
          20 10 6 19 22 17
          8 15 23 11 9 17
        </DataArray>
        <DataArray type="Int64" Name="offsets" format="ascii" RangeMin="4" RangeMax="60">
          4 8 12 16 20 24
          28 32 36 40 44 48
          52 56 60
        </DataArray>
        <DataArray type="UInt8" Name="types" format="ascii" RangeMin="9" RangeMax="9">
          9 9 9 9 9 9
          9 9 9 9 9 9
          9 9 9
        </DataArray>
      </Cells>
    </Piece>
  </UnstructuredGrid>
</VTKFile>
