<?xml version="1.0"?>
<VTKFile type="UnstructuredGrid" version="0.1" byte_order="LittleEndian" header_type="UInt32" compressor="vtkZLibDataCompressor">
  <UnstructuredGrid>
    <Piece NumberOfPoints="24" NumberOfCells="15">
      <PointData>
        <DataArray type="Float64" Name="Velocity" NumberOfComponents="3" format="ascii" RangeMin="0" RangeMax="0.23724399336475166">
          0 0 0 -7.730399500191433e-17 -2.4569203371318354e-17 0
          0.1193848204059092 0.11426336457344874 0 -0.07495808044836641 0.16105501042262005 0
          0.13354393159603006 -0.0879918755744194 0 -0.09429156686825438 -0.027190193348835996 0
          -1.1612641432750369e-17 8.330723361438741e-17 0 0 0 0
          -0.15671298301770542 -0.04123778255273018 0 -0.035414559346967245 -0.23458585075386465 0
          0 0 0 1.44731901364761e-17 1.6971947921956403e-16 0
          0 0 0 -0.15375052303187994 0.1650383997948504 0
          0 0 0 4.748193908456669e-18 1.1295883236134591e-18 0
          0 0 0 -0.12986327510472123 -0.13076730340316428 0
          0 0 0 0.04254935664683006 -0.19177344196174084 0
          1.3857277486020216e-18 -5.026523137419811e-17 0 7.600264909135603e-17 -1.588018107138915e-17 0
          0 0 0 -1.3057440564277817e-17 -4.8315555996515585e-17 0
          <InformationKey name="L2_NORM_RANGE" location="vtkDataArray" length="2">
            <Value index="0">
              0
            </Value>
            <Value index="1">
              0.23724399336
            </Value>
          </InformationKey>
        </DataArray>
        <DataArray type="Float64" Name="Pressure" format="ascii" RangeMin="61.38356061218213" RangeMax="63.85844900172855">
          62.02730012289032 61.98918472714545 61.72814966643278 62.11231903793332 62.007247824008545 62.71763373966484
          61.54025926708593 61.97348645423281 62.87593593605883 63.033688813865375 61.81068824586754 63.02438358109245
          62.71343900482716 62.118968646265536 62.339730512142516 63.51512069020572 61.916915583637824 63.48580208656009
          62.09145552133032 62.11663343494584 62.306538825184674 61.38356061218213 63.85844900172855 63.53358353961705
        </DataArray>
        <DataArray type="Float64" Name="Temperature" format="ascii" RangeMin="236.98993128731345" RangeMax="959.6387921744274">
          959.6185399409245 843.4603762824014 609.726550231716 496.60379752718643 633.3189593518384 539.2267064921283
          722.7888396098725 956.217627988321 391.91449651667875 551.8439181940179 239.31713175984797 239.31728718620366
          236.98993128731345 399.3778768121335 959.6387921744274 311.09021760426435 956.2374611025072 415.99637365404755
          956.201104773492 669.573653332979 239.31546192602397 780.6934734537962 273.94181306987326 239.31646331406031
        </DataArray>
        <DataArray type="Float64" Name="Density" format="ascii" RangeMin="0.3153640196989799" RangeMax="1.2769974881013102">
          0.31537067528711155 0.358802328442605 0.49634634877584055 0.609410456517167 0.4778564457772267 0.5612399076595427
          0.41870534016899025 0.3164923319766467 0.7721978892054637 0.5484078685683739 1.2645795340004857 1.2645787127100945
          1.2769974881013102 0.7577674291196669 0.3153640196989799 0.9728224477446665 0.3164857676776996 0.7274956372838007
          0.3164978009839161 0.4519824599620271 1.2645883576580215 0.38764964387410406 1.1047439000559194 1.2645830661555701
        </DataArray>
      </PointData>
      <CellData>
        <DataArray type="UInt8" Name="vtkGhostType" format="ascii" RangeMin="0" RangeMax="0">
          0 0 0 0 0 0
          0 0 0 0 0 0
          0 0 0
        </DataArray>
      </CellData>
      <Points>
        <DataArray type="Float32" Name="Points" NumberOfComponents="3" format="ascii" RangeMin="0" RangeMax="1.4142135623730951">
          0 1 0 0.25 1 0
          0.25 0.75 0 0.25 0.5 0
          0.5 0.75 0 0.5 0.5 0
          0.75 1 0 0 0.25 0
          0.5 0.25 0 0.75 0.5 0
          1 1 0 1 0.5 0
          0.25 0 0 0.25 0.25 0
          0 0 0 0.5 0 0
          0 0.5 0 0.75 0.25 0
          0 0.75 0 0.75 0.75 0
          1 0.75 0 0.5 1 0
          0.75 0 0 1 0.25 0
          <InformationKey name="L2_NORM_RANGE" location="vtkDataArray" length="2">
            <Value index="0">
              0
            </Value>
            <Value index="1">
              1.4142135624
            </Value>
          </InformationKey>
        </DataArray>
      </Points>
      <Cells>
        <DataArray type="Int64" Name="connectivity" format="ascii" RangeMin="0" RangeMax="23">
          12 13 7 14 15 8
          13 12 13 3 16 7
          8 5 3 13 17 9
          5 8 3 2 18 16
          5 4 2 3 9 19
          4 5 11 20 19 9
          2 1 0 18 4 21
          1 2 19 6 21 4
          20 10 6 19 22 17
          8 15 23 11 9 17
        </DataArray>
        <DataArray type="Int64" Name="offsets" format="ascii" RangeMin="4" RangeMax="60">
          4 8 12 16 20 24
          28 32 36 40 44 48
          52 56 60
        </DataArray>
        <DataArray type="UInt8" Name="types" format="ascii" RangeMin="9" RangeMax="9">
          9 9 9 9 9 9
          9 9 9 9 9 9
          9 9 9
        </DataArray>
      </Cells>
    </Piece>
  </UnstructuredGrid>
</VTKFile>
