<?xml version="1.0"?>
<VTKFile type="UnstructuredGrid" version="0.1" byte_order="LittleEndian" header_type="UInt32" compressor="vtkZLibDataCompressor">
  <UnstructuredGrid>
    <Piece NumberOfPoints="183" NumberOfCells="79">
      <PointData>
        <DataArray type="Float64" Name="Density" format="ascii" RangeMin="0.9364289735912987" RangeMax="1.1236759367580216">
          1.0000000000018223 0.9999999999982265 1.0000000000006677 0.9999999999992347 1.000000000047682 1.0000000000045237
          0.9999999999930369 1.0000000000342428 0.9999999998286083 1.0000000001972886 1.0000000000001075 0.9999999997526205
          1.0000000000008986 1.0000000027605955 1.0000000000026528 0.9999999994717279 1.0000000018288822 1.0000000000594693
          1.000000000000592 0.9999999999994614 0.9999999948525308 1.0000000000172262 0.9999999999568564 0.9999999938722519
          1.0000000064339198 1.0000000001833516 1.0000000050400568 1.0000000007837675 0.9999999988230212 1.0000000198014882
          0.9999999870114602 0.9999999976802365 1.000000027996161 1.000000014994656 1.0000000110560447 0.9999999768355842
          1.0000000467195536 0.9999973727828821 1.000000019780221 0.9999999726895153 0.9999982010833585 0.9999999450936382
          0.9999998841005009 1.000009849500822 0.9999990836333288 0.9999992929693424 0.9999999260153374 1.0000033767423557
          0.999999677379479 0.9999993765042388 1.0000002318361922 1.0000006099165677 0.9998341024021752 1.0000013892035724
          1.0000026343114372 1.0000005708444226 0.9999983130717006 1.0000001305096262 1.0000057139084986 1.0000010687981564
          0.9999987659954261 1.0000003084627256 0.9997427684143582 1.00088145571276 0.9999974086546674 0.9999865182955365
          0.9999965756625164 0.9998947337436187 0.9999996984597509 0.9999989329768705 1.000004117795468 1.0000407584366093
          0.9999925383462746 1.0000005049745577 1.0000546253570757 0.999941822729632 0.9999936597387702 0.9999948026824986
          0.9998476302172554 1.0000017071877134 1.0000355235420435 0.9999840458293888 1.0000595321072685 0.9999996147390412
          0.9999973702023557 0.9999970842578254 1.000009804425551 0.9933565444515541 1.0004524761547058 1.0000116104867085
          0.9989111125079508 0.9999516304447239 0.9999999104648428 1.0000352344411791 0.9999772047744707 1.0000082484415658
          1.0000577927429655 1.000523368539908 1.0000045574618783 0.9999863992231076 0.9993691422469437 1.0000301526444695
          0.9999847398183352 1.0000180222083954 1.0000102669988313 0.9999907242631699 0.9975901196758263 0.9995593983703688
          1.0000345980438028 0.9999741078971275 1.000011822653348 1.0000385267233374 0.9993393403974011 0.9999843705791797
          0.988819717333307 1.0000226078107883 1.0000516369225054 1.0028823230508486 0.9987395159906636 1.0002104340325473
          0.9999133731734094 0.9994992773635517 1.0002984113995388 0.9998402721072335 1.0031304447870184 1.00024235921522
          0.9997798632153471 1.0008526341738033 0.9997466359764049 1.0040824002264346 0.9973526016650788 0.9996366082368786
          0.9957096280373097 0.9985664914889337 0.9992169843507797 1.0120219493793803 0.9991387413452465 1.0015501377602931
          0.9998600805348179 0.9968835004721355 1.001943710835915 0.969978415499389 0.9710937959388607 1.003007890916954
          1.0033108087264258 0.9756618590960404 1.0019414386198024 1.0025186224804765 0.9483900690835757 0.9750304151933151
          0.9914279938125705 0.9760445630127669 0.983658483562487 0.937485044240158 0.9726945917209681 0.9364289735912987
          1.0579487953053355 1.0843857178130343 1.1045549083292006 1.1080509624497026 1.0632430313432648 1.1171864714180524
          1.010064288342469 0.9627580088585548 1.116494421960828 1.1236759367580216 1.0658823998521987 1.0900221912931354
          1 1 1 1 1 1
          1 1.087667805141275 1 1.0695717047920106 1 1
          1 1 1
        </DataArray>
        <DataArray type="Float64" Name="Momentum" NumberOfComponents="3" format="ascii" RangeMin="0" RangeMax="1">
          1.8448725821103083e-12 1.6097976156540763e-12 0 -1.7024639750991436e-12 0 0
          6.495617468895685e-13 -4.7556598595466323e-14 0 -7.175867131189826e-13 1.77372667280328e-12 0
          4.204111879911298e-11 0 0 4.4616971065449275e-12 -1.5110187598615757e-13 0
          -6.193723462283523e-12 5.867236902886153e-13 0 3.0483522893083945e-11 -2.1658428630569116e-11 0
          -1.388480052933792e-10 0 0 1.7940070892795803e-10 -3.365694570971246e-11 0
          9.635951176490132e-14 7.002643921980721e-14 0 -2.258000542474842e-10 1.5729996920843534e-10 0
          7.393683748614238e-13 -1.4324116810579743e-12 0 2.5552063841207478e-9 0 0
          2.8406838255387197e-12 6.998001117589873e-12 0 -4.442562130479361e-10 4.287468035663533e-11 0
          1.7108039560315636e-9 -6.631958816704443e-10 0 5.940020441150042e-11 -5.324187233940191e-11 0
          5.629937826295509e-13 -4.880509527551925e-13 0 -4.820153756360272e-13 0 0
          -4.560901507347816e-9 0 0 1.5546854328457912e-11 0 0
          -3.995788398842134e-11 0 0 -5.338698455000922e-9 3.579556934033385e-9 0
          6.154928603878573e-9 -1.1812969061178029e-9 0 2.4980608674456746e-10 4.793628562986966e-10 0
          4.01088119431724e-9 0 0 7.142688741084948e-10 0 0
          -1.048527540930355e-9 -3.2125346939333707e-9 0 1.8155409873358034e-8 -1.0106267847133472e-8 0
          -1.1337767823735207e-8 1.4759656995030929e-9 0 -2.0743227438120446e-9 0 0
          3.196466980348021e-8 0 0 1.3192476587691688e-8 0 0
          1.2655318112312744e-8 1.3083491638440871e-8 0 -1.40034883415475e-8 -1.5588912277814055e-8 0
          4.850654386697005e-8 1.3804331008045515e-8 0 -0.000002954139563318247 0 0
          -6.843378177248717e-9 5.819482282605202e-8 0 -2.0753931407381544e-8 0 0
          -0.0000020037258889525574 0.0000011601621808156973 0 -3.477011659888457e-8 -3.976603233088115e-8 0
          -9.252134366310918e-8 -9.850604359342193e-8 0 0.000011038048956940778 0 0
          -0.000001150337736936977 0.0000030718104144961638 0 -0.000001057991702874759 0 0
          -7.986948861703623e-8 -6.00774950957853e-8 0 0.000004890603592928288 -0.000006930279819509315 0
          -4.954494261775862e-7 -4.322134544639392e-7 0 -4.5950125573121983e-7 8.993489764358533e-7 0
          -3.630642138031479e-7 -0.0000011740370118856172 0 4.4050351797249696e-7 2.316444399086254e-7 0
          -0.00013362804437977752 0 0 0.0000016243109444452439 -0.000006892045756054971 0
          0.0000039314641580499065 0 0 -4.700847570452361e-8 0.000002954047403768753 0
          -0.0000010400768756067304 -0.0000010459504890425444 0 0.0000023186393855524977 0.000004015181696119172 0
          -0.000005472052043831724 -0.000007234739837095392 0 0.000001347503765280632 6.576614365412758e-7 0
          -2.61994262328841e-7 -4.557452981042505e-7 0 -3.77968636652867e-7 3.8225391144374e-7 0
          -0.0001678401451443924 0.0004352898087450756 0 0.0005989801293082085 0 0
          0.000006363852836547673 0.000002024828213900347 0 -0.00000894442048064391 -0.00001142217288522035 0
          -0.0000049909412602441514 0.000004139783617690273 0 -0.00009121171342532377 0 0
          0.0000014082214755588874 5.460922114021682e-7 0 1.4213972652425155e-7 -8.221019003815881e-7 0
          0.0000012932816335190683 3.090867508057747e-7 0 -0.000005330470791801071 -0.0000031104037800630485 0
          -0.000005508239943956859 -4.121828665752391e-8 0 -5.382654694065272e-7 -0.000003949997028974849 0
          0.000033510387329373466 0.000027203046023976948 0 -0.000019443483992122977 -0.000144729576154345 0
          -0.000002429014861156599 0.0000015469037103080107 0 -9.859707541352504e-7 -0.0000030122348413728328 0
          -0.00007861821761611974 0.00044525456783059934 0 -6.496881907824772e-7 -3.9064846526156754e-7 0
          6.912183385395291e-7 0.0000072934503915578236 0 0.0000014700415052645508 0.000004118114410949003 0
          0.0003057312088269831 -0.0008159057014126233 0 0.000010289586183311122 -0.000007823593656763804 0
          0.0000017102237000545285 0.000003524183747600459 0 0.0000013743850442178165 -0.000002558453991594185 0
          -0.0000049801269989171765 0.000037748547890370176 0 -0.006248950465456714 0 0
          0.0002603020036966724 0 0 0.000004079738668333201 -1.9375877151763697e-7 0
          -0.0009388742809551617 -0.00036568495733786053 0 -0.000011322041227062777 0.00006883558794297425 0
          -9.746534249009315e-7 -0.000011448672388721224 0 0.000019439147837176743 5.654045117432202e-7 0
          -0.000012605227027303748 0.000010011616288743347 0 -5.189492356961836e-7 0.000014058563089807502 0
          -0.00001712987565190432 -0.00002057290613315124 0 -0.00002948328089034776 -0.000591256153239335 0
          3.185403081362989e-8 -0.0000014811319366287554 0 -0.000004668638806012836 -0.000006702026486864569 0
          -0.0005510520140185585 -0.000754641663047972 0 0.00003777594520742851 0.0000016561013815485122 0
          0.0000015446803115283817 0.000014422384925006974 0 0.000006643567430839679 -0.000007670970983159395 0
          0 0 0 0.000004461318786908757 -0.000006682477699997814 0
          -0.002000596080160381 0.0006023112770435323 0 -0.00039444749485331894 0.0007292525414465396 0
          0.00003969934838044158 0.000038691196921924526 0 0 0 0
          -0.000005461334659799264 -0.00005011731684816518 0 0.00003162437665313305 -0.00006783874225034396 0
          -0.000693120964429689 -0.0010924717137638527 0 0 0 0
          -0.006668171432434359 0.011199136882161525 0 -0.00006765931803380857 0.000020544043083087257 0
          0.000023349950830446323 0.00005915161611661986 0 0.0024669797806051914 0.00003915958028296492 0
          -0.0012187862978000324 0.0007330656650491068 0 0 0 0
          -0.0001042614161079585 -0.00010233840772171194 0 -0.00021566009593641943 -0.0004168211475279169 0
          0 0 0 -0.00014014419084076437 0.00008937533116685006 0
          0.0022605636029715617 -0.0023780551319385894 0 0 0 0
          -0.00017169512441840857 -0.00013848567822845632 0 0.0015670703487161224 0.0016955998211658795 0
          -0.0002772770404546381 -0.00003737922100998098 0 0.004385618071172335 0.000625323796398951 0
          -0.0024765698946565768 0.0013417599562141186 0 -0.00035331606069666336 -0.00006176909189964691 0
          -0.003662896775960291 0 0 -0.0015016087103312508 -0.001054860903202075 0
          -0.0007714370175960247 0.00020745664266877818 0 0.02057002355710327 0 0
          -0.0007073823928169338 -0.0004300605325476979 0 0.0015874593105428287 -0.001747076060704682 0
          0.0005333400618470892 0.0018659999945096267 0 -0.0029398191253999506 -0.0005550971741128318 0
          0.002920112369904928 -0.002981054665650709 0 -0.03343195592655813 0.014228150638715733 0
          -0.028694668463470175 0.000114339648432281 0 0.0036201787031766605 0.0011358944327154708 0
          0.0028191862058280183 0.0007468024425841026 0 -0.015423084144289853 0.00443197400868234 0
          0.00310954146582209 0.002539570531048283 0 0.0037153261826383894 -0.0013767365269876052 0
          -0.053238798746883254 0.004033737681688384 0 -0.014797403564303393 -0.012868927494719507 0
          -0.004636941374693016 -0.013092537758381251 0 -0.014430592213680801 0.002611313767161426 0
          -0.011149285862193901 0.010438756825810453 0 -0.06479837691790648 -0.009763084107346002 0
          -0.015912445933007537 -0.004208981273664214 0 -0.06547685433337178 -0.00004462589272336725 0
          0.06302155830306855 -0.002227603512909695 0 0.09609513195671136 -0.013036550784688012 0
          0.12345461726766477 0.002449640971736165 0 0.12494329574654625 -0.0026854856309236268 0
          0.07393535934876846 0.004129496564161974 0 0.1357993900134314 0.0020639277867040913 0
          0.016998078023589026 0 0 -0.045331847036199524 -0.007910996964524512 0
          0.14463433537726242 0.00023401664282375677 0 0.14200864899428836 -0.002099875383748953 0
          0.07720613988015794 -0.004932704202422918 0 0.11240624213026075 0.0027580632793413416 0
          1 0 0 1 0 0
          1 0 0 1 0 0
          1 0 0 1 0 0
          1 0 0 0.10118919636145376 0.005363363950147416 0
          1 0 0 0.07807911633063908 0.0018244870297368042 0
          1 0 0 1 0 0
          1 0 0 1 0 0
          1 0 0
          <InformationKey name="L2_NORM_RANGE" location="vtkDataArray" length="2">
            <Value index="0">
              0
            </Value>
            <Value index="1">
              1
            </Value>
          </InformationKey>
        </DataArray>
        <DataArray type="Float64" Name="Energy" format="ascii" RangeMin="1.5418688126871067" RangeMax="2.2232">
          1.7232000000043965 1.72319999999571 1.7232000000016234 1.7231999999981287 1.7232000001145582 1.723200000010987
          1.723199999983109 1.7232000000834748 1.7231999995861216 1.723200000480996 1.7232000000002603 1.7231999993957232
          1.7232000000021783 1.7232000066359852 1.723200000006435 1.7231999987168574 1.7232000044428237 1.7232000001441241
          1.7232000000014354 1.7231999999986944 1.7231999875967365 1.7232000000417298 1.7231999998954808 1.723199985112499
          1.7232000157066336 1.723200000452068 1.7232000110590344 1.7232000018872704 1.7231999971235756 1.7232000481508782
          1.7231999683561827 1.7231999943938068 1.7232000698171133 1.7232000357424606 1.7232000270321843 1.7231999439423884
          1.7232001122715273 1.7231936632429237 1.7232000494459452 1.7231999345330031 1.723195621324376 1.7231998664780217
          1.7231997199100033 1.7232238183195074 1.7231978188359303 1.7231982853984533 1.7231998218862503 1.7232081434852997
          1.7231992204531654 1.7231984684909627 1.7232005563592407 1.7232014786879104 1.7228005252523204 1.7232033556912953
          1.7232063792156112 1.7232013142960287 1.7231959244196196 1.7232002973958196 1.7232140632330186 1.7232027553164595
          1.7231970470178484 1.7232007739941777 1.7225720802358493 1.7253308339187197 1.7231924568193502 1.7231672296435887
          1.7231917189937362 1.722945683710971 1.7231992857545935 1.723197426356021 1.7232098482685512 1.7233000980338125
          1.7231817102545341 1.7232013344530768 1.7233321855526769 1.723058085340827 1.7231847672412612 1.7231873728297298
          1.7228597905824776 1.7232042799116278 1.7232851258995772 1.723162041710804 1.723310547550934 1.7231974444074594
          1.7231936974935875 1.7231929681404998 1.7232235004713823 1.7074511964526027 1.7242952667076317 1.7232276598292282
          1.7206112305791543 1.7230782957354374 1.723201176262045 1.723283444479915 1.7231448346690217 1.7232201696817278
          1.7233420513734645 1.7244748621943833 1.723212074770512 1.723166957276423 1.7216038367551463 1.7232654611381104
          1.723160916705557 1.7232428050173236 1.7232270345481235 1.72317449182127 1.7173208038025285 1.7221003315848349
          1.7232846236100234 1.7231394466492986 1.7232255848169264 1.7233009339443712 1.721744077259611 1.7231670680038866
          1.6965660235871953 1.7232581465331653 1.7233289174781827 1.7301136697904327 1.7200807398131632 1.723710781757032
          1.7229847547173534 1.7219868523063213 1.7239266469176862 1.7228022090543884 1.730804638667902 1.7237988403391258
          1.7226545317560542 1.7251099674930432 1.7225675213083451 1.7329516097404498 1.716876736420378 1.7222927594441542
          1.7134135296110884 1.7196050843452544 1.721174677224481 1.7600663667890453 1.7210520815039654 1.726946136596205
          1.7229109944185717 1.7157065042365744 1.7277331310786266 1.638555029318979 1.6439636664223019 1.7303537970308607
          1.7311076838905595 1.663867432348057 1.7277232568553014 1.729106272289702 1.5776091271501629 1.663931125758248
          1.7009478133261404 1.6661490986763057 1.6819020775994393 1.5470756075687422 1.6559551712240508 1.5418688126871067
          1.8894029364858154 1.9727307918470183 2.0282161933492704 2.0406800012612174 1.9072000364047832 2.067339417204775
          1.7553018084190026 1.6187599147830165 2.0652626881951157 2.086378479412759 1.9144336015991363 1.9851894093836144
          2.2232 2.2232 2.2232 2.2232 2.2232 2.2232
          2.2232 1.9778736984243783 2.2232 1.9264524908530651 2.2232 2.2232
          2.2232 2.2232 2.2232
        </DataArray>
      </PointData>
      <CellData>
        <DataArray type="UInt8" Name="vtkGhostType" format="ascii" RangeMin="0" RangeMax="0">
          0 0 0 0 0 0
          0 0 0 0 0 0
          0 0 0 0 0 0
          0 0 0 0 0 0
          0 0 0 0 0 0
          0 0 0 0 0 0
          0 0 0 0 0 0
          0 0 0 0 0 0
          0 0 0 0 0 0
          0 0 0 0 0 0
          0 0 0 0 0 0
          0 0 0 0 0 0
          0 0 0 0 0 0
          0
        </DataArray>
      </CellData>
      <Points>
        <DataArray type="Float32" Name="Points" NumberOfComponents="3" format="ascii" RangeMin="0" RangeMax="7.102112369882704">
          7 1.2000000476837158 0 6.5 1.2000000476837158 0
          7 0.6000000238418579 0 6.5 0.6000000238418579 0
          6 1.2000000476837158 0 7 -2.220446049250313e-16 0
          6.25 0.16698729991912842 0 5.75 0.7669873237609863 0
          5.5 1.2000000476837158 0 5.5 0.33397459983825684 0
          7 -0.6000000238418579 0 5.25 0.7669873237609863 0
          6.5 -0.6000000238418579 0 5 1.2000000476837158 0
          5.75 -0.4330126941204071 0 5 2.220446049250313e-16 0
          4.75 0.4330126941204071 0 5.25 -0.4330126941204071 0
          7 -1.2000000476837158 0 6.5 -1.2000000476837158 0
          4.5 1.2000000476837158 0 6 -1.2000000476837158 0
          5.5 -1.2000000476837158 0 4.25 0.4330126941204071 0
          4.5 -0.33397459983825684 0 4.75 -0.7669873237609863 0
          4 1.2000000476837158 0 5 -1.2000000476837158 0
          4.25 -0.7669873237609863 0 3.6823039054870605 0.4431717097759247 0
          3.9323039054870605 -0.32381561398506165 0 4.5 -1.2000000476837158 0
          3.5 1.2000000476837158 0 4 -1.2000000476837158 0
          3.6823039054870605 -0.7568283081054688 0 3.1823039054870605 0.4431717097759247 0
          3.364607095718384 -0.31365659832954407 0 3 1.2000000476837158 0
          2.953885078430176 0.029621059074997902 0 3.5 -1.2000000476837158 0
          2.771580934524536 0.7864493131637573 0 3.1823039054870605 -0.7568283081054688 0
          2.9061310291290283 -0.4530656039714813 0 2.5 1.2000000476837158 0
          2.5431621074676514 0.3728986978530884 0 3 -1.2000000476837158 0
          2.495408058166504 -0.10978800058364868 0 2.271580934524536 0.7864493131637573 0
          2.7238268852233887 -0.8962373733520508 0 2.2451179027557373 0.2950834035873413 0
          2.4476540088653564 -0.5924746990203857 0 2.197364091873169 -0.18760329484939575 0
          2 1.2000000476837158 0 1.9735369682312012 0.708634078502655 0
          2.5 -1.2000000476837158 0 1.947074055671692 0.2172681987285614 0
          2.0834739208221436 -0.4830414056777954 0 2.2238268852233887 -0.8962373733520508 0
          1.766793966293335 0.8914316296577454 0 1.7403310537338257 0.40006569027900696 0
          1.833184003829956 -0.07816994935274124 0 1.696537971496582 0.15281939506530762 0
          1.5884170532226562 0.9876154065132141 0 1.5 1.2000000476837158 0
          1.5335869789123535 0.5828632116317749 0 1.7192939519882202 -0.3736081123352051 0
          1.8596470355987549 -0.7868040204048157 0 2 -1.2000000476837158 0
          1.4897949695587158 0.3356168866157532 0 1.5826480388641357 -0.1426188051700592 0
          1.4460029602050781 0.08837053179740906 0 1.3552099466323853 0.6790469884872437 0
          1.339123010635376 0.4750398099422455 0 1.4790019989013672 -0.34034401178359985 0
          1.5011229515075684 -0.5437853932380676 0 1.641476035118103 -0.9569813013076782 0
          1.2953310012817383 0.22779349982738495 0 1.3423570394515991 -0.10935469716787338 0
          1.1768330335617065 0.7752308249473572 0 1.2693469524383545 0.06596699357032776 0
          1.1607470512390137 0.5712236166000366 0 1.1446599960327148 0.36721640825271606 0
          1.0884170532226562 0.9876154065132141 0 1.2387109994888306 -0.3070800006389618 0
          1.1186749935150146 0.20538990199565887 0 1.1657010316848755 -0.13175830245018005 0
          1.2608319520950317 -0.5105212926864624 0 1 1.2000000476837158 0
          1.5 -1.2000000476837158 0 1.0926909446716309 0.043563440442085266 0
          1.2829530239105225 -0.7139626741409302 0 0.9874739050865173 0.6781361103057861 0
          1.0298000574111938 0.28314921259880066 0 0.9713870286941528 0.4741289019584656 0
          1.0038150548934937 0.12132269889116287 0 1.0768250226974487 -0.25308090448379517 0
          1.0993930101394653 -0.3733969032764435 0 0.8990572094917297 0.8905206918716431 0
          0.9963455200195312 0.021781720221042633 0 1.0038150548934937 -0.07775924354791641 0
          1.1215139627456665 -0.5768383145332336 0 0.9149399995803833 0.1990818977355957 0
          0.9074699878692627 0.09954095631837845 0 0.8565272092819214 0.39006170630455017 0
          0.8999999761581421 0 0 0.9074699878692627 -0.09954095631837845 0
          0.7981144189834595 0.5810413956642151 0 1.141476035118103 -0.9569813013076782 0
          0.9149399995803833 -0.1990818977355957 0 0.8500000238418579 0.08660253882408142 0
          0.9375075101852417 -0.319397896528244 0 0.8324699997901917 0.14284220337867737 0
          0.9600750803947449 -0.43971389532089233 0 0.8500000238418579 -0.08660253882408142 0
          0.7150853276252747 1.018962025642395 0 0.7654337286949158 0.21538899838924408 0
          0.8324699997901917 -0.14284220337867737 0 0.9678938984870911 -0.6856740713119507 0
          0.7070209980010986 0.4063687026500702 0 0.75 0.08660253882408142 0
          0.8092945218086243 -0.23232249915599823 0 0.8318619728088379 -0.35263851284980774 0
          0.75 -0.08660253882408142 0 0.6829637289047241 0.15914930403232574 0
          0.6141425967216492 0.7094823122024536 0 0.699999988079071 0 0
          0.7268245220184326 -0.1760828047990799 0 0.8064550161361694 -0.5485497117042542 0
          0.6600599884986877 0.04330126941204071 0 0.5785459280014038 0.5376487970352173 0
          0.615927517414093 0.23169609904289246 0 0.6600599884986877 -0.04330126941204071 0
          1 -1.2000000476837158 0 0.7036489844322205 -0.26556310057640076 0
          0.5930237174034119 0.11584799736738205 0 0.5 1.2000000476837158 0
          0.6368845105171204 -0.13278159499168396 0 0.8264175057411194 -0.9286928176879883 0
          0.678242027759552 -0.46147438883781433 0 0.5701199769973755 2.220446049250313e-16 0
          0.4874523878097534 0.3629761040210724 0 0.4301707148551941 0.8379232287406921 0
          0.6528350114822388 -0.6573855876922607 0 0.46278950572013855 0.17328590154647827 0
          0.5381790995597839 -0.23345430195331573 0 0.39457398653030396 0.6660897135734558 0
          0.47141459584236145 -0.10067269951105118 0 0.4398857057094574 0.05743790045380592 0
          0.3589772880077362 0.4942561089992523 0 0.5127720832824707 -0.42936548590660095 0
          0.7066044211387634 -1.0821729898452759 0 0.33431440591812134 0.30456599593162537 0
          0.5330219268798828 -0.8108659982681274 0 0.3727092146873474 -0.2013455033302307 0
          0.34118029475212097 -0.04323484003543854 0 0.3096514046192169 0.11487580090761185 0
          0.21508529782295227 1.018962025642395 0 0.21508529782295227 0.8189616203308105 0
          0.17948870360851288 0.6471279859542847 0 0.17948870360851288 0.4471279978752136 0
          0.3264175057411194 -0.5286927819252014 0 0.15482570230960846 0.25743791460990906 0
          0.5 -1.2000000476837158 0 0.4132086932659149 -0.9643464088439941 0
          0.1863546073436737 -0.10067269951105118 0 0.15482570230960846 0.05743790045380592 0
          0.3264175057411194 -0.7286928296089172 0 0.1863546073436737 -0.300672709941864 0
          0 1.2000000476837158 0 0 1 0
          0 0.800000011920929 0 0 0.6000000238418579 0
          0 0.4000000059604645 0 0 0.20000000298023224 0
          0 0 0 0.20660440623760223 -0.8821731805801392 0
          0 -0.20000000298023224 0 0.20660440623760223 -1.0821729898452759 0
          0 -0.4000000059604645 0 0 -0.6000000238418579 0
          0 -0.800000011920929 0 0 -1 0
          0 -1.2000000476837158 0
          <InformationKey name="L2_NORM_RANGE" location="vtkDataArray" length="2">
            <Value index="0">
              0
            </Value>
            <Value index="1">
              7.1021123699
            </Value>
          </InformationKey>
        </DataArray>
      </Points>
      <Cells>
        <DataArray type="Int64" Name="connectivity" format="ascii" RangeMin="0" RangeMax="182">
          104 122 108 113 116 105
          122 119 139 125 128 131
          119 104 101 109 102 111
          108 122 133 116 126 120
          139 119 130 128 123 134
          101 104 89 102 98 94
          104 108 89 105 99 98
          122 139 133 131 136 126
          119 101 130 111 115 123
          108 133 112 120 121 110
          139 130 155 134 143 147
          101 89 81 94 84 92
          112 133 142 121 138 127
          155 130 148 143 140 151
          81 89 70 84 79 76
          108 112 83 110 96 95
          139 155 153 147 154 146
          101 81 106 92 93 103
          142 133 153 138 144 149
          70 89 83 79 85 77
          153 155 174 154 165 164
          174 155 172 165 161 173
          148 130 106 140 118 129
          83 112 90 96 100 86
          106 81 78 93 80 91
          112 142 90 127 117 100
          81 70 64 76 68 72
          139 153 133 146 144 136
          155 148 172 151 159 161
          172 148 170 159 158 171
          108 83 89 95 85 99
          101 106 130 103 118 115
          153 174 178 164 176 167
          153 178 142 167 160 149
          168 170 141 169 157 156
          178 180 142 179 166 160
          180 182 163 181 177 175
          90 142 132 117 137 107
          78 81 64 80 72 71
          78 64 52 71 58 62
          64 70 55 68 61 59
          83 90 65 86 74 73
          106 78 87 91 82 97
          170 148 141 158 145 157
          87 78 52 82 62 63
          168 141 87 156 114 135
          163 182 132 177 162 150
          180 163 142 175 152 166
          142 163 132 152 150 137
          55 70 65 61 69 60
          64 55 52 59 53 58
          65 90 67 74 75 66
          83 65 70 73 69 77
          148 106 141 129 124 145
          90 132 67 107 88 75
          87 141 106 114 124 97
          65 67 50 66 57 56
          50 67 45 57 54 48
          65 50 55 56 51 60
          50 45 36 48 41 42
          52 55 44 53 49 47
          44 55 50 49 51 46
          52 44 37 47 40 43
          37 44 36 40 38 35
          36 45 33 41 39 34
          50 36 44 42 38 46
          33 27 24 31 25 28
          4 13 9 8 11 7
          24 27 9 25 17 15
          9 13 24 11 16 15
          4 9 5 7 6 3
          21 18 5 19 10 12
          26 37 36 32 35 29
          27 21 9 22 14 17
          13 26 24 20 23 16
          0 4 5 1 3 2
          33 24 36 28 30 34
          36 24 26 30 23 29
          5 9 21 6 14 12
        </DataArray>
        <DataArray type="Int64" Name="offsets" format="ascii" RangeMin="6" RangeMax="474">
          6 12 18 24 30 36
          42 48 54 60 66 72
          78 84 90 96 102 108
          114 120 126 132 138 144
          150 156 162 168 174 180
          186 192 198 204 210 216
          222 228 234 240 246 252
          258 264 270 276 282 288
          294 300 306 312 318 324
          330 336 342 348 354 360
          366 372 378 384 390 396
          402 408 414 420 426 432
          438 444 450 456 462 468
          474
        </DataArray>
        <DataArray type="UInt8" Name="types" format="ascii" RangeMin="22" RangeMax="22">
          22 22 22 22 22 22
          22 22 22 22 22 22
          22 22 22 22 22 22
          22 22 22 22 22 22
          22 22 22 22 22 22
          22 22 22 22 22 22
          22 22 22 22 22 22
          22 22 22 22 22 22
          22 22 22 22 22 22
          22 22 22 22 22 22
          22 22 22 22 22 22
          22 22 22 22 22 22
          22 22 22 22 22 22
          22
        </DataArray>
      </Cells>
    </Piece>
  </UnstructuredGrid>
</VTKFile>
