<?xml version="1.0"?>
<VTKFile type="UnstructuredGrid" version="0.1" byte_order="LittleEndian" header_type="UInt32" compressor="vtkZLibDataCompressor">
  <UnstructuredGrid>
    <Piece NumberOfPoints="130" NumberOfCells="347">
      <PointData>
        <DataArray type="Float64" Name="nsi_BC" NumberOfComponents="3" format="ascii" RangeMin="0" RangeMax="0">
          0 0 0 0 0 0
          0 0 0 0 0 0
          0 0 0 0 0 0
          0 0 0 0 0 0
          0 0 0 0 0 0
          0 0 0 0 0 0
          0 0 0 0 0 0
          0 0 0 0 0 0
          0 0 0 0 0 0
          0 0 0 0 0 0
          0 0 0 0 0 0
          0 0 0 0 0 0
          0 0 0 0 0 0
          0 0 0 0 0 0
          0 0 0 0 0 0
          0 0 0 0 0 0
          0 0 0 0 0 0
          0 0 0 0 0 0
          0 0 0 0 0 0
          0 0 0 0 0 0
          0 0 0 0 0 0
          0 0 0 0 0 0
          0 0 0 0 0 0
          0 0 0 0 0 0
          0 0 0 0 0 0
          0 0 0 0 0 0
          0 0 0 0 0 0
          0 0 0 0 0 0
          0 0 0 0 0 0
          0 0 0 0 0 0
          0 0 0 0 0 0
          0 0 0 0 0 0
          0 0 0 0 0 0
          0 0 0 0 0 0
          0 0 0 0 0 0
          0 0 0 0 0 0
          0 0 0 0 0 0
          0 0 0 0 0 0
          0 0 0 0 0 0
          0 0 0 0 0 0
          0 0 0 0 0 0
          0 0 0 0 0 0
          0 0 0 0 0 0
          0 0 0 0 0 0
          0 0 0 0 0 0
          0 0 0 0 0 0
          0 0 0 0 0 0
          0 0 0 0 0 0
          0 0 0 0 0 0
          0 0 0 0 0 0
          0 0 0 0 0 0
          0 0 0 0 0 0
          0 0 0 0 0 0
          0 0 0 0 0 0
          0 0 0 0 0 0
          0 0 0 0 0 0
          0 0 0 0 0 0
          0 0 0 0 0 0
          0 0 0 0 0 0
          0 0 0 0 0 0
          0 0 0 0 0 0
          0 0 0 0 0 0
          0 0 0 0 0 0
          0 0 0 0 0 0
          0 0 0 0 0 0
          <InformationKey name="L2_NORM_RANGE" location="vtkDataArray" length="2">
            <Value index="0">
              0
            </Value>
            <Value index="1">
              0
            </Value>
          </InformationKey>
        </DataArray>
        <DataArray type="Float64" Name="nsi_FIXNO" NumberOfComponents="3" format="ascii" RangeMin="1" RangeMax="1.7320508075688772">
          0 1 0 -1 -1 -1
          -1 -1 -1 -1 -1 -1
          -1 -1 -1 0 1 0
          -1 -1 -1 -1 -1 -1
          -1 -1 -1 0 1 0
          -1 -1 -1 -1 -1 -1
          -1 -1 -1 0 1 0
          -1 -1 -1 -1 -1 -1
          -1 -1 -1 -1 -1 -1
          -1 -1 -1 -1 -1 -1
          -1 -1 -1 -1 -1 -1
          -1 -1 -1 -1 -1 -1
          -1 -1 -1 0 1 0
          -1 -1 -1 -1 -1 -1
          -1 -1 -1 -1 -1 -1
          0 1 0 -1 -1 -1
          -1 -1 -1 -1 -1 -1
          -1 -1 -1 -1 -1 -1
          -1 -1 -1 0 1 0
          0 1 0 -1 -1 -1
          -1 -1 -1 -1 -1 -1
          -1 -1 -1 0 1 0
          -1 -1 -1 -1 -1 -1
          0 1 0 -1 -1 -1
          -1 -1 -1 -1 -1 -1
          -1 -1 -1 -1 -1 -1
          0 1 0 -1 -1 -1
          -1 -1 -1 -1 -1 -1
          0 1 0 -1 -1 -1
          -1 -1 -1 0 1 0
          -1 -1 -1 0 1 0
          0 1 0 0 1 0
          -1 -1 -1 -1 -1 -1
          -1 -1 -1 -1 -1 -1
          -1 -1 -1 -1 -1 -1
          -1 -1 -1 -1 -1 -1
          -1 -1 -1 0 1 0
          -1 -1 -1 -1 -1 -1
          -1 -1 -1 -1 -1 -1
          -1 -1 -1 -1 -1 -1
          0 1 0 0 1 0
          -1 -1 -1 0 1 0
          0 1 0 -1 -1 -1
          -1 -1 -1 -1 -1 -1
          0 1 0 -1 -1 -1
          0 1 0 0 1 0
          0 1 0 0 1 0
          0 1 0 -1 -1 -1
          -1 -1 -1 0 1 0
          -1 -1 -1 0 1 0
          0 1 0 0 1 0
          0 1 0 -1 -1 -1
          -1 -1 -1 -1 -1 -1
          -1 -1 -1 -1 -1 -1
          0 1 0 0 1 0
          -1 -1 -1 -1 -1 -1
          -1 -1 -1 -1 -1 -1
          -1 -1 -1 -1 -1 -1
          -1 -1 -1 -1 -1 -1
          -1 -1 -1 -1 -1 -1
          -1 -1 -1 -1 -1 -1
          -1 -1 -1 -1 -1 -1
          -1 -1 -1 -1 -1 -1
          -1 -1 -1 -1 -1 -1
          -1 -1 -1 0 1 0
          <InformationKey name="L2_NORM_RANGE" location="vtkDataArray" length="2">
            <Value index="0">
              1
            </Value>
            <Value index="1">
              1.7320508076
            </Value>
          </InformationKey>
        </DataArray>
        <DataArray type="Float64" Name="Velocity" NumberOfComponents="3" format="ascii" RangeMin="0.09712205267494903" RangeMax="0.10129595169341732">
          0.09944030455075134 0 -4.996430901195336e-10 0.09821845798356547 -8.99317807587322e-11 -4.764385409963577e-10
          0.0992523912358147 -1.6958382111771538e-11 -4.946222397257523e-10 0.09870213145555642 -1.2950665269256168e-10 -5.503968144828093e-10
          0.09944030384605941 5.2390629290796974e-11 -4.852380960157992e-10 0.0971220532838798 0 -4.850773844790349e-10
          0.09821845771439627 -8.25818800595836e-11 -4.451439595268806e-10 0.09944030443482783 -9.39338358566621e-11 -5.470818231762141e-10
          0.09925239079243661 -1.16632324728799e-11 -4.4355161731995406e-10 0.09749314637988653 0 -6.579627534455129e-10
          0.09712205318648368 -1.4233862878905451e-11 -4.846285722299598e-10 0.09870213059113704 9.507987598887088e-12 -5.211700543506242e-10
          0.09749314636715374 1.5161767741084447e-10 -6.538565293758057e-10 0.09944030462848044 0 -3.881395471239952e-10
          0.09944030298605461 -6.737674868096853e-11 -4.4790771976378527e-10 0.09821845750582688 -9.066276595305547e-11 -4.2718404433496255e-10
          0.09944030381210257 -2.977582859969814e-11 -5.301822672995938e-10 0.10026999952011006 -1.5680251910652502e-10 -9.278931219434565e-10
          0.09925239146110373 -3.946411204991775e-11 -4.683625063332459e-10 0.0987021305713886 -1.3439792254525158e-10 -4.1243834235080896e-10
          0.09944030262431539 6.219889961124356e-11 -3.956055151984302e-10 0.09944030443678264 5.0176339648311744e-11 -4.11304634644407e-10
          0.09712205336272656 -7.947605120936816e-11 -4.42639383432109e-10 0.0982184576611519 -7.654056611160082e-11 -3.9819289499896884e-10
          0.10026999890617791 -8.459321327139804e-12 -9.121438579159241e-10 0.10026999935198587 0 -4.2947768109927077e-10
          0.09821845710076953 1.0979177335328487e-11 -3.9876184824352084e-10 0.09925239136741591 -1.9794449159855823e-11 -4.710185734661989e-10
          0.09925239131969166 -9.936906092675695e-12 -4.02205609656678e-10 0.09983710189277045 5.723017509146629e-11 -6.512202200171312e-10
          0.09712205330460999 0 -4.722019918411137e-10 0.09749314625015375 -1.489472657430881e-10 -6.188402910326577e-10
          0.09944030466325438 -1.0990800329052862e-10 -5.324976386053858e-10 0.09870213056525222 8.843016676634351e-12 -3.8349799877107457e-10
          0.09870212970053471 1.378266020408999e-10 -4.5404474390407343e-10 0.1002699991122689 2.9067839757245256e-10 -4.5100730574915496e-10
          0.09712205297361894 -2.16728812601602e-11 -4.667903410809113e-10 0.09749314587395307 0 -5.605833544842935e-10
          0.09712205294312194 0 -3.6480080793639423e-10 0.09944030369840723 -6.492249457588721e-11 -3.6895565824828307e-10
          0.09944030346802447 8.051949368455368e-11 -4.828505920969884e-10 0.0998371014293542 1.5726225045252578e-11 -6.764613002330536e-10
          0.09749314628114954 1.3571155853925419e-10 -5.503525106604173e-10 0.09749314583273469 0 -2.733509031709763e-10
          0.09944030407819474 -3.931785888817556e-11 -5.155427290032632e-10 0.10026999950766585 -1.7112991766767807e-10 -6.561147131332752e-10
          0.0994403033468557 0 -3.8702487666423707e-10 0.10026999842169664 1.7377167105516824e-10 -8.11065335526421e-10
          0.10026999844205714 -2.8982513262973656e-10 -3.797907104171463e-10 0.09821845719442461 1.2005934706965403e-11 -3.59749401908761e-10
          0.09925239162758563 1.0018096131708355e-12 -4.1972234720285443e-10 0.09712205282476717 -9.170888439992866e-11 -4.345645914004206e-10
          0.0971220530147449 0 -4.200051627569708e-10 0.1002699990650123 1.976063902199637e-12 -6.28687183746338e-10
          0.09870212985670213 1.4152630539246053e-10 -3.232184974420971e-10 0.09749314563116006 -1.2637702241905865e-10 -4.807533594313534e-10
          0.09749314584072638 0 -5.550919628194108e-10 0.09983710145912592 -5.637697898695006e-11 -5.611795688645459e-10
          0.0994403035153137 6.437792727399399e-11 -4.4568145886663093e-10 0.09944030364116777 0 -3.369043884705732e-10
          0.1002699989838858 1.7768529985323982e-10 -4.672612088795564e-10 0.1002699990054595 0 -3.273335300093754e-10
          0.09712205267494903 0 -3.788149352248089e-10 0.09749314591179366 0 -4.126781947731204e-10
          0.09749314638040901 -1.2585272047387487e-10 -3.461991497471279e-10 0.10026999770911817 -2.706790631724583e-10 -5.163109622202979e-10
          0.09983710112405648 -6.575697898949063e-11 -4.70279005963798e-10 0.10026999754669148 1.7395068360421482e-10 -1.6235533595883974e-10
          0.09712205332956692 -9.170295766213338e-11 -4.046151339297093e-10 0.09983710133510407 -5.092613725558212e-11 -3.8475871219978516e-10
          0.09870212877741878 1.367749283655649e-10 -6.374040588997011e-10 0.0992523913884439 3.234479128349019e-11 -4.748988530575403e-10
          0.09821845693092761 -1.6325234026230158e-11 -4.967914165571071e-10 0.09712205267494903 0 -3.788149352248089e-10
          0.09931320235153716 4.138454278286243e-10 -9.816806812832743e-10 0.10026999900163776 3.2201560115991663e-10 -6.111640611394934e-10
          0.09983710109859212 5.348320434094116e-11 -5.512446730593802e-10 0.09749314622920302 1.450781321250952e-10 -4.0064706372295485e-10
          0.09712205362824712 -3.014975512090971e-11 -4.467762146618787e-10 0.0994403036744321 -2.9720361215348165e-11 -4.561065186532543e-10
          0.09931320202185599 0 -1.0105910663113059e-9 0.10026999896685439 0 -6.134574025622307e-10
          0.09983710171349928 8.150373033280862e-11 -6.222012639111433e-10 0.09749314631085287 0 -4.011335096267946e-10
          0.09712205311869691 0 -4.5668528652497646e-10 0.09944030440400825 -1.046871056642978e-10 -4.911091137081507e-10
          0.09931320202282243 -3.7720142270491614e-10 -8.952693053261733e-10 0.09931320199236497 -3.5699200699133663e-10 -5.319911285057348e-10
          0.09931320172817719 0 -8.500992088747598e-10 0.10129595111363641 2.3140571902196909e-10 -2.8492468742923545e-10
          0.09931320197278294 0 -2.0390783426461146e-11 0.1002699980381735 0 -4.5227311493928e-10
          0.09749314591179366 0 -4.126781947731204e-10 0.10026999774821964 0 -6.279137292830888e-10
          0.09944030280155525 0 -5.479482490676972e-10 0.09931320196389008 4.186709206441926e-10 -6.237321446540414e-10
          0.10129595169341732 3.3886409072471814e-11 -3.588317932749085e-10 0.0993132019315731 0 -6.413648513002354e-10
          0.10129595151890704 -1.9873569393324667e-10 -3.9366474382100847e-10 0.09931320104612931 0 -4.923232041082552e-10
          0.09712205330460999 0 -4.722019918411137e-10 0.09749314587395307 0 -5.605833544842935e-10
          0.09944030459106717 0 -6.305666274839335e-10 0.0992523914747618 -1.3247533538407e-11 -5.59092323297137e-10
          0.09944030466325438 -1.0990800329052862e-10 -5.324976386053858e-10 0.09712205297361894 -2.16728812601602e-11 -4.667903410809113e-10
          0.09821845749917622 -9.57719944469657e-11 -5.409133797317965e-10 0.09749314628114954 1.3571155853925419e-10 -5.503525106604173e-10
          0.0993132019315731 0 -6.413648513002354e-10 0.10026999898775678 0 -7.855083063356046e-10
          0.09983710183988548 7.24450051228074e-11 -6.019123485716386e-10 0.10026999950766585 -1.7112991766767807e-10 -6.561147131332752e-10
          0.09870213081198001 -1.4532311592333944e-10 -7.188422548004728e-10 0.09944030441081886 4.044378200989954e-11 -6.24719167935916e-10
          0.09925239122148524 -2.8763218139334932e-11 -5.283816968554477e-10 0.09944030407819474 -3.931785888817556e-11 -5.155427290032632e-10
          0.09712205282476717 -9.170888439992866e-11 -4.345645914004206e-10 0.09821845757250953 -9.521803326035801e-11 -5.189683840905161e-10
          0.09931320196389008 4.186709206441926e-10 -6.237321446540414e-10 0.10026999889951753 3.134416881675837e-10 -7.773596008378393e-10
          0.09983710159689638 3.6957269649757584e-11 -5.372830592866343e-10 0.1002699990650123 1.976063902199637e-12 -6.28687183746338e-10
          0.09749314563116006 -1.2637702241905865e-10 -4.807533594313534e-10 0.09870213052862263 1.1282606002011145e-11 -6.917032991683232e-10
          0.0994403039406474 -5.6811955329329844e-11 -5.694820036761953e-10 0.0994403035153137 6.437792727399399e-11 -4.4568145886663093e-10
          0.09931320199236497 -3.5699200699133663e-10 -5.319911285057348e-10 0.10026999809254865 -2.6061768064090665e-10 -7.019820074713503e-10
          0.1002699989838858 1.7768529985323982e-10 -4.672612088795564e-10 0.09931320104612931 0 -4.923232041082552e-10
          <InformationKey name="L2_NORM_RANGE" location="vtkDataArray" length="2">
            <Value index="0">
              0.097122052675
            </Value>
            <Value index="1">
              0.10129595169
            </Value>
          </InformationKey>
        </DataArray>
        <DataArray type="Float64" Name="Pressure" format="ascii" RangeMin="0" RangeMax="0.08504290077796442">
          0.03478770171448008 0 0.035252167005742886 0.0638955088156505 0.034787701913165894 0
          0 0.034787701516881195 0.03525216728096986 0.06583292507530374 0 0.06389550877548061
          0.06583292505390431 0.03478770142795048 0.034787701985074714 0 0.034787701987127946 0.08141955451954168
          0.0352521667942133 0.06389550887713741 0.03478770165446156 0.034787701558915717 0 0
          0.08141955588618033 0.08141955386690206 0 0.03525216705131048 0.03525216710070213 0.0829205441813121
          0 0.06583292512467993 0.0347877013500409 0.06389550885914233 0.06389550892809974 0.08141955454355117
          0 0.0658329251509319 0 0.03478770159206384 0.03478770164813702 0.08292054500915759
          0.06583292509811 0.06583292521823311 0.03478770176578965 0.08141955390737475 0.034787701809220625 0.08141955466458395
          0.08141955462317078 0 0.03525216686444688 0 0 0.08141955515502668
          0.06389550900661908 0.06583292516408416 0.06583292522434975 0.0829205442713296 0.03478770145545397 0.03478770143506552
          0.08141955399208335 0.0814195539957594 0 0.06583292528715526 0.06583292512552393 0.08141955597401096
          0.08292054511592559 0.08141955467849868 0 0.08292054430021939 0.06389550902093222 0.035252166891119124
          0 0 0.08504290073222022 0.08141955580388673 0.0829205458311506 0.06583292501908981
          0 0.03478770193802244 0.0850429005783172 0.08141955508806524 0.08292054495974795 0.0658329250529789
          0 0.03478770151695487 0.08504290077796442 0.0850429006673151 0.0850429007069823 0.08098491063676778
          0.08504290073877749 0.08141955531269 0.06583292528715526 0.08141955398785423 0.03478770156948285 0.08504290061727705
          0.08098491069036659 0.08504290053560497 0.08098491055809172 0.08504290060418457 0 0.0658329251509319
          0.034787701294082964 0.03525216675734398 0.0347877013500409 0 0 0.06583292509811
          0.08504290053560497 0.0814195537841639 0.08292054413199522 0.08141955390737475 0.06389550884688198 0.03478770153906128
          0.03525216703105494 0.03478770176578965 0 0 0.08504290061727705 0.08141955448210711
          0.08292054498465735 0.08141955515502668 0.06583292516408416 0.06389550881340667 0.03478770159026027 0.03478770145545397
          0.0850429006673151 0.08141955461959587 0.08141955399208335 0.08504290060418457
        </DataArray>
      </PointData>
      <CellData>
        <DataArray type="UInt8" Name="vtkGhostType" format="ascii" RangeMin="0" RangeMax="1">
          1 1 1 1 1 1
          0 1 1 1 1 1
          1 1 1 1 1 1
          1 1 1 1 1 0
          0 0 0 0 0 0
          0 0 0 0 0 0
          0 0 0 0 1 1
          0 0 1 0 1 1
          1 1 1 0 1 1
          1 1 1 1 1 1
          0 0 0 0 0 1
          0 1 1 1 1 0
          1 0 0 0 0 0
          0 0 0 0 0 0
          0 0 0 0 0 0
          0 0 0 0 0 0
          0 0 0 0 0 0
          1 1 1 1 1 1
          1 1 1 1 1 1
          1 1 0 1 1 1
          1 1 1 1 1 0
          0 0 0 0 1 0
          1 1 1 1 0 1
          0 0 0 0 0 0
          0 0 0 0 0 0
          0 0 0 0 0 0
          0 0 0 0 0 0
          0 0 0 0 0 0
          0 0 0 0 0 0
          0 0 0 0 0 0
          0 0 0 0 0 1
          1 0 1 1 1 1
          1 0 0 0 0 0
          0 0 0 0 0 0
          0 0 0 0 0 0
          0 0 0 0 0 0
          0 0 0 0 0 0
          0 0 0 0 0 0
          0 0 0 0 0 0
          0 0 0 0 0 0
          0 0 0 0 0 0
          0 0 0 0 0 0
          0 0 0 0 0 0
          0 0 0 0 0 0
          0 0 0 0 0 0
          0 0 1 1 1 1
          1 1 1 1 1 1
          1 1 1 1 1 1
          1 1 1 1 1 1
          1 1 1 1 1 1
          1 1 1 1 1 1
          1 1 1 1 1 1
          1 1 1 1 1 1
          1 1 1 1 1 1
          1 1 1 1 1 1
          1 1 1 1 1 1
          1 1 1 1 1 1
          1 1 1 1 1
        </DataArray>
      </CellData>
      <Points>
        <DataArray type="Float32" Name="Points" NumberOfComponents="3" format="ascii" RangeMin="0.3333333134651184" RangeMax="1.7320508075688772">
          0.8333333134651184 1 0.5 1 0.8333333134651184 0.5
          0.8333333134651184 0.8333333134651184 0.5 0.6666666865348816 0.8333333134651184 0.5
          0.8333333134651184 0.6666666865348816 0.5 1 1 0.3333333134651184
          1 0.5 0.5 0.8333333134651184 0.8333333134651184 0.3333333134651184
          0.8333333134651184 0.5 0.5 0.6666666865348816 1 0.3333333134651184
          1 0.6666666865348816 0.3333333134651184 0.6666666865348816 0.5 0.5
          0.6666666865348816 0.6666666865348816 0.3333333134651184 0.8333333134651184 1 0.16666670143604279
          0.8333333134651184 0.3333333134651184 0.5 1 0.8333333134651184 0.16666670143604279
          0.8333333134651184 0.5 0.3333333134651184 0.5 0.8333333134651184 0.3333333134651184
          0.8333333134651184 0.8333333134651184 0.16666670143604279 0.6666666865348816 0.8333333134651184 0.16666670143604279
          0.8333333134651184 0.16666670143604279 0.6666666865348816 0.8333333134651184 0.6666666865348816 0.16666670143604279
          1 0.3333333134651184 0.3333333134651184 1 0.5 0.16666670143604279
          0.5 0.5 0.3333333134651184 0.5 1 0.16666670143604279
          1 0.16666670143604279 0.5 0.8333333134651184 0.5 0.16666670143604279
          0.8333333134651184 0.16666670143604279 0.5 0.5 0.8333333134651184 0.16666670143604279
          1 1 0 0.6666666865348816 0.3333333134651184 0.3333333134651184
          0.8333333134651184 0.8333333134651184 0 0.6666666865348816 0.5 0.16666670143604279
          0.6666666865348816 0.16666670143604279 0.5 0.5 0.6666666865348816 0.16666670143604279
          1 0.6666666865348816 0 0.6666666865348816 1 0
          1 0 0.6666666865348816 0.8333333134651184 0.3333333134651184 0.16666670143604279
          0.8333333134651184 0.16666670143604279 0.3333333134651184 0.5 0.5 0.16666670143604279
          0.6666666865348816 0.6666666865348816 0 0.6666666865348816 0 0.6666666865348816
          0.8333333134651184 0.5 0 0.5 0.8333333134651184 0
          0.8333333134651184 0 0.5 0.5 0.16666670143604279 0.3333333134651184
          0.5 0.3333333134651184 0.16666670143604279 1 0.16666670143604279 0.16666670143604279
          0.8333333134651184 0.16666670143604279 0.16666670143604279 1 0.3333333134651184 0
          1 0 0.3333333134651184 0.5 0.5 0
          0.6666666865348816 0.16666670143604279 0.16666670143604279 0.6666666865348816 0.3333333134651184 0
          0.6666666865348816 0 0.3333333134651184 0.5 0.16666670143604279 0.16666670143604279
          0.8333333134651184 0.16666670143604279 0 0.8333333134651184 0 0.16666670143604279
          0.5 0.16666670143604279 0 0.5 0 0.16666670143604279
          1 0 0 0.6666666865348816 0 0
          0.6666666865348816 0.3333333134651184 0.6666666865348816 0.5 0.3333333134651184 0.5
          0.5 0.16666670143604279 0.5 0.5 0.16666670143604279 0.6666666865348816
          1 0.3333333134651184 0.6666666865348816 0.5 0.16666670143604279 0.8333333134651184
          0.6666666865348816 0.16666670143604279 0.8333333134651184 0.8333333134651184 0.16666670143604279 0.8333333134651184
          1 0.16666670143604279 0.8333333134651184 1 0 1
          0.3333333134651184 0.6666666865348816 0.3333333134651184 0.5 0.6666666865348816 0.5
          0.5 0.5 0.5 0.6666666865348816 0.6666666865348816 0.6666666865348816
          1 0.6666666865348816 0.6666666865348816 0.8333333134651184 0.5 0.6666666865348816
          0.3333333134651184 1 0.3333333134651184 0.5 1 0.5
          0.5 0.8333333134651184 0.5 0.6666666865348816 1 0.6666666865348816
          1 1 0.6666666865348816 0.8333333134651184 0.8333333134651184 0.6666666865348816
          0.3333333134651184 0.3333333134651184 0.3333333134651184 0.3333333134651184 0.3333333134651184 0
          0.3333333134651184 0 0.3333333134651184 0.3333333134651184 0.16666670143604279 0.16666670143604279
          0.3333333134651184 0 0.6666666865348816 0.5 0 0.5
          0.6666666865348816 0 1 0.5 0 0.8333333134651184
          0.8333333134651184 0 0.8333333134651184 0.3333333134651184 0.6666666865348816 0
          0.3333333134651184 0.5 0.16666670143604279 0.3333333134651184 1 0
          0.3333333134651184 0.8333333134651184 0.16666670143604279 0.3333333134651184 0 0
          1 1 1 0.6666666865348816 1 1
          0.8333333134651184 1 0.8333333134651184 0.8333333134651184 0.8333333134651184 0.8333333134651184
          0.8333333134651184 0.8333333134651184 1 1 0.6666666865348816 1
          1 0.8333333134651184 0.8333333134651184 0.6666666865348816 0.6666666865348816 1
          0.3333333134651184 1 1 0.5 1 0.8333333134651184
          0.5 0.8333333134651184 0.8333333134651184 0.5 0.8333333134651184 1
          0.6666666865348816 0.8333333134651184 0.8333333134651184 0.8333333134651184 0.6666666865348816 0.8333333134651184
          0.8333333134651184 0.5 0.8333333134651184 0.8333333134651184 0.5 1
          1 0.3333333134651184 1 1 0.5 0.8333333134651184
          0.3333333134651184 0.6666666865348816 1 0.5 0.6666666865348816 0.8333333134651184
          0.5 0.5 0.8333333134651184 0.5 0.5 1
          0.6666666865348816 0.3333333134651184 1 0.6666666865348816 0.5 0.8333333134651184
          0.8333333134651184 0.3333333134651184 0.8333333134651184 0.8333333134651184 0.16666670143604279 1
          0.3333333134651184 0.3333333134651184 1 0.5 0.3333333134651184 0.8333333134651184
          0.5 0.16666670143604279 1 0.3333333134651184 0 1
          <InformationKey name="L2_NORM_RANGE" location="vtkDataArray" length="2">
            <Value index="0">
              0.33333331347
            </Value>
            <Value index="1">
              1.7320508076
            </Value>
          </InformationKey>
        </DataArray>
      </Points>
      <Cells>
        <DataArray type="Int64" Name="connectivity" format="ascii" RangeMin="0" RangeMax="129">
          31 64 65 66 64 43
          67 66 64 31 34 66
          43 64 34 66 68 64
          14 28 64 31 14 28
          31 22 14 28 22 68
          14 28 64 68 20 28
          68 38 20 28 43 64
          20 28 31 64 34 28
          64 43 34 28 68 22
          26 28 38 68 26 28
          43 64 67 69 64 43
          70 69 43 64 70 71
          64 43 20 71 38 68
          20 71 68 64 20 71
          68 38 72 71 38 73
          72 71 12 74 35 41
          42 12 35 41 74 12
          24 41 12 31 24 41
          12 42 33 41 31 12
          33 41 10 12 21 27
          12 42 21 27 36 10
          21 27 12 10 16 27
          10 22 16 27 22 31
          16 27 31 12 16 27
          42 12 33 27 12 31
          33 27 10 36 23 27
          22 10 23 27 74 12
          75 76 12 77 75 76
          31 12 24 76 12 74
          24 76 77 12 11 76
          12 31 11 76 31 64
          11 76 64 77 11 76
          64 31 65 76 78 77
          4 8 77 12 4 8
          12 10 4 8 10 78
          4 8 77 78 79 8
          78 68 79 8 68 64
          79 8 64 77 79 8
          12 77 11 8 77 64
          11 8 64 31 11 8
          31 12 11 8 12 31
          16 8 31 22 16 8
          22 10 16 8 10 12
          16 8 78 10 6 8
          10 22 6 8 22 68
          6 8 68 78 6 8
          64 68 14 8 68 22
          14 8 22 31 14 8
          31 64 14 8 9 80
          25 29 37 9 25 29
          80 9 17 29 9 12
          17 29 12 74 17 29
          74 80 17 29 9 37
          19 29 42 12 19 29
          12 9 19 29 74 12
          35 29 12 42 35 29
          5 9 13 18 9 37
          13 18 37 30 13 18
          30 5 13 18 9 5
          7 18 5 10 7 18
          10 12 7 18 12 9
          7 18 37 9 19 18
          9 12 19 18 12 42
          19 18 5 30 15 18
          30 36 15 18 36 10
          15 18 10 5 15 18
          12 10 21 18 10 36
          21 18 42 12 21 18
          80 9 81 82 9 83
          81 82 80 74 17 82
          74 12 17 82 12 9
          17 82 9 80 17 82
          83 9 3 82 9 12
          3 82 12 77 3 82
          77 83 3 82 77 12
          75 82 12 74 75 82
          84 83 0 2 83 9
          0 2 9 5 0 2
          5 84 0 2 83 84
          85 2 84 78 85 2
          78 77 85 2 77 83
          85 2 9 83 3 2
          83 77 3 2 77 12
          3 2 12 9 3 2
          9 12 7 2 12 10
          7 2 10 5 7 2
          5 9 7 2 84 5
          1 2 5 10 1 2
          10 78 1 2 78 84
          1 2 77 78 4 2
          78 10 4 2 10 12
          4 2 12 77 4 2
          31 86 48 57 86 87
          48 57 55 31 48 57
          86 31 47 57 31 56
          47 57 88 86 47 57
          87 86 89 57 86 88
          89 57 31 55 54 57
          56 31 54 57 22 31
          39 50 31 55 39 50
          55 51 39 50 51 22
          39 50 31 22 40 50
          22 52 40 50 52 56
          40 50 56 31 40 50
          55 31 54 50 31 56
          54 50 22 51 49 50
          52 22 49 50 86 31
          65 66 43 90 67 66
          86 88 47 66 88 56
          47 66 56 31 47 66
          31 86 47 66 31 56
          34 66 56 43 34 66
          90 43 91 66 43 56
          91 66 56 88 91 66
          38 43 20 28 43 56
          34 28 56 31 34 28
          31 56 40 28 56 52
          40 28 52 22 40 28
          22 31 40 28 22 52
          26 28 52 38 26 28
          43 38 46 28 38 52
          46 28 52 56 46 28
          56 43 46 28 90 43
          67 69 43 92 70 69
          92 43 93 69 43 90
          93 69 92 43 70 71
          43 38 20 71 73 38
          94 71 38 43 94 71
          43 92 94 71 74 95
          35 41 95 42 35 41
          31 86 24 41 86 74
          24 41 95 74 96 41
          74 86 96 41 86 87
          96 41 87 95 96 41
          95 87 53 41 87 55
          53 41 55 42 53 41
          42 95 53 41 42 55
          33 41 55 31 33 41
          86 31 48 41 31 55
          48 41 55 87 48 41
          87 86 48 41 42 36
          21 27 31 55 33 27
          55 42 33 27 42 55
          44 27 55 51 44 27
          51 36 44 27 36 42
          44 27 36 51 23 27
          51 22 23 27 31 22
          39 27 22 51 39 27
          51 55 39 27 55 31
          39 27 74 86 24 76
          86 31 24 76 31 86
          65 76 80 97 25 29
          97 37 25 29 97 80
          98 29 80 74 98 29
          74 95 98 29 95 97
          98 29 97 95 45 29
          95 42 45 29 42 37
          45 29 37 97 45 29
          37 42 19 29 42 95
          35 29 95 74 35 29
          42 37 19 18 37 42
          32 18 42 36 32 18
          36 30 32 18 30 37
          32 18 36 42 21 18
          87 55 48 57 56 88
          47 57 88 99 89 57
          99 87 89 57 87 99
          60 57 99 63 60 57
          63 55 60 57 55 87
          60 57 55 63 54 57
          63 56 54 57 88 56
          61 57 56 63 61 57
          63 99 61 57 99 88
          61 57 56 63 54 50
          63 55 54 50 55 63
          58 50 63 62 58 50
          62 51 58 50 51 55
          58 50 51 62 49 50
          62 52 49 50 56 52
          59 50 52 62 59 50
          62 63 59 50 63 56
          59 50 100 101 102 103
          84 100 102 103 101 100
          104 103 100 105 104 103
          100 84 106 103 105 100
          106 103 105 107 104 103
          107 101 104 103 101 108
          109 110 83 101 109 110
          108 101 111 110 101 107
          111 110 101 83 112 110
          107 101 112 110 101 83
          102 103 83 101 112 103
          101 107 112 103 105 107
          113 114 78 105 113 114
          107 105 115 114 105 116
          115 114 105 78 117 114
          116 105 117 114 78 105
          106 103 107 105 113 103
          105 78 113 103 107 118
          119 120 77 107 119 120
          118 107 121 120 107 122
          121 120 107 77 123 120
          122 107 123 120 107 77
          113 114 122 107 115 114
          77 107 123 114 107 122
          123 114 107 118 111 110
          77 107 112 110 118 107
          119 110 107 77 119 110
          107 77 112 103 77 107
          113 103 116 122 115 114
          118 108 111 110 116 122
          124 71 68 116 124 71
          122 116 125 71 116 73
          125 71 116 68 72 71
          73 116 72 71 68 116
          117 114 122 116 124 114
          116 68 124 114 122 126
          121 120 126 118 121 120
          122 126 127 69 64 122
          127 69 126 122 128 69
          122 92 128 69 122 64
          70 69 92 122 70 69
          122 64 124 71 92 122
          125 71 64 122 70 71
          122 92 70 71 64 122
          123 120 126 122 127 120
          122 64 127 120 122 64
          123 114 64 122 124 114
          73 92 125 71 92 73
          94 71 92 129 128 69
          129 92 93 69 129 126
          128 69
        </DataArray>
        <DataArray type="Int64" Name="offsets" format="ascii" RangeMin="4" RangeMax="1388">
          4 8 12 16 20 24
          28 32 36 40 44 48
          52 56 60 64 68 72
          76 80 84 88 92 96
          100 104 108 112 116 120
          124 128 132 136 140 144
          148 152 156 160 164 168
          172 176 180 184 188 192
          196 200 204 208 212 216