<?xml version="1.0"?>
<VTKFile type="UnstructuredGrid" version="0.1" byte_order="LittleEndian" header_type="UInt32" compressor="vtkZLibDataCompressor">
  <UnstructuredGrid>
    <Piece NumberOfPoints="135" NumberOfCells="305">
      <PointData>
        <DataArray type="Float64" Name="nsi_BC" NumberOfComponents="3" format="ascii" RangeMin="0" RangeMax="0">
          0 0 0 0 0 0
          0 0 0 0 0 0
          0 0 0 0 0 0
          0 0 0 0 0 0
          0 0 0 0 0 0
          0 0 0 0 0 0
          0 0 0 0 0 0
          0 0 0 0 0 0
          0 0 0 0 0 0
          0 0 0 0 0 0
          0 0 0 0 0 0
          0 0 0 0 0 0
          0 0 0 0 0 0
          0 0 0 0 0 0
          0 0 0 0 0 0
          0 0 0 0 0 0
          0 0 0 0 0 0
          0 0 0 0 0 0
          0 0 0 0 0 0
          0 0 0 0 0 0
          0 0 0 0 0 0
          0 0 0 0 0 0
          0 0 0 0 0 0
          0 0 0 0 0 0
          0 0 0 0 0 0
          0 0 0 0 0 0
          0 0 0 0 0 0
          0 0 0 0 0 0
          0 0 0 0 0 0
          0 0 0 0 0 0
          0 0 0 0 0 0
          0 0 0 0 0 0
          0 0 0 0 0 0
          0 0 0 0 0 0
          0 0 0 0 0 0
          0 0 0 0 0 0
          0 0 0 0 0 0
          0 0 0 0 0 0
          0 0 0 0 0 0
          0 0 0 0 0 0
          0 0 0 0 0 0
          0 0 0 0 0 0
          0 0 0 0 0 0
          0 0 0 0 0 0
          0 0 0 0 0 0
          0 0 0 0 0 0
          0 0 0 0 0 0
          0 0 0 0 0 0
          0 0 0 0 0 0
          0 0 0 0 0 0
          0 0 0 0 0 0
          0 0 0 0 0 0
          0 0 0 0 0 0
          0 0 0 0 0 0
          0 0 0 0 0 0
          0 0 0 0 0 0
          0 0 0 0 0 0
          0 0 0 0 0 0
          0 0 0 0 0 0
          0 0 0 0 0 0
          0 0 0 0 0 0
          0 0 0 0 0 0
          0 0 0 0 0 0
          0 0 0 0 0 0
          0 0 0 0 0 0
          0 0 0 0 0 0
          0 0 0 0 0 0
          0 0 0
          <InformationKey name="L2_NORM_RANGE" location="vtkDataArray" length="2">
            <Value index="0">
              0
            </Value>
            <Value index="1">
              0
            </Value>
          </InformationKey>
        </DataArray>
        <DataArray type="Float64" Name="nsi_FIXNO" NumberOfComponents="3" format="ascii" RangeMin="1" RangeMax="1.7320508075688772">
          0 1 0 0 1 0
          -1 -1 -1 -1 -1 -1
          -1 -1 -1 0 1 0
          -1 -1 -1 0 1 0
          -1 -1 -1 -1 -1 -1
          -1 -1 -1 0 1 0
          -1 -1 -1 -1 -1 -1
          -1 -1 -1 -1 -1 -1
          0 1 0 -1 -1 -1
          -1 -1 -1 -1 -1 -1
          -1 -1 -1 -1 -1 -1
          -1 -1 -1 -1 -1 -1
          -1 -1 -1 0 1 0
          -1 -1 -1 -1 -1 -1
          -1 -1 -1 0 1 0
          -1 -1 -1 -1 -1 -1
          -1 -1 -1 -1 -1 -1
          -1 -1 -1 0 1 0
          -1 -1 -1 -1 -1 -1
          -1 -1 -1 -1 -1 -1
          -1 -1 -1 -1 -1 -1
          0 1 0 -1 -1 -1
          -1 -1 -1 -1 -1 -1
          -1 -1 -1 -1 -1 -1
          -1 -1 -1 -1 -1 -1
          -1 -1 -1 -1 -1 -1
          -1 -1 -1 -1 -1 -1
          0 1 0 -1 -1 -1
          -1 -1 -1 0 1 0
          0 1 0 -1 -1 -1
          -1 -1 -1 0 1 0
          0 1 0 -1 -1 -1
          0 1 0 -1 -1 -1
          -1 -1 -1 -1 -1 -1
          -1 -1 -1 -1 -1 -1
          -1 -1 -1 -1 -1 -1
          -1 -1 -1 0 1 0
          -1 -1 -1 -1 -1 -1
          -1 -1 -1 -1 -1 -1
          -1 -1 -1 0 1 0
          -1 -1 -1 -1 -1 -1
          -1 -1 -1 -1 -1 -1
          -1 -1 -1 -1 -1 -1
          -1 -1 -1 -1 -1 -1
          -1 -1 -1 -1 -1 -1
          -1 -1 -1 -1 -1 -1
          -1 -1 -1 -1 -1 -1
          -1 -1 -1 0 1 0
          0 1 0 -1 -1 -1
          -1 -1 -1 0 1 0
          -1 -1 -1 0 1 0
          -1 -1 -1 0 1 0
          0 1 0 -1 -1 -1
          -1 -1 -1 -1 -1 -1
          -1 -1 -1 -1 -1 -1
          0 1 0 -1 -1 -1
          0 1 0 -1 -1 -1
          0 1 0 -1 -1 -1
          -1 -1 -1 -1 -1 -1
          -1 -1 -1 -1 -1 -1
          -1 -1 -1 -1 -1 -1
          -1 -1 -1 0 1 0
          0 1 0 -1 -1 -1
          0 1 0 -1 -1 -1
          -1 -1 -1 -1 -1 -1
          0 1 0 -1 -1 -1
          -1 -1 -1 0 1 0
          -1 -1 -1
          <InformationKey name="L2_NORM_RANGE" location="vtkDataArray" length="2">
            <Value index="0">
              1
            </Value>
            <Value index="1">
              1.7320508076
            </Value>
          </InformationKey>
        </DataArray>
      </PointData>
      <CellData>
        <DataArray type="UInt8" Name="vtkGhostType" format="ascii" RangeMin="0" RangeMax="0">
          0 0 0 0 0 0
          0 0 0 0 0 0
          0 0 0 0 0 0
          0 0 0 0 0 0
          0 0 0 0 0 0
          0 0 0 0 0 0
          0 0 0 0 0 0
          0 0 0 0 0 0
          0 0 0 0 0 0
          0 0 0 0 0 0
          0 0 0 0 0 0
          0 0 0 0 0 0
          0 0 0 0 0 0
          0 0 0 0 0 0
          0 0 0 0 0 0
          0 0 0 0 0 0
          0 0 0 0 0 0
          0 0 0 0 0 0
          0 0 0 0 0 0
          0 0 0 0 0 0
          0 0 0 0 0 0
          0 0 0 0 0 0
          0 0 0 0 0 0
          0 0 0 0 0 0
          0 0 0 0 0 0
          0 0 0 0 0 0
          0 0 0 0 0 0
          0 0 0 0 0 0
          0 0 0 0 0 0
          0 0 0 0 0 0
          0 0 0 0 0 0
          0 0 0 0 0 0
          0 0 0 0 0 0
          0 0 0 0 0 0
          0 0 0 0 0 0
          0 0 0 0 0 0
          0 0 0 0 0 0
          0 0 0 0 0 0
          0 0 0 0 0 0
          0 0 0 0 0 0
          0 0 0 0 0 0
          0 0 0 0 0 0
          0 0 0 0 0 0
          0 0 0 0 0 0
          0 0 0 0 0 0
          0 0 0 0 0 0
          0 0 0 0 0 0
          0 0 0 0 0 0
          0 0 0 0 0 0
          0 0 0 0 0 0
          0 0 0 0 0
        </DataArray>
      </CellData>
      <Points>
        <DataArray type="Float32" Name="Points" NumberOfComponents="3" format="ascii" RangeMin="0.3333333134651184" RangeMax="1.7320508075688772">
          1 1 1 0.8333333134651184 1 0.8333333134651184
          1 0.8333333134651184 0.8333333134651184 0.8333333134651184 0.8333333134651184 1
          0.8333333134651184 0.8333333134651184 0.8333333134651184 0.6666666865348816 1 1
          1 0.6666666865348816 1 1 1 0.6666666865348816
          0.6666666865348816 0.8333333134651184 0.8333333134651184 0.8333333134651184 0.6666666865348816 0.8333333134651184
          0.8333333134651184 0.8333333134651184 0.6666666865348816 0.6666666865348816 1 0.6666666865348816
          0.6666666865348816 0.6666666865348816 1 1 0.6666666865348816 0.6666666865348816
          1 0.5 0.8333333134651184 0.8333333134651184 0.5 1
          0.5 1 0.8333333134651184 0.5 0.8333333134651184 1
          0.8333333134651184 0.5 0.8333333134651184 0.5 0.8333333134651184 0.8333333134651184
          0.6666666865348816 0.6666666865348816 0.6666666865348816 0.5 0.6666666865348816 0.8333333134651184
          0.6666666865348816 0.5 0.8333333134651184 0.8333333134651184 0.5 0.6666666865348816
          0.5 0.8333333134651184 0.6666666865348816 0.3333333134651184 1 1
          1 0.3333333134651184 1 0.5 0.5 1
          0.8333333134651184 0.3333333134651184 0.8333333134651184 0.5 1 0.5
          0.3333333134651184 0.8333333134651184 0.8333333134651184 0.5 0.5 0.8333333134651184
          0.5 0.8333333134651184 0.5 0.3333333134651184 0.6666666865348816 1
          1 0.3333333134651184 0.6666666865348816 0.3333333134651184 1 0.6666666865348816
          0.6666666865348816 0.3333333134651184 1 0.5 0.5 0.6666666865348816
          0.5 0.6666666865348816 0.5 0.3333333134651184 0.6666666865348816 0.6666666865348816
          0.6666666865348816 0.3333333134651184 0.6666666865348816 0.3333333134651184 0.5 0.8333333134651184
          0.16666670143604279 1 0.8333333134651184 0.16666670143604279 0.8333333134651184 1
          0.5 0.3333333134651184 0.8333333134651184 0.3333333134651184 0.8333333134651184 0.5
          1 0.16666670143604279 0.8333333134651184 0.8333333134651184 0.16666670143604279 1
          0.16666670143604279 0.8333333134651184 0.8333333134651184 0.8333333134651184 0.16666670143604279 0.8333333134651184
          0.16666670143604279 0.6666666865348816 0.8333333134651184 0.16666670143604279 0.8333333134651184 0.6666666865348816
          0.6666666865348816 0.16666670143604279 0.8333333134651184 0.16666670143604279 0.5 1
          0.16666670143604279 1 0.5 0.16666670143604279 0.5 0.8333333134651184
          0.16666670143604279 0.8333333134651184 0.5 1 0 1
          0 1 1 0.16666670143604279 0.5 0.6666666865348816
          0 0.8333333134651184 0.8333333134651184 0.8333333134651184 0 0.8333333134651184
          0.6666666865348816 0 1 0 0.6666666865348816 1
          0 1 0.6666666865348816 0 0.6666666865348816 0.6666666865348816
          0 0.8333333134651184 0.5 0 0.5 0.8333333134651184
          0.3333333134651184 0.3333333134651184 0.6666666865348816 0.5 0.3333333134651184 0.5
          0.5 0.16666670143604279 0.5 0.6666666865348816 0.3333333134651184 0.3333333134651184
          0.5 0.16666670143604279 0.6666666865348816 0.6666666865348816 0 0.6666666865348816
          0.6666666865348816 0.16666670143604279 0.5 0.8333333134651184 0.3333333134651184 0.5
          0.8333333134651184 0.16666670143604279 0.5 1 0.3333333134651184 0.3333333134651184
          0.8333333134651184 0.16666670143604279 0.6666666865348816 1 0 0.6666666865348816
          1 0.16666670143604279 0.5 0.3333333134651184 0.3333333134651184 1
          0.5 0.16666670143604279 0.8333333134651184 0.5 0.16666670143604279 1
          0.16666670143604279 0.6666666865348816 0.5 0.16666670143604279 0.5 0.5
          0.3333333134651184 0.6666666865348816 0.3333333134651184 0.3333333134651184 0.5 0.5
          0.5 0.5 0.5 0.6666666865348816 0.6666666865348816 0.3333333134651184
          0.6666666865348816 0.5 0.5 0.8333333134651184 0.6666666865348816 0.5
          0.8333333134651184 0.5 0.5 1 0.6666666865348816 0.3333333134651184
          1 0.5 0.5 0.3333333134651184 1 0.3333333134651184
          0.6666666865348816 1 0.3333333134651184 0.5 0.8333333134651184 0.3333333134651184
          0.6666666865348816 0.8333333134651184 0.5 0.8333333134651184 1 0.5
          0.8333333134651184 0.8333333134651184 0.5 1 1 0.3333333134651184
          1 0.8333333134651184 0.5 0.3333333134651184 0 1
          0.5 0 0.8333333134651184 0 0.6666666865348816 0.3333333134651184
          0 0.3333333134651184 0.6666666865348816 0 0.5 0.5
          0 0.3333333134651184 1 0.16666670143604279 0.3333333134651184 0.8333333134651184
          0 1 0.3333333134651184 0.16666670143604279 0.8333333134651184 0.3333333134651184
          1 1 0 0.8333333134651184 0.8333333134651184 0
          0.6666666865348816 1 0 1 0.6666666865348816 0
          0.6666666865348816 0.6666666865348816 0 0.8333333134651184 0.5 0
          0.5 0.8333333134651184 0 1 0.3333333134651184 0
          0.5 0.5 0 0.6666666865348816 0.3333333134651184 0
          0.8333333134651184 0.16666670143604279 0 1 0 0
          0.6666666865348816 0 0 0.5 0.16666670143604279 0
          0.3333333134651184 1 0 0.3333333134651184 0.6666666865348816 0
          0.16666670143604279 0.8333333134651184 0 0.16666670143604279 0.5 0
          0 1 0 0 0.6666666865348816 0
          0.3333333134651184 0.3333333134651184 0 0.3333333134651184 0 0
          0 0.3333333134651184 0
          <InformationKey name="L2_NORM_RANGE" location="vtkDataArray" length="2">
            <Value index="0">
              0.33333331347
            </Value>
            <Value index="1">
              1.7320508076
            </Value>
          </InformationKey>
        </DataArray>
      </Points>
      <Cells>
        <DataArray type="Int64" Name="connectivity" format="ascii" RangeMin="0" RangeMax="111">
          40 68 69 70 71 40
          69 70 68 40 72 70
          40 73 72 70 40 71
          74 70 73 40 74 70
          34 40 75 76 40 71
          75 76 77 34 75 76
          40 34 78 76 34 79
          78 76 73 40 78 76
          71 40 74 76 40 73
          74 76 34 77 80 76
          79 34 80 76 36 81
          44 82 81 68 44 82
          68 40 44 82 40 36
          44 82 81 36 83 82
          36 62 83 82 73 40
          72 82 40 68 72 82
          36 40 52 82 40 73
          52 82 62 36 52 82
          26 36 28 49 36 40
          28 49 40 34 28 49
          34 26 28 49 36 26
          47 49 26 57 47 49
          57 62 47 49 62 36
          47 49 40 36 52 49
          36 62 52 49 73 40
          52 49 40 73 78 49
          79 34 78 49 34 40
          78 49 26 34 46 49
          34 79 46 49 79 57
          46 49 57 26 46 49
          39 65 84 85 86 39
          84 85 65 39 59 85
          39 68 59 85 39 86
          87 85 68 39 87 85
          20 39 38 88 39 86
          38 88 86 89 38 88
          89 20 38 88 39 20
          37 88 20 40 37 88
          40 68 37 88 68 39
          37 88 86 39 87 88
          39 68 87 88 20 89
          90 88 71 40 90 88
          40 20 90 88 68 40
          69 88 40 71 69 88
          13 20 91 92 20 89
          91 92 93 13 91 92
          20 13 23 92 13 34
          23 92 34 40 23 92
          40 20 23 92 89 20
          90 92 20 40 90 92
          40 71 90 92 13 93
          94 92 77 34 94 92
          34 13 94 92 40 34
          75 92 34 77 75 92
          71 40 75 92 33 63
          50 55 65 39 50 55
          39 33 50 55 63 33
          53 55 33 81 53 55
          68 39 59 55 39 65
          59 55 33 39 41 55
          39 68 41 55 68 81
          41 55 81 33 41 55
          12 33 21 31 33 39
          21 31 39 20 21 31
          20 12 21 31 33 12
          27 31 12 36 27 31
          36 81 27 31 81 33
          27 31 39 33 41 31
          33 81 41 31 81 68
          41 31 68 39 41 31
          39 68 37 31 68 40
          37 31 40 20 37 31
          20 39 37 31 12 20
          22 31 20 40 22 31
          40 36 22 31 36 12
          22 31 81 36 44 31
          36 40 44 31 40 68
          44 31 68 81 44 31
          6 12 9 18 12 20
          9 18 20 13 9 18
          13 6 9 18 12 6
          15 18 6 26 15 18
          26 36 15 18 36 12
          15 18 20 12 22 18
          12 36 22 18 36 40
          22 18 40 20 22 18
          20 40 23 18 40 34
          23 18 34 13 23 18
          13 20 23 18 6 13
          14 18 13 34 14 18
          34 26 14 18 26 6
          14 18 36 26 28 18
          26 34 28 18 34 40
          28 18 40 36 28 18
          35 64 54 56 95 35
          54 56 64 35 51 56
          35 39 51 56 39 65
          51 56 35 95 45 56
          95 86 45 56 86 39
          45 56 39 35 45 56
          65 39 84 56 39 86
          84 56 11 35 29 32
          35 95 29 32 95 96
          29 32 96 11 29 32
          35 11 24 32 11 20
          24 32 20 39 24 32
          39 35 24 32 95 35
          45 32 35 39 45 32
          39 86 45 32 86 95
          45 32 95 86 97 32
          86 89 97 32 89 96
          97 32 96 95 97 32
          11 96 98 32 96 89
          98 32 89 20 98 32
          20 11 98 32 39 20
          38 32 20 89 38 32
          89 86 38 32 86 39
          38 32 7 11 99 100
          11 96 99 100 101 7
          99 100 11 7 10 100
          7 13 10 100 13 20
          10 100 20 11 10 100
          96 11 98 100 11 20
          98 100 20 89 98 100
          7 101 102 100 93 13
          102 100 13 7 102 100
          20 13 91 100 13 93
          91 100 89 20 91 100
          25 58 42 48 58 64
          42 48 64 35 42 48
          35 25 42 48 58 25
          43 48 25 33 43 48
          33 63 43 48 63 58
          43 48 64 58 60 48
          58 63 60 48 63 65
          60 48 65 64 60 48
          64 65 51 48 65 39
          51 48 39 35 51 48
          35 64 51 48 25 35
          30 48 35 39 30 48
          39 33 30 48 33 25
          30 48 63 33 50 48
          33 39 50 48 39 65
          50 48 65 63 50 48
          5 25 16 19 25 35
          16 19 35 11 16 19
          11 5 16 19 25 5
          17 19 5 12 17 19
          12 33 17 19 33 25
          17 19 35 25 30 19
          25 33 30 19 33 39
          30 19 39 35 30 19
          35 39 24 19 39 20
          24 19 20 11 24 19
          11 35 24 19 5 11
          8 19 11 20 8 19
          20 12 8 19 12 5
          8 19 33 12 21 19
          12 20 21 19 20 39
          21 19 39 33 21 19
          0 5 1 4 5 11
          1 4 11 7 1 4
          7 0 1 4 5 0
          3 4 0 6 3 4
          6 12 3 4 12 5
          3 4 11 5 8 4
          5 12 8 4 12 20
          8 4 20 11 8 4
          11 20 10 4 20 13
          10 4 13 7 10 4
          7 11 10 4 0 7
          2 4 7 13 2 4
          13 6 2 4 6 0
          2 4 12 6 9 4
          6 13 9 4 13 20
          9 4 20 12 9 4
          62 103 83 82 73 62
          52 82 103 62 104 82
          62 73 104 82 62 73
          52 49 73 79 78 49
          62 57 61 49 57 79
          61 49 79 73 61 49
          73 62 61 49 65 105
          84 85 68 106 59 85
          106 65 59 85 105 65
          107 85 65 106 107 85
          63 65 50 55 81 108
          53 55 108 63 53 55
          65 63 67 55 63 108
          67 55 108 106 67 55
          106 65 67 55 65 106
          59 55 106 68 59 55
          108 81 109 55 81 68
          109 55 68 106 109 55
          106 108 109 55 64 110
          54 56 110 95 54 56
          65 64 51 56 110 64
          66 56 64 65 66 56
          65 105 66 56 105 110
          66 56 110 105 111 56
          105 86 111 56 86 95
          111 56 95 110 111 56
          86 105 84 56 105 65
          84 56
        </DataArray>
        <DataArray type="Int64" Name="offsets" format="ascii" RangeMin="4" RangeMax="1220">
          4 8 12 16 20 24
          28 32 36 40 44 48
          52 56 60 64 68 72
          76 80 84 88 92 96
          100 104 108 112 116 120
          124 128 132 136 140 144
          148 152 156 160 164 168
          172 176 180 184 188 192
          196 200 204 208 212 216
          220 224 228 232 236 240
          244 248 252 256 260 264
          268 272 276 280 284 288
          292 296 300 304 308 312
          316 320 324 328 332 336
          340 344 348 352 356 360
          364 368 372 376 380 384
          388 392 396 400 404 408
          412 416 420 424 428 432
          436 440 444 448 452 456
          460 464 468 472 476 480
          484 488 492 496 500 504
          508 512 516 520 524 528
          532 536 540 544 548 552
          556 560 564 568 572 576
          580 584 588 592 596 600
          604 608 612 616 620 624
          628 632 636 640 644 648
          652 656 660 664 668 672
          676 680 684 688 692 696
          700 704 708 712 716 720
          724 728 732 736 740 744
          748 752 756 760 764 768
          772 776 780 784 788 792
          796 800 804 808 812 816
          820 824 828 832 836 840
          844 848 852 856 860 864
          868 872 876 880 884 888
          892 896 900 904 908 912
          916 920 924 928 932 936
          940 944 948 952 956 960
          964 968 972 976 980 984
          988 992 996 1000 1004 1008
          1012 1016 1020 1024 1028 1032
          1036 1040 1044 1048 1052 1056
          1060 1064 1068 1072 1076 1080
          1084 1088 1092 1096 1100 1104
          1108 1112 1116 1120 1124 1128
          1132 1136 1140 1144 1148 1152
          1156 1160 1164 1168 1172 1176
          1180 1184 1188 1192 1196 1200
          1204 1208 1212 1216 1220
        </DataArray>
        <DataArray type="UInt8" Name="types" format="ascii" RangeMin="10" RangeMax="10">
          10 10 10 10 10 10
          10 10 10 10 10 10
          10 10 10 10 10 10
          10 10 10 10 10 10
          10 10 10 10 10 10
          10 10 10 10 10 10
          10 10 10 10 10 10
          10 10 10 10 10 10
          10 10 10 10 10 10
          10 10 10 10 10 10
          10 10 10 10 10 10
          10 10 10 10 10 10
          10 10 10 10 10 10
          10 10 10 10 10 10
          10 10 10 10 10 10
          10 10 10 10 10 10
          10 10 10 10 10 10
          10 10 10 10 10 10
          10 10 10 10 10 10
          10 10 10 10 10 10
          10 10 10 10 10 10
          10 10 10 10 10 10
          10 10 10 10 10 10
          10 10 10 10 10 10
          10 10 10 10 10 10
          10 10 10 10 10 10
          10 10 10 10 10 10
          10 10 10 10 10 10
          10 10 10 10 10 10
          10 10 10 10 10 10
          10 10 10 10 10 10
          10 10 10 10 10 10
          10 10 10 10 10 10
          10 10 10 10 10 10
          10 10 10 10 10 10
          10 10 10 10 10 10
          10 10 10 10 10 10
          10 10 10 10 10 10
          10 10 10 10 10 10
          10 10 10 10 10 10
          10 10 10 10 10 10
          10 10 10 10 10 10
          10 10 10 10 10 10
          10 10 10 10 10 10
          10 10 10 10 10 10
          10 10 10 10 10 10
          10 10 10 10 10 10
          10 10 10 10 10 10
          10 10 10 10 10 10
          10 10 10 10 10 10
          10 10 10 10 10
        </DataArray>
      </Cells>
    </Piece>
  </UnstructuredGrid>
</VTKFile>
