<?xml version="1.0"?>
<VTKFile type="UnstructuredGrid" version="0.1" byte_order="LittleEndian" header_type="UInt32" compressor="vtkZLibDataCompressor">
  <UnstructuredGrid>
    <Piece NumberOfPoints="15" NumberOfCells="16">
      <PointData>
        <DataArray type="Float64" Name="Displacement" NumberOfComponents="3" format="ascii" RangeMin="0" RangeMax="1.5280496097569024e-9">
          0 0 0 0 0 0
          0 0 0 -5.7242593477779824e-11 -1.5269770448078646e-9 0
          0 0 0 0 0 0
          5.5834952113198444e-11 -1.5091862204386075e-9 0 0 0 0
          0 0 0 1.4574869169869107e-12 -1.5111559226177462e-9 0
          0 0 0 0 0 0
          0 0 0 0 0 0
          0 0 0
          <InformationKey name="L2_NORM_RANGE" location="vtkDataArray" length="2">
            <Value index="0">
              0
            </Value>
            <Value index="1">
              1.5280496098e-09
            </Value>
          </InformationKey>
        </DataArray>
        <DataArray type="Float64" Name="Velocity" NumberOfComponents="3" format="ascii" RangeMin="0" RangeMax="6.11219843902761e-9">
          0 0 0 0 0 0
          0 0 0 -2.289703739111193e-10 -6.107908179231458e-9 0
          0 0 0 0 0 0
          2.2333980845279378e-10 -6.03674488175443e-9 0 0 0 0
          0 0 0 5.829947667947643e-12 -6.044623690470985e-9 0
          0 0 0 0 0 0
          0 0 0 0 0 0
          0 0 0
          <InformationKey name="L2_NORM_RANGE" location="vtkDataArray" length="2">
            <Value index="0">
              0
            </Value>
            <Value index="1">
              6.112198439e-09
            </Value>
          </InformationKey>
        </DataArray>
        <DataArray type="Float64" Name="Acceleration" NumberOfComponents="3" format="ascii" RangeMin="0" RangeMax="0.9089393464897838">
          0 0 0 0 0 0
          0 0 0 0.05321435817114353 0.9073802773268265 0
          0 0 0 0 0 0
          -0.0540979791128266 0.9044821648591943 0 0 0 0
          0 0 0 -0.000039953730284302264 0.8088854406416215 0
          0 0 0 0 0 0
          0 0 0 0 0 0
          0 0 0
          <InformationKey name="L2_NORM_RANGE" location="vtkDataArray" length="2">
            <Value index="0">
              0
            </Value>
            <Value index="1">
              0.90893934649
            </Value>
          </InformationKey>
        </DataArray>
      </PointData>
      <CellData>
        <DataArray type="UInt8" Name="vtkGhostType" format="ascii" RangeMin="0" RangeMax="0">
          0 0 0 0 0 0
          0 0 0 0 0 0
          0 0 0 0
        </DataArray>
        <DataArray type="Float64" Name="Stress" NumberOfComponents="6" format="ascii" RangeMin="0.30236602140971097" RangeMax="6.274839705718303">
          0.5397880339553677 1.6324893723993683 0 2.3944920544938966 0 0
          1.0288347287866344 4.373256294368617 0 -1.800697007718418 0 0
          -1.2224434358548482 -6.119809060362636 0 -0.6535919547376293 0 0
          1.0075402997767786 4.806425227890202 0 0.5860461678979036 0 0
          -0.08134158563991836 -1.2772492567808869 0 -1.941413666705277 0 0
          -0.7179105055765771 -3.5730143515913477 0 1.430308277922353 0 0
          1.027819062439632 4.360334849152847 0 1.796051308416461 0 0
          0.5459264561259359 1.6594077658193378 0 -2.434525900730833 0 0
          -1.224748415161025 -6.116155511388382 0 0.6578531449470668 0 0
          0.9931181640838938 4.740468741497908 0 -0.5770904712271892 0 0
          -0.7121067163566017 -3.577097044352189 0 -1.4297345908165802 0 0
          -0.07766625440377622 -1.2562362332351211 0 1.909939863283142 0 0
          0.5303967547280031 4.030644842282509 0 -0.027694919256911282 0 0
          -0.42274944839631823 -2.117616800848713 0 -1.3768312534283533 0 0
          -0.42086886710018717 -2.0739880543122284 0 1.371992896092579 0 0
          -0.2912705699382216 -0.07818203954435683 0 -0.021776930079466694 0 0
          <InformationKey name="L2_NORM_RANGE" location="vtkDataArray" length="2">
            <Value index="0">
              0.30236602141
            </Value>
            <Value index="1">
              6.2748397057
            </Value>
          </InformationKey>
        </DataArray>
        <DataArray type="Float64" Name="Strain" NumberOfComponents="6" format="ascii" RangeMin="1.4062619357062114e-10" RangeMax="3.0405576242895993e-9">
          1.0664507973774693e-10 7.622658828041474e-10 0 2.873390465392675e-9 0 0
          7.709173495645555e-11 2.0837446743056455e-9 0 -2.1608364092621012e-9 0 0
          7.591881088394762e-13 -2.9376601865958323e-9 0 -7.843103456851551e-10 0 0
          2.312762709936899e-11 2.302458583967423e-9 0 7.032554014774842e-10 0 0
          8.705413285812953e-11 -6.304904698264517e-10 0 -2.329696400046332e-9 0 0
          -1.6538176291536278e-12 -1.714716125238016e-9 0 1.7163699335068234e-9 0 0
          7.787604630453126e-11 2.07738551833246e-9 0 2.1552615700997526e-9 0 0
          1.0702245148103418e-10 7.751112372970753e-10 0 -2.921431080876999e-9 0 0
          -7.586564416740666e-13 -2.9356029141780893e-9 0 7.894237739364798e-10 0 0
          2.2512207892156247e-11 2.270922554340564e-9 0 -6.925085654726267e-10 0 0
          1.6563462569180335e-12 -1.7173378505404338e-9 0 -1.7156815089798956e-9 0 0
          8.6790496121624e-11 -6.203514911771829e-10 0 2.2919278359397698e-9 0 0
          -1.3786610686424934e-10 1.9622827456684534e-9 0 -3.323390310829354e-11 0 0
          3.869558867122064e-13 -1.0165334555847247e-9 0 -1.6521975041140235e-9 0 0
          -3.0356281188707364e-12 -9.949071404460953e-10 0 1.6463914753110941e-9 0 0
          -1.378170810146751e-10 -9.96396277835626e-12 0 -2.613231609536002e-11 0 0
          <InformationKey name="L2_NORM_RANGE" location="vtkDataArray" length="2">
            <Value index="0">
              1.4062619357e-10
            </Value>
            <Value index="1">
              3.0405576243e-09
            </Value>
          </InformationKey>
        </DataArray>
      </CellData>
      <Points>
        <DataArray type="Float32" Name="Points" NumberOfComponents="3" format="ascii" RangeMin="0.4625816574048465" RangeMax="1">
          0.5 0.8660253882408142 0 1.751049527598525e-9 1 0
          0.8660253882408142 0.5 0 0.4018464684486389 0.22913141548633575 0
          1 0 0 -0.5 0.8660253882408142 0
          -0.41845273971557617 0.22330626845359802 0 -0.8660253882408142 0.5 0
          0.8660253882408142 -0.5 0 -0.0006726980209350586 -0.48541173338890076 0
          0.5 -0.8660253882408142 0 -1 1.1588743298318605e-9 0
          -0.8660253882408142 -0.5 0 -5.794361657152081e-10 -1 0
          -0.5 -0.8660253882408142 0
          <InformationKey name="L2_NORM_RANGE" location="vtkDataArray" length="2">
            <Value index="0">
              0.4625816574
            </Value>
            <Value index="1">
              1
            </Value>
          </InformationKey>
        </DataArray>
      </Points>
      <Cells>
        <DataArray type="Int64" Name="connectivity" format="ascii" RangeMin="0" RangeMax="14">
          4 2 3 5 7 6
          14 13 9 0 1 3
          11 12 6 10 8 9
          2 0 3 7 11 6
          13 10 9 1 5 6
          12 14 9 8 4 3
          1 6 3 12 9 6
          8 3 9 3 6 9
        </DataArray>
        <DataArray type="Int64" Name="offsets" format="ascii" RangeMin="3" RangeMax="48">
          3 6 9 12 15 18
          21 24 27 30 33 36
          39 42 45 48
        </DataArray>
        <DataArray type="UInt8" Name="types" format="ascii" RangeMin="5" RangeMax="5">
          5 5 5 5 5 5
          5 5 5 5 5 5
          5 5 5 5
        </DataArray>
      </Cells>
    </Piece>
  </UnstructuredGrid>
</VTKFile>
