<?xml version="1.0"?>
<VTKFile type="UnstructuredGrid" version="0.1" byte_order="LittleEndian" header_type="UInt32" compressor="vtkZLibDataCompressor">
  <UnstructuredGrid>
    <Piece NumberOfPoints="64" NumberOfCells="27">
      <PointData>
        <DataArray type="Float64" Name="Velocity" NumberOfComponents="3" format="ascii" RangeMin="0" RangeMax="0.019609578879955576">
          0 0 0 0 0 0
          0 0 0 0 0 0
          0 0 0 0 0 0
          0.019609578879955566 0 0 -0.004926946218578986 -0.00034168815208622354 -0.002073625984736571
          0 0 0 0 0 0
          0 0 0 0 0 0
          0 0 0 0 0 0
          0.019609578879955576 0 0 0 0 0
          0.019609578879955555 0 0 0.00034467557072809376 0.000057536060880220406 -0.000033966443614023865
          -0.004926865501344606 0.00034179423402747104 -0.0020735452674992606 -0.004926538026967253 0.00034176435150224456 0.0020735623986310125
          0.019609578879955562 0 0 0 0 0
          0 0 0 0 0 0
          0 0 0 0 0 0
          -0.004926519695409229 -0.0003417573183545699 0.00207355285846977 0.0003446660305535691 -0.000057529027764732426 -0.00003394811202845198
          0.000344563924286126 -0.00005753049127433032 0.00003392926715034522 0 0 0
          0 0 0 0 0 0
          0 0 0 0 0 0
          0 0 0 0 0 0
          0 0 0 0 0 0
          0.0003445693618704806 0.000057541626982214794 0.00003393470475268379 0 0 0
          0 0 0 0 0 0
          0 0 0 0 0 0
          0 0 0 0 0 0
          0 0 0 0 0 0
          0 0 0 0 0 0
          0 0 0 0 0 0
          0 0 0 0 0 0
          0 0 0 0 0 0
          0 0 0 0 0 0
          0 0 0 0 0 0
          0 0 0 0 0 0
          0 0 0 0 0 0
          <InformationKey name="L2_NORM_RANGE" location="vtkDataArray" length="2">
            <Value index="0">
              0
            </Value>
            <Value index="1">
              0.01960957888
            </Value>
          </InformationKey>
        </DataArray>
        <DataArray type="Float64" Name="Pressure" format="ascii" RangeMin="-0.13013066267596596" RangeMax="0.03355919927224185">
          0 -0.021387176475023986 0.03355919927224185 -0.0243364389946661 -0.019043805965634836 -0.034713128307014104
          -0.008412094627333548 -0.033560517028137345 -0.03845192324927101 0.03355917907609542 -0.07223428231889037 -0.038886895712836315
          -0.043261180111273057 -0.061856466002083624 -0.00841403881004436 -0.019045750148544215 -0.08815749968180168 -0.043069487277774834
          -0.03356118712382688 -0.06301030908929217 -0.088157632855696 -0.03888702888637908 -0.05331049155475334 -0.04241776650445059
          -0.000024256961703963358 -0.09654761384131863 -0.06301058650533144 -0.04306976469354042 -0.053502286351476795 -0.07518410849628246
          -0.0453958732784628 -0.04195682135640928 -0.021387760329237452 -0.024337022848895638 -0.1301304842437666 -0.07752605624443741
          -0.04543017532918237 -0.03471534039118777 -0.053502428966870456 -0.04195699978797079 -0.07223502440926372 -0.13013066267596596
          -0.05811956035065574 -0.05117617397932199 -0.03845266533866736 -0.0775261601133599 -0.05768501454908403 -0.04326155188068653
          -0.06185683777216506 -0.05114200283417057 -0.04543027919729257 -0.05768511255674261 -0.05331082815844525 -0.05114210084159662
          -0.05415432585494627 -0.042417988060760456 -0.09654783539818558 -0.04539614649714495 -0.05461532068844077 -0.07518438171567275
          -0.05117634756365843 -0.05461539948558505 -0.05811973393501593 -0.054154494664087026
        </DataArray>
        <DataArray type="Float64" Name="stream" format="ascii" RangeMin="-0.0008238330408673967" RangeMax="0.007995121045569232">
          0 0.00003421434033790317 0 -0.0006139377219808185 0.00004470841954324411 -0.00003728963751602912
          0.0003627599268026148 0.0000426148225346388 0.00012882962341552088 0.00033878409884179 -0.0008238330408673967 0.0002291652622717456
          0.00011277327929066735 -0.00038995997813184396 0.001101474514866586 0.0005524550206417618 0.0002846679639075104 0.0002090415421774222
          0.0004911174376115629 -0.00020719905649481564 0.002079293871570179 0.0007485021656507565 0.0001466197629494543 0.00018923056615523535
          0.0014585944254243944 -0.0008238330408673967 0.0007852380360496979 0.0008048940564267612 0.00019821742978697415 -0.0003012992512533379
          0.0002425779053159212 0.0005488138377300968 0.0008865835117776532 0.0019386162417866222 -0.000060647401796192384 -0.00022791441400993057
          0.0004063442155780731 0.0011403689918915735 0.0008517808975217697 0.0012519244685690889 0.004290737913415351 0.003854617601094417
          0.0001307382595919802 0.0002588734149730083 0.0011231079277364896 0.00036019964464172825 0.00016355558344561803 0.0013783258433377641
          0.001795775576693463 0.00045012653776156766 0.001081307455372197 0.000974764893428485 0.0016576987018632233 0.0011420326398519256
          0.0002588734149730083 0.0015954518278332196 0.007995121045569232 0.0015118001788970274 0.00036744193976086725 0.0018637576204809363
          0.0017677837037052813 0.001042166612890264 0.0020868534695521385 0.0017734394872651502
        </DataArray>
        <DataArray type="Float64" Name="Sigma" NumberOfComponents="6" format="ascii" RangeMin="1.5482351236807755e-7" RangeMax="0.0013078489045600353">
          3.8050763221034104e-7 -0.0000018447320839939573 1.3503248992727968e-8 1.1863230553801591e-7 -7.459759620999689e-8 0.0000012173318134070176
          1.53780962616604e-7 3.146978498830199e-7 -1.5154748285346337e-8 -5.127425460123216e-7 2.1950961875012166e-8 -1.7840361026298155e-7
          -0.0013078457077892196 9.191235395817308e-7 0.000002000365753664665 5.343108241554319e-8 0.0000017755679604563661 6.000237558326345e-7
          -5.966710411224402e-7 -7.894859667451361e-7 -1.3619153881316353e-9 7.683587600557987e-9 2.902735758122823e-7 0.0006961242287320069
          0.00033596793311229945 -1.568019019317258e-7 -0.0000012027836179685306 -2.531307818778702e-7 0.0002073529372878926 0.00003656258515099616
          -7.931180712345101e-7 -0.000040195830319084075 1.2275812515455471e-8 -0.00012451706878765863 -1.5358849509569464e-7 -0.00023614365011098912
          -0.0006465560879099964 3.9565851547573843e-7 0.00019377299535144104 0.00003064038334683232 0.0010512476308646983 0.0003470019481987945
          0.00017118786855640895 0.000020101521968317445 -0.000022683921721185107 -0.00006850311424372488 0.00012349684052571938 -0.00013618772642975529
          -3.118772360344089e-8 -4.878760522823111e-8 7.872640509261331e-9 2.408736839903322e-7 3.6781530857266233e-9 7.89546907214768e-8
          -0.0013078457077809887 9.19123548910558e-7 0.000002000365759905943 -5.343107518529677e-8 0.0000017755679510549562 -6.000237546512043e-7
          -3.41971462996757e-7 7.875756359274296e-7 4.465759565507305e-9 -1.0666567412551984e-8 -1.266724197584038e-7 0.0006957972289353088
          -0.000022060209352452284 2.4220223523689706e-8 2.411620008817291e-7 1.203204661800599e-7 0.000012104028376464301 -0.00000650041973955987
          1.738596500114696e-7 0.00000675510609709097 -1.501936948299792e-8 -0.000007297441701196975 1.7818950386957125e-8 0.000006516422589713662
          -8.970481367262386e-7 0.00004020192431070119 -7.858771577703483e-9 0.00012451077630079067 1.8163297120894103e-7 -0.00023606020259649718
          -0.0006465560879221061 3.9565851108407954e-7 0.00019376568645309766 -0.00003065039842118983 0.0010512396530598042 -0.000347001948200781
          0.0003359606242106518 -1.5680189951766184e-7 -0.0000012027836315883107 2.531307822498906e-7 0.00020734495947521302 -0.00003657260022346324
          0.0006532743489932793 -3.92907516612584e-7 -0.00019378081038637723 -0.000030649981734573834 0.001052998817486093 0.00034730525105841414
          -0.000011596392987935329 -0.000003377127644590769 -0.00009618138136765338 -0.00001897215484048348 -0.00024131594194893116 0.000006488539715860413
          0.00017118795725337683 0.00002009770301870581 -0.00002268383302618367 0.00006850889267148937 0.00012349969358767439 0.00013619350485662287
          -0.0001643368189983844 -0.000020100053594742316 0.00002266792745917975 0.0000685090411299732 0.00012206371930476892 -0.00013625390066860843
          0.0006532743490014847 -3.929075162045696e-7 -0.00019377976403026586 0.000030649573810619473 0.0010529971881361746 -0.00034730525105791654
          -0.000022059162990049117 2.4220216047968327e-8 2.41162009709358e-7 -1.2032046974707688e-7 0.000012102399034528766 0.000006500011817573085
          1.9306477260616262e-7 -0.000006755238725789239 9.171628123207955e-10 0.000007293529986457692 -3.9861015212518585e-8 0.000006495358681143719
          1.583931191265449e-8 2.20648507639999e-9 -3.5920198858890214e-9 -1.4549912312257654e-7 -3.426416947259816e-9 -5.561246732640396e-8
          3.8050762574105846e-7 -0.0000018447320927271736 1.3503251672732192e-8 -1.1863230859713336e-7 -7.459759127421399e-8 -0.0000012173318107261425
          5.582655908593115e-7 0.0000018484269467994325 2.040684908859714e-8 -1.1732649177008723e-7 -3.2026401870533424e-8 0.0000011177641821939564
          -0.0001643331645570581 -0.000020100306788111836 0.00002266755197036196 -0.0000685100636561201 0.00012206766720092734 0.000136260008095314
          -0.000011596768477820287 -0.0000033773808349861206 -0.00009617772692447974 0.000018978262270207143 -0.00024131199405925054 -0.000006489562243803397
          0.00001014568211578354 0.000003377945916237405 0.00009623781527333928 0.000018977651987635086 -0.0002410392667523949 0.000006495061518734816
          1.354449574005241e-7 -3.146434561815848e-7 -1.7312678790528585e-8 5.102789394408476e-7 -6.435592653590101e-9 -1.6740937469892018e-7
          -8.822057317050447e-8 7.266546743017224e-8 5.506185868976837e-9 -4.4608613680819856e-8 -7.133475822209746e-9 -2.3034531988639463e-7
          5.348847967434712e-7 -1.0192095748526406e-9 -5.8819403166604953e-8 -7.296742486510562e-8 1.3382392161595246e-7 -2.4627164230052007e-8
          1.5378096356791877e-7 3.146978484908078e-7 -1.5154751717046678e-8 5.127425465365854e-7 2.1950956702103173e-8 1.7840361068341837e-7
          -5.966710317330414e-7 -7.894859634196158e-7 -1.361917798226866e-9 -7.683584487123009e-9 2.902735710262314e-7 -0.0006961242287389169
          0.0013032014358251678 -9.272571167347588e-7 -0.0000021445886187451245 -5.3925450838605015e-8 0.0000015838212820031917 6.447733556358115e-7
          -0.00033707554048304997 1.5728219603797655e-7 0.000001340469945687269 2.560508003031381e-7 0.00020747646778654475 0.000036579944581833286
          5.147263608111132e-7 -3.64151555775736e-8 0.000043971621186081905 0.000012539409469715121 0.00012519791483812188 -1.0607611269638963e-7
          -7.931180733762022e-7 -0.0000402034682184815 1.2275814930232789e-8 0.00012450738271755984 -1.5358848921567938e-7 0.0002361339640428707
          0.000010145158940866472 0.000003377545029396238 0.00009623729209659942 -0.000018977121768369976 -0.00024103763743529489 -0.000006494531300570618
          5.348847939483628e-7 -1.0191982708503103e-9 -5.881940342592781e-8 7.296743301747583e-8 1.3382392995580744e-7 2.4627164175944753e-8
          -3.4197146772463416e-7 7.87575634416964e-7 4.4657619565839e-9 1.066656571823827e-8 -1.2667241413072186e-7 -0.0006957972289255057
          0.0013032014358173429 -9.272571138877907e-7 -0.000002144588617830364 5.392545076287916e-8 0.0000015838212976687955 -6.447733558492139e-7
          -1.984522933423638e-8 4.9273275085516955e-8 8.360966434803524e-9 -2.3973082153993216e-7 7.809059663755027e-9 7.42534914391318e-8
          -9.571173352029761e-8 -7.249752343988811e-8 1.0220129714836835e-9 4.4986449997410085e-8 2.0769881020197297e-8 -2.2359631149312858e-7
          -3.118772183936511e-8 -4.8787600697297154e-8 7.872657166160798e-9 -2.4087367372905613e-7 3.6781621092284532e-9 -7.895469135581623e-8
          -0.00033707571786171435 1.5728219526668714e-7 0.0000013404699464097513 -2.560508007148475e-7 0.0002074736147072244 -0.00003658181536515963
          0.00002223902517966299 -2.473181338291762e-8 -3.101470431300467e-7 -1.2297274876124755e-7 0.000012080022742902083 -0.000006497973918153288
          1.7385964898293106e-7 0.000006754599710104789 -1.501937638408075e-8 0.000007295241907695195 1.7818945520428204e-8 -0.000006515277768198689
          -8.970481346879964e-7 0.00004020141792307963 -7.858773216310023e-9 -0.00012450963148131987 1.8163296612179238e-7 0.0002360580028078486
          2.1685149301523384e-7 3.628813960840383e-8 -0.000044000956841645303 -0.000012541686814298038 0.00012505307773084026 -1.1049087011917241e-7
          5.147263631623052e-7 -3.6415159126848875e-8 0.00004397144380656015 -0.000012541280258869652 0.00012519506176394466 1.060761129646942e-7
          0.00002223977614947921 -2.473181282126376e-8 -3.1014704306101287e-7 1.2297274926410203e-7 0.000012080104801832324 0.000006498874150533703
          1.9306477172512111e-7 -0.0000067560404954975305 9.171652076231983e-10 -0.000007294182496558882 -3.9861013140590955e-8 -0.00000649601119161396
          2.1685149108920373e-7 3.628814102781935e-8 -0.00004400020586863376 0.000012542587046812733 0.00012505315978645837 1.1049086999703035e-7
          9.579602498427873e-9 -2.4355928898586436e-9 -4.10058184351385e-9 1.4486860551370258e-7 -4.741349328966694e-9 -5.335176713882884e-8
          1.5839307609345625e-8 2.20647764395749e-9 -3.592044249471575e-9 1.4549911079587115e-7 -3.4264220014656127e-9 5.561246869869589e-8
          5.582655863431285e-7 0.0000018484269470643677 2.0406843558748948e-8 1.173264934071187e-7 -3.202640757866065e-8 -0.0000011177641876043204
          -8.8220570344196e-8 7.266547050947714e-8 5.506196451174738e-9 4.460861910767124e-8 -7.13347404397372e-9 2.3034531947521347e-7
          -6.30746334471126e-7 1.2641513914443033e-9 9.150778319842486e-8 7.419941914961184e-8 1.4133501420195016e-7 -2.5590782369045033e-8
          1.3544496032068614e-7 -3.1464345559003066e-7 -1.7312675087574326e-8 -5.102789393914703e-7 -6.43558824163367e-9 1.6740937619941435e-7
          -9.571173382523393e-8 -7.249752452948629e-8 1.0220091225791064e-9 -4.4986451966295806e-8 2.0769881749387838e-8 2.235963118264519e-7
          -6.307463343368292e-7 1.264150790412831e-9 9.150778262206205e-8 -7.419941943152845e-8 1.4133501250002926e-7 2.5590781823125115e-8
          -1.984523001164332e-8 4.927327457536621e-8 8.360963518313333e-9 2.397308217400245e-7 7.809057478992958e-9 -7.425349179003025e-8
          9.579603361713563e-9 -2.435592305326698e-9 -4.100579481878784e-9 -1.448686057103965e-7 -4.741349024644046e-9 5.3351767767292626e-8
          <InformationKey name="L2_NORM_RANGE" location="vtkDataArray" length="2">
            <Value index="0">
              1.5482351237e-07
            </Value>
            <Value index="1">
              0.0013078489046
            </Value>
          </InformationKey>
        </DataArray>
      </PointData>
      <CellData>
        <DataArray type="UInt8" Name="vtkGhostType" format="ascii" RangeMin="0" RangeMax="0">
          0 0 0 0 0 0
          0 0 0 0 0 0
          0 0 0 0 0 0
          0 0 0 0 0 0
          0 0 0
        </DataArray>
        <DataArray type="Float64" Name="NN-Viscosity" format="ascii" RangeMin="0.00000184552039518227" RangeMax="0.00008355418980214344">
          0.0000018455203952481075 0.00002065952840633408 0.00003017344929368343 0.0000033522304691773244 0.000038765467680386 0.00005429678079003974
          0.00000184552039518227 0.000020659528406002967 0.000030173449293554974 0.0000027410271073939375 0.000027594725775965294 0.00005086761904302011
          0.000004161294255408653 0.000026885609090234718 0.00008355418980214344 0.00000274102710740747 0.000027594725775760536 0.0000508676190431463
          0.0000018498917964323044 0.000020589914246840226 0.00003015022451494532 0.0000033679125298933076 0.000038871258751132385 0.00005416692456713651
          0.0000018498917964356563 0.000020589914247049772 0.000030150224515225057
        </DataArray>
      </CellData>
      <Points>
        <DataArray type="Float32" Name="Points" NumberOfComponents="3" format="ascii" RangeMin="0" RangeMax="1.7320508075688772">
          1 0 1 1 0 0.6666666865348816
          1 0.3333333134651184 1 0.6666666865348816 0 1
          1 0.3333333134651184 0.6666666865348816 0.6666666865348816 0 0.6666666865348816
          0.6666666865348816 0.3333333134651184 1 0.6666666865348816 0.3333333134651184 0.6666666865348816
          1 0 0.3333333134651184 1 0.6666666865348816 1
          0.3333333134651184 0 1 1 0.3333333134651184 0.3333333134651184
          0.6666666865348816 0 0.3333333134651184 0.3333333134651184 0 0.6666666865348816
          0.6666666865348816 0.6666666865348816 1 1 0.6666666865348816 0.6666666865348816
          0.3333333134651184 0.3333333134651184 1 0.6666666865348816 0.3333333134651184 0.3333333134651184
          0.6666666865348816 0.6666666865348816 0.6666666865348816 0.3333333134651184 0.3333333134651184 0.6666666865348816
          0.3333333134651184 0.6666666865348816 1 1 0.6666666865348816 0.3333333134651184
          0.3333333134651184 0 0.3333333134651184 1 0 0
          1 1 1 0 0 1
          0.3333333134651184 0.6666666865348816 0.6666666865348816 0.6666666865348816 0.6666666865348816 0.3333333134651184
          0.3333333134651184 0.3333333134651184 0.3333333134651184 0 0 0.6666666865348816
          0.6666666865348816 0 0 1 0.3333333134651184 0
          1 1 0.6666666865348816 0.6666666865348816 1 1
          0 0.3333333134651184 1 0 0.3333333134651184 0.6666666865348816
          0.6666666865348816 0.3333333134651184 0 0.6666666865348816 1 0.6666666865348816
          0.3333333134651184 0.6666666865348816 0.3333333134651184 1 0.6666666865348816 0
          0.3333333134651184 1 1 0 0.6666666865348816 1
          0 0 0.3333333134651184 0.3333333134651184 0 0
          1 1 0.3333333134651184 0 0.6666666865348816 0.6666666865348816
          0 0.3333333134651184 0.3333333134651184 0.6666666865348816 1 0.3333333134651184
          0.3333333134651184 1 0.6666666865348816 0.3333333134651184 0.3333333134651184 0
          0.6666666865348816 0.6666666865348816 0 0 0.6666666865348816 0.3333333134651184
          0.3333333134651184 1 0.3333333134651184 0.3333333134651184 0.6666666865348816 0
          0 0 0 1 1 0
          0 1 1 0.6666666865348816 1 0
          0 0.3333333134651184 0 0 1 0.6666666865348816
          0.3333333134651184 1 0 0 0.6666666865348816 0
          0 1 0.3333333134651184 0 1 0
          <InformationKey name="L2_NORM_RANGE" location="vtkDataArray" length="2">
            <Value index="0">
              0
            </Value>
            <Value index="1">
              1.7320508076
            </Value>
          </InformationKey>
        </DataArray>
      </Points>
      <Cells>
        <DataArray type="Int64" Name="connectivity" format="ascii" RangeMin="0" RangeMax="63">
          28 49 43 22 46 58
          54 42 19 28 22 13
          35 46 42 29 16 19
          13 10 34 35 29 25
          38 53 49 28 51 61
          58 46 26 38 28 19
          45 51 46 35 20 26
          19 16 41 45 35 34
          52 60 53 38 62 63
          61 51 48 52 38 26
          59 62 51 45 40 48
          26 20 56 59 45 41
          17 36 30 12 28 49
          43 22 7 17 12 5
          19 28 22 13 6 7
          5 3 16 19 13 10
          27 50 36 17 38 53
          49 28 18 27 17 7
          26 38 28 19 14 18
          7 6 20 26 19 16
          47 57 50 27 52 60
          53 38 37 47 27 18
          48 52 38 26 33 37
          18 14 40 48 26 20
          11 31 23 8 17 36
          30 12 4 11 8 1
          7 17 12 5 2 4
          1 0 6 7 5 3
          21 39 31 11 27 50
          36 17 15 21 11 4
          18 27 17 7 9 15
          4 2 14 18 7 6
          44 55 39 21 47 57
          50 27 32 44 21 15
          37 47 27 18 24 32
          15 9 33 37 18 14
        </DataArray>
        <DataArray type="Int64" Name="offsets" format="ascii" RangeMin="8" RangeMax="216">
          8 16 24 32 40 48
          56 64 72 80 88 96
          104 112 120 128 136 144
          152 160 168 176 184 192
          200 208 216
        </DataArray>
        <DataArray type="UInt8" Name="types" format="ascii" RangeMin="12" RangeMax="12">
          12 12 12 12 12 12
          12 12 12 12 12 12
          12 12 12 12 12 12
          12 12 12 12 12 12
          12 12 12
        </DataArray>
      </Cells>
    </Piece>
  </UnstructuredGrid>
</VTKFile>
