<?xml version="1.0"?>
<VTKFile type="UnstructuredGrid" version="0.1" byte_order="LittleEndian" header_type="UInt32" compressor="vtkZLibDataCompressor">
  <UnstructuredGrid>
    <Piece NumberOfPoints="126" NumberOfCells="100">
      <PointData>
        <DataArray type="Float64" Name="tem_BC" format="ascii" RangeMin="300" RangeMax="600">
          600 450 450 600 450 450
          450 450 600 450 450 450
          450 450 300 300 450 600
          450 450 300 450 450 300
          600 450 450 450 450 300
          600 450 450 450 450 300
          600 450 450 450 450 300
          600 450 450 450 450 300
          600 450 450 450 450 300
          600 450 450 450 450 300
          600 450 450 450 450 300
          600 450 450 450 450 300
          600 450 450 450 450 300
          600 450 450 450 450 300
          600 450 450 450 450 300
          600 450 450 450 450 300
          600 450 450 450 450 300
          600 450 450 450 450 300
          600 450 450 450 450 300
          600 450 450 450 450 300
          600 450 450 450 450 300
        </DataArray>
        <DataArray type="Float64" Name="tem_FIXNO" format="ascii" RangeMin="0" RangeMax="1">
          1 0 0 1 0 0
          0 0 1 0 0 0
          0 0 1 1 0 1
          0 0 1 0 0 1
          1 0 0 0 0 1
          1 0 0 0 0 1
          1 0 0 0 0 1
          1 0 0 0 0 1
          1 0 0 0 0 1
          1 0 0 0 0 1
          1 0 0 0 0 1
          1 0 0 0 0 1
          1 0 0 0 0 1
          1 0 0 0 0 1
          1 0 0 0 0 1
          1 0 0 0 0 1
          1 0 0 0 0 1
          1 0 0 0 0 1
          1 0 0 0 0 1
          1 0 0 0 0 1
          1 0 0 0 0 1
        </DataArray>
      </PointData>
      <CellData>
        <DataArray type="UInt8" Name="vtkGhostType" format="ascii" RangeMin="0" RangeMax="0">
          0 0 0 0 0 0
          0 0 0 0 0 0
          0 0 0 0 0 0
          0 0 0 0 0 0
          0 0 0 0 0 0
          0 0 0 0 0 0
          0 0 0 0 0 0
          0 0 0 0 0 0
          0 0 0 0 0 0
          0 0 0 0 0 0
          0 0 0 0 0 0
          0 0 0 0 0 0
          0 0 0 0 0 0
          0 0 0 0 0 0
          0 0 0 0 0 0
          0 0 0 0 0 0
          0 0 0 0
        </DataArray>
      </CellData>
      <Points>
        <DataArray type="Float32" Name="Points" NumberOfComponents="3" format="ascii" RangeMin="0.10000000149011612" RangeMax="8.0156097709407">
          -0.5 0 0 -0.30000001192092896 0 0
          -0.10000000149011612 0 0 -0.5 0.4000000059604645 0
          -0.30000001192092896 0.4000000059604645 0 -0.10000000149011612 0.4000000059604645 0
          0.10000000149011612 0 0 0.10000000149011612 0.4000000059604645 0
          -0.5 0.800000011920929 0 0.30000001192092896 0 0
          -0.30000001192092896 0.800000011920929 0 -0.10000000149011612 0.800000011920929 0
          0.30000001192092896 0.4000000059604645 0 0.10000000149011612 0.800000011920929 0
          0.5 0 0 0.5 0.4000000059604645 0
          0.30000001192092896 0.800000011920929 0 -0.5 1.2000000476837158 0
          -0.30000001192092896 1.2000000476837158 0 -0.10000000149011612 1.2000000476837158 0
          0.5 0.800000011920929 0 0.10000000149011612 1.2000000476837158 0
          0.30000001192092896 1.2000000476837158 0 0.5 1.2000000476837158 0
          -0.5 1.600000023841858 0 -0.30000001192092896 1.600000023841858 0
          -0.10000000149011612 1.600000023841858 0 0.10000000149011612 1.600000023841858 0
          0.30000001192092896 1.600000023841858 0 0.5 1.600000023841858 0
          -0.5 2 0 -0.30000001192092896 2 0
          -0.10000000149011612 2 0 0.10000000149011612 2 0
          0.30000001192092896 2 0 0.5 2 0
          -0.5 2.4000000953674316 0 -0.30000001192092896 2.4000000953674316 0
          -0.10000000149011612 2.4000000953674316 0 0.10000000149011612 2.4000000953674316 0
          0.30000001192092896 2.4000000953674316 0 0.5 2.4000000953674316 0
          -0.5 2.799999952316284 0 -0.30000001192092896 2.799999952316284 0
          -0.10000000149011612 2.799999952316284 0 0.10000000149011612 2.799999952316284 0
          0.30000001192092896 2.799999952316284 0 0.5 2.799999952316284 0
          -0.5 3.200000047683716 0 -0.30000001192092896 3.200000047683716 0
          -0.10000000149011612 3.200000047683716 0 0.10000000149011612 3.200000047683716 0
          0.30000001192092896 3.200000047683716 0 0.5 3.200000047683716 0
          -0.5 3.5999999046325684 0 -0.30000001192092896 3.5999999046325684 0
          -0.10000000149011612 3.5999999046325684 0 0.10000000149011612 3.5999999046325684 0
          0.30000001192092896 3.5999999046325684 0 0.5 3.5999999046325684 0
          -0.5 4 0 -0.30000001192092896 4 0
          -0.10000000149011612 4 0 0.10000000149011612 4 0
          0.30000001192092896 4 0 0.5 4 0
          -0.5 4.400000095367432 0 -0.30000001192092896 4.400000095367432 0
          -0.10000000149011612 4.400000095367432 0 0.10000000149011612 4.400000095367432 0
          0.30000001192092896 4.400000095367432 0 0.5 4.400000095367432 0
          -0.5 4.800000190734863 0 -0.30000001192092896 4.800000190734863 0
          -0.10000000149011612 4.800000190734863 0 0.10000000149011612 4.800000190734863 0
          0.30000001192092896 4.800000190734863 0 0.5 4.800000190734863 0
          -0.5 5.199999809265137 0 -0.30000001192092896 5.199999809265137 0
          -0.10000000149011612 5.199999809265137 0 0.10000000149011612 5.199999809265137 0
          0.30000001192092896 5.199999809265137 0 0.5 5.199999809265137 0
          -0.5 5.599999904632568 0 -0.30000001192092896 5.599999904632568 0
          -0.10000000149011612 5.599999904632568 0 0.10000000149011612 5.599999904632568 0
          0.30000001192092896 5.599999904632568 0 0.5 5.599999904632568 0
          -0.5 6 0 -0.30000001192092896 6 0
          -0.10000000149011612 6 0 0.10000000149011612 6 0
          0.30000001192092896 6 0 0.5 6 0
          -0.5 6.400000095367432 0 -0.30000001192092896 6.400000095367432 0
          -0.10000000149011612 6.400000095367432 0 0.10000000149011612 6.400000095367432 0
          0.30000001192092896 6.400000095367432 0 0.5 6.400000095367432 0
          -0.5 6.800000190734863 0 -0.30000001192092896 6.800000190734863 0
          -0.10000000149011612 6.800000190734863 0 0.10000000149011612 6.800000190734863 0
          0.30000001192092896 6.800000190734863 0 0.5 6.800000190734863 0
          -0.5 7.199999809265137 0 -0.30000001192092896 7.199999809265137 0
          -0.10000000149011612 7.199999809265137 0 0.10000000149011612 7.199999809265137 0
          0.30000001192092896 7.199999809265137 0 0.5 7.199999809265137 0
          -0.5 7.599999904632568 0 -0.30000001192092896 7.599999904632568 0
          -0.10000000149011612 7.599999904632568 0 0.10000000149011612 7.599999904632568 0
          0.30000001192092896 7.599999904632568 0 0.5 7.599999904632568 0
          -0.5 8 0 -0.30000001192092896 8 0
          -0.10000000149011612 8 0 0.10000000149011612 8 0
          0.30000001192092896 8 0 0.5 8 0
          <InformationKey name="L2_NORM_RANGE" location="vtkDataArray" length="2">
            <Value index="0">
              0.10000000149
            </Value>
            <Value index="1">
              8.0156097709
            </Value>
          </InformationKey>
        </DataArray>
      </Points>
      <Cells>
        <DataArray type="Int64" Name="connectivity" format="ascii" RangeMin="0" RangeMax="125">
          15 12 9 14 20 16
          12 15 23 22 16 20
          29 28 22 23 35 34
          28 29 41 40 34 35
          47 46 40 41 53 52
          46 47 59 58 52 53
          65 64 58 59 71 70
          64 65 77 76 70 71
          83 82 76 77 89 88
          82 83 95 94 88 89
          101 100 94 95 107 106
          100 101 113 112 106 107
          119 118 112 113 125 124
          118 119 12 7 6 9
          16 13 7 12 22 21
          13 16 28 27 21 22
          34 33 27 28 40 39
          33 34 46 45 39 40
          52 51 45 46 58 57
          51 52 64 63 57 58
          70 69 63 64 76 75
          69 70 82 81 75 76
          88 87 81 82 94 93
          87 88 100 99 93 94
          106 105 99 100 112 111
          105 106 118 117 111 112
          124 123 117 118 7 5
          2 6 13 11 5 7
          21 19 11 13 27 26
          19 21 33 32 26 27
          39 38 32 33 45 44
          38 39 51 50 44 45
          57 56 50 51 63 62
          56 57 69 68 62 63
          75 74 68 69 81 80
          74 75 87 86 80 81
          93 92 86 87 99 98
          92 93 105 104 98 99
          111 110 104 105 117 116
          110 111 123 122 116 117
          5 4 1 2 11 10
          4 5 19 18 10 11
          26 25 18 19 32 31
          25 26 38 37 31 32
          44 43 37 38 50 49
          43 44 56 55 49 50
          62 61 55 56 68 67
          61 62 74 73 67 68
          80 79 73 74 86 85
          79 80 92 91 85 86
          98 97 91 92 104 103
          97 98 110 109 103 104
          116 115 109 110 122 121
          115 116 4 3 0 1
          10 8 3 4 18 17
          8 10 25 24 17 18
          31 30 24 25 37 36
          30 31 43 42 36 37
          49 48 42 43 55 54
          48 49 61 60 54 55
          67 66 60 61 73 72
          66 67 79 78 72 73
          85 84 78 79 91 90
          84 85 97 96 90 91
          103 102 96 97 109 108
          102 103 115 114 108 109
          121 120 114 115
        </DataArray>
        <DataArray type="Int64" Name="offsets" format="ascii" RangeMin="4" RangeMax="400">
          4 8 12 16 20 24
          28 32 36 40 44 48
          52 56 60 64 68 72
          76 80 84 88 92 96
          100 104 108 112 116 120
          124 128 132 136 140 144
          148 152 156 160 164 168
          172 176 180 184 188 192
          196 200 204 208 212 216
          220 224 228 232 236 240
          244 248 252 256 260 264
          268 272 276 280 284 288
          292 296 300 304 308 312
          316 320 324 328 332 336
          340 344 348 352 356 360
          364 368 372 376 380 384
          388 392 396 400
        </DataArray>
        <DataArray type="UInt8" Name="types" format="ascii" RangeMin="9" RangeMax="9">
          9 9 9 9 9 9
          9 9 9 9 9 9
          9 9 9 9 9 9
          9 9 9 9 9 9
          9 9 9 9 9 9
          9 9 9 9 9 9
          9 9 9 9 9 9
          9 9 9 9 9 9
          9 9 9 9 9 9
          9 9 9 9 9 9
          9 9 9 9 9 9
          9 9 9 9 9 9
          9 9 9 9 9 9
          9 9 9 9 9 9
          9 9 9 9 9 9
          9 9 9 9 9 9
          9 9 9 9
        </DataArray>
      </Cells>
    </Piece>
  </UnstructuredGrid>
</VTKFile>
