<?xml version="1.0"?>
<VTKFile type="UnstructuredGrid" version="0.1" byte_order="LittleEndian" header_type="UInt32" compressor="vtkZLibDataCompressor">
  <UnstructuredGrid>
    <Piece NumberOfPoints="12" NumberOfCells="6">
      <PointData>
        <DataArray type="Float64" Name="Velocity" NumberOfComponents="3" format="ascii" RangeMin="0" RangeMax="0.3884337274887443">
          0 0 0 0 0 0
          0 0 0 0.09886189294397935 0.37251446792386744 0
          0 0 0 -0.346264914698917 0.17601525359852122 0
          0 0 0 0 0 0
          0 0 0 -0.21016295058229928 0.27113573598446844 0
          0.10525905555883534 0.34425319760546025 0 0 0 0
          <InformationKey name="L2_NORM_RANGE" location="vtkDataArray" length="2">
            <Value index="0">
              0
            </Value>
            <Value index="1">
              0.38843372749
            </Value>
          </InformationKey>
        </DataArray>
        <DataArray type="Float64" Name="Pressure" format="ascii" RangeMin="-0.9360928825039406" RangeMax="0.9777317353771718">
          -0.6387293610305709 -0.2645218031442121 -0.7106270238464008 -0.276380027817565 0.23966916974768354 0.24573198962198015
          0.612255010377309 0.7052140598523171 0.9777317353771718 0.3366537046937675 -0.35784681077714725 -0.9360928825039406
        </DataArray>
        <DataArray type="Float64" Name="Temperature" format="ascii" RangeMin="569.5845314944348" RangeMax="960.0000000000002">
          959.9999999999999 959.9999999999999 607.5022446330282 608.5917452683846 960.0000000000002 594.717105274355
          960 620.9200039273155 584.0698294586465 569.5845314944348 602.470887594991 599.079920228094
        </DataArray>
        <DataArray type="Float64" Name="Density" format="ascii" RangeMin="0.36546877315135223" RangeMax="0.6159753343454802">
          0.36546877315135234 0.36546877315135234 0.5775287668891412 0.5764948751820088 0.36546877315135223 0.5899443939206087
          0.36546877315135234 0.5650486697258484 0.6006987598563148 0.6159753343454802 0.582351827199252 0.5856481086725714
        </DataArray>
      </PointData>
      <CellData>
        <DataArray type="UInt8" Name="vtkGhostType" format="ascii" RangeMin="0" RangeMax="0">
          0 0 0 0 0 0
        </DataArray>
      </CellData>
      <Points>
        <DataArray type="Float32" Name="Points" NumberOfComponents="3" format="ascii" RangeMin="0" RangeMax="1.201850436175566">
          0 1 0 0 0.6666666865348816 0
          0.3333333134651184 1 0 0.3333333134651184 0.6666666865348816 0
          0 0.3333333134651184 0 0.3333333134651184 0.3333333134651184 0
          0 0 0 0.3333333134651184 0 0
          0.6666666865348816 0 0 0.6666666865348816 0.3333333134651184 0
          0.6666666865348816 0.6666666865348816 0 0.6666666865348816 1 0
          <InformationKey name="L2_NORM_RANGE" location="vtkDataArray" length="2">
            <Value index="0">
              0
            </Value>
            <Value index="1">
              1.2018504362
            </Value>
          </InformationKey>
        </DataArray>
      </Points>
      <Cells>
        <DataArray type="Int64" Name="connectivity" format="ascii" RangeMin="0" RangeMax="11">
          7 5 4 6 8 9
          5 7 5 3 1 4
          9 10 3 5 3 2
          0 1 10 11 2 3
        </DataArray>
        <DataArray type="Int64" Name="offsets" format="ascii" RangeMin="4" RangeMax="24">
          4 8 12 16 20 24
        </DataArray>
        <DataArray type="UInt8" Name="types" format="ascii" RangeMin="9" RangeMax="9">
          9 9 9 9 9 9
        </DataArray>
      </Cells>
    </Piece>
  </UnstructuredGrid>
</VTKFile>
