<?xml version="1.0"?>
<VTKFile type="UnstructuredGrid" version="0.1" byte_order="LittleEndian" header_type="UInt32" compressor="vtkZLibDataCompressor">
  <UnstructuredGrid>
    <Piece NumberOfPoints="162" NumberOfCells="295">
      <PointData>
        <DataArray type="Float64" Name="Velocity" NumberOfComponents="3" format="ascii" RangeMin="0" RangeMax="2.096452491472387">
          2.076881854302883 0 0 1.7281850969081554 -0.06028054129135389 0
          1.673537521349214 -0.032967127445255755 0 1.6524505715490097 0 0
          2.0515919844979855 -0.010611483577093218 0 1.7501043599976027 0.004851532700933352 0
          1.6751283454893933 0.009467719904734127 0 1.7301139795651734 -0.00039145794202571915 0
          1.6846345320985279 0.0027950518924715825 0 1.7282522193759697 0.0045968963929196305 0
          1.7117392248690568 0.014888000268621025 0 1.7596025030500113 -0.004659682775500808 0
          1.7336133684452972 -0.005468055113435788 0 1.6930057084671688 0.0002000381346485211 0
          1.6854619492184113 -0.00045544311870632237 0 1.7699217941810268 -0.009705834474659308 0
          1.7175343976358648 0.0041527253864142855 0 1.6672887721980265 0 0
          2.054158783472104 0.011891210113975738 0 1.7246379448495361 -0.0039980398372086445 0
          1.6524689061916296 0.007958592025753441 0 1.6802916935969296 0.014909989904487195 0
          1.6649880827968764 -0.0065328518157580645 0 1.6220592736158093 0.004146019929696432 0
          1.7359155895769085 0.003243989287471133 0 1.6866220663779898 0.0056539110124611824 0
          1.6140129018956015 -0.014626241377383067 0 1.6968392805128085 -0.00962697415502177 0
          1.656558652116236 0.01933515229559253 0 1.632896115458705 0.0028018588137966663 0
          1.6075770176209405 -0.0004237450408695817 0 1.7645953211051955 -0.024564064824122635 0
          1.6402540236549918 -0.005075875603731961 0 1.6021355027775726 -0.010497813420368603 0
          1.751182703636938 0.004369827278033006 0 1.6627121530700144 0.0014501932169253828 0
          1.5833659076240678 0 0 1.5853627922390432 -0.005333430430339778 0
          1.681851564429557 -0.00280430644483963 0 1.6061769440934377 0.005672422790311993 0
          1.578521007681097 -0.0008359006976158107 0 2.096452491472387 0 0
          1.6212638412417943 -0.004579283511774723 0 1.5588754547136192 -0.009819074543580927 0
          1.7478836497815995 -0.00627568721943364 0 1.645345965613108 0 0
          1.6314222787893309 0.007028351181545822 0 1.5623203948046238 -0.0009973748858854367 0
          1.5534315930836347 0.0012530556947397894 0 1.5899289393659783 0.002865688229666402 0
          1.5252976919309689 -0.0033613484812888422 0 1.5335633397811497 -0.006379869129038276 0
          1.596383605912109 -0.004977337521392178 0 1.6632488033232309 0 0
          1.6134825328296882 -0.0023596277732522188 0 1.5260798446111796 0.000020941294671783517 0
          1.540926914261501 -0.0023077234601742436 0 1.5098943078566647 -0.00482845150545707 0
          1.5627419259142086 0.001204737241528836 0 1.4922106925959722 -0.003365604219009885 0
          1.4652459154338702 0 0 1.5778799547114801 -0.0009816576242690778 0
          1.500507676593664 0.004862913571950775 0 1.4839576199982525 -0.0030992818824262802 0
          1.5163857938475345 0.0012578275284595708 0 1.473409785232858 0.003584845500678044 0
          1.5562120085282332 0 0 1.5443308641287883 0.0029503012057318645 0
          1.4468168616368065 0.0016871600647159757 0 1.4358929586791942 0.0014130809033453852 0
          1.5443075020314745 -0.004334263508411894 0 1.4640656304542712 -0.00185955864281441 0
          1.4819472981550246 0.00360706730648952 0 1.4487923439687467 0.0008268119455093477 0
          1.498634049265105 0.0044887196389128 0 1.4316819088201722 -0.0011346537743446156 0
          1.419851791995395 -0.004029307619922484 0 1.4266613558305554 0.004181654938062503 0
          1.4405358037555562 0.001416263581465127 0 1.397356670542519 0 0
          1.4566565833344078 0.008821361785116055 0 1.403745665812627 -0.0018306648179025053 0
          1.4766118119062965 0 0 1.3955375909041017 0.0008575805521936902 0
          1.3773913688160477 0.0016336987831904737 0 1.4523313398947204 0.0034133186054619985 0
          1.4014528652213496 0.0038311629836985175 0 1.4205290889103455 0.0060364329557062515 0
          1.3828460682782326 -0.001014555196962065 0 1.3678191428604314 -0.001256341783244721 0
          1.3653674555870556 -0.010127679040576376 0 1.3532152933402934 -0.0064985817200944734 0
          1.34625455718032 -0.014001649231250857 0 1.3784257786064014 0.010585786970130268 0
          1.359992083558009 0.004794180375184379 0 1.3421496953224894 0.005803098897284441 0
          1.3928774803624346 0 0 1.317649903627267 -0.0069175389742827526 0
          1.3176828009803394 -0.012808673755902639 0 1.3119691534531264 0 0
          1.3695936618723905 0.006509496979997975 0 1.302662815776324 -0.020081071191813543 0
          1.3486801320258448 0.01084064612371538 0 1.3174755427543934 0.011837101101198816 0
          1.2907747007197066 0.003665445891684674 0 1.2758633412481326 -0.013397708751308399 0
          1.2796317456803716 -0.023359445892533394 0 1.311921939271953 0.0220890544544117 0
          1.2768200763591717 0.026747439628344846 0 1.2632722537712942 -0.011712350330608634 0
          1.2134089608865166 0.0035968936586045844 0 1.2998911337440981 0 0
          1.2223065749785684 -0.057800901233475796 0 1.3013722903892648 0.019288704159419717 0
          1.2816781425567862 -0.06270418700261973 0 1.1987732371115758 0.06542168789425203 0
          1.33371854014585 0 0 1.2786264737717168 0.008544862135064921 0
          1.1229963642681062 0.006667856922271346 0 1.205686145617961 -0.048323026030419075 0
          1.1417267840858876 -0.27765968872742625 0 1.2516156626701873 0.013707567134365939 0
          1.3160022569104677 0.06782770235865697 0 1.5445816158885 -0.2661946072458243 0
          1.176670210313651 0.32239223071262113 0 1.3277408813845895 -0.0609330906849172 0
          0.626333405415612 0.08094244722489806 0 1.265895530422542 -0.0927397853805709 0
          0.9392882319956501 -0.46930362578646306 0 1.3438249417533488 0 0
          1.6078230784205259 0.23788577166301977 0 1.2201642238829726 0.06681922526429107 0
          0.9623805494176649 0.4830308773532853 0 1.9281340412341448 0.013404267639846892 0
          0 0 0 0 0 0
          1.2991332469303594 0 0 1.3480447262110782 0.04675189539645311 0
          1.267287368203417 0.08631700420194764 0 1.9507778405100706 -0.12139833384650198 0
          0 0 0 1.235638762340367 0.09143518352927425 0
          1.605952623337611 0.6197564617455777 0 0 0 0
          0 0 0 1.559117726094894 -0.6528486397038177 0
          1.1023307496179235 0.15893815457201507 0 1.1664771622233039 0.12879855438207458 0
          1.240891763985885 -0.10237318900500082 0 1.2152068113729768 0.47980285914979726 0
          1.2661556488912122 0 0 0.5560582067351456 -0.005995912591323482 0
          1.0949032083495802 0.13231057890348366 0 1.127485941253794 -0.4590226282879933 0
          1.0559274837024497 -0.12522807412915365 0 0.8475487297298698 0.042445736973621 0
          1.1707220752758218 -0.1309797051878458 0 1 0 0
          1 0 0 1.08311338496841 -0.11498330617186284 0
          1 0 0 1 0 0
          <InformationKey name="L2_NORM_RANGE" location="vtkDataArray" length="2">
            <Value index="0">
              0
            </Value>
            <Value index="1">
              2.0964524915
            </Value>
          </InformationKey>
        </DataArray>
        <DataArray type="Float64" Name="Pressure" format="ascii" RangeMin="1.3030326687479805" RangeMax="23.200409383888793">
          1.3030326687479805 2.609692912102013 2.302738740047231 4.343930192091315 1.8511192702893187 3.953882727841142
          3.0720795050214376 5.8078428345498345 2.4253620332001256 5.034294680448023 6.467757186001361 4.309450950806374
          1.9058348686772262 6.881803069739611 7.604764979423678 3.510915603616513 6.206155417494449 8.27992450425925
          1.9064314935980295 5.455662208993917 8.601031983092902 2.647351416814434 7.8586420773286285 9.218147875351917
          4.654840083205267 7.212869590691239 9.949618749406348 6.451467752697751 2.2431181501212176 9.499885752533336
          10.092700077991866 3.7487051342157356 8.80298520942623 10.655469926325527 5.730325176972115 8.173302657745445
          11.794625599522742 10.943997510872544 7.482398510305094 10.377573637405478 11.582135374302208 1.8231440956839045
          9.695737518319174 12.184162907046202 6.4471793599388025 3.982491575003986 9.09745529568709 11.785534940589272
          12.366180247535304 11.230073927830428 12.933962467140423 13.1433677753659 10.57382861423211 8.361369339476036
          9.991404764158275 13.150743336315694 12.590871032982815 13.655308317102808 12.048496981888965 14.188969109379865
          14.586667736608689 11.389557722836148 13.853519475281 14.363547846033335 13.34601964307342 14.858645076543658
          11.625785131694833 12.825952051459103 15.314998870826049 15.7694001895698 13.305588588972709 15.016728873173767
          14.583358714700683 15.524235499472477 14.071482441685127 15.956242120474082 16.37746922586773 16.142144122445732
          15.693665290884459 16.919842218148382 15.242545234319863 16.552223563708875 14.588799085075896 16.945800333061964
          17.321871870221397 15.8034097913302 16.73968709100752 16.293294675105066 17.094478076846453 17.512058330621418
          17.81161653448355 17.876582933634793 18.183560190078197 17.276790001554417 17.650182838131748 18.010115918889536
          16.99066779459486 18.343832346851805 18.690614690886882 18.943203980538055 17.8485215683176 18.99516712729977
          18.13039552580343 18.496580697306275 18.77195208815108 19.103791778113354 19.54593527866789 18.92220213446306
          19.209985781171213 19.707694628665323 19.492537204727146 18.922295490129105 19.858621981893112 19.616793533862953
          20.229948807422936 19.906433493791027 20.18883604475142 19.552077786111198 19.980408324769954 20.42723892774471
          20.243078937861142 20.052253090998864 20.318066906460448 20.50416331431209 20.220658391729067 20.741063303419626
          20.166054540477305 20.861124904921695 20.018555057306344 20.21425144657909 20.575919331849956 20.60735025493667
          19.965132599058958 20.429121050673547 20.33594175934184 20.923288582905155 21.578611974313514 20.925731499130176
          21.45160260376869 20.556942796298433 21.054956492460985 21.192585848518917 21.485107391092246 22.95317863621618
          23.075336878350114 21.686409877452583 22.02223164963723 21.911247068484144 21.638057176802672 22.44109665683858
          21.71521454895615 23.200409383888793 22.154005311133805 22.630576562903947 22.206124293561686 23.054195245074588
          21.98935648992114 22.089357636920262 22.60416531952514 22.247455422596044 22.503284374934882 22.253029049209914
        </DataArray>
        <DataArray type="Float64" Name="Temperature" format="ascii" RangeMin="230.361256938345" RangeMax="600.0000000000001">
          299.99999999999994 297.6261585831682 297.4323952310305 300.00000000000006 297.7634620336837 297.95701563106877
          298.3712705758894 297.56734722247387 298.19128757643546 298.21360511892095 297.68560286450287 298.04164745794094
          298.31001888100695 298.2027952223605 297.9459235070072 298.0198103204124 298.0796462987105 300
          297.64880661979424 298.1137296285395 298.2104493079744 298.3924956613331 298.0996054826647 297.62831939298286
          298.17752013179205 298.10772051015863 297.6429065051126 298.2005133962509 297.37916300563916 298.06905249301525
          298.20261401935784 297.87483263601587 298.10550119361943 297.9800126904823 297.5728364739939 298.1523437294903
          299.99999999999994 298.09975638890785 297.99114164828575 298.11442165154114 298.2078440597443 299.99999999999994
          298.18110135615575 297.67728004789336 297.7146999704507 299.99999999999994 297.63358397765495 298.1267938595647
          298.0956357678733 298.0606849834951 298.11354878293173 297.60185937658315 298.32009071225326 300
          297.4484908604001 298.11273002046477 298.08920221995044 298.1339018759399 298.16443242136177 297.9126652242426
          299.99999999999994 297.96200443393445 298.1098297782265 298.0990237459248 298.1863121517969 298.222315698954
          300.00000000000006 297.66008721220743 297.54202855115767 297.6067251995269 297.6501459609109 298.10425322426977
          298.1637510456507 298.07795819551455 298.0292980781135 298.21401755031377 297.9726942748213 298.1014847752401
          298.1886478750168 300.00000000000006 297.62620914370615 298.09543682560576 300 298.21261980825864
          297.59972603506276 297.6104641393131 298.17324628495254 298.0170536956196 298.10500548103374 298.0881209508754
          297.57413252717714 298.1710744673424 297.9578912290351 297.59617036220385 298.20213903482164 298.0790571879439
          300.00000000000006 298.0816488511503 298.2290426102211 300 297.5790696420078 297.48191991017507
          297.9921341431233 298.14551289935616 298.1526278074811 298.2073141826051 299.1136250576174 297.63044477115545
          298.28642500165444 298.08028713004313 298.42634441214443 300 295.5777515937855 299.34932100066806
          294.13313374199515 295.7528156948765 300 297.1502913862571 296.99870571889994 299.95393052007455
          299.1539038691294 298.95173599692134 294.8496653851024 280.8174831039287 296.39504485567653 297.3985616133563
          358.9996967808599 300.4087577834033 408.80791037225964 300.00000000000006 280.22598256678396 300.6747679049842
          403.50498561479384 298.83135157000646 600 600 300 297.2740355853141
          297.6953358451478 293.08221153956526 599.9999999999999 301.80452737042054 315.2297746878164 600.0000000000001
          600 311.67650714081503 299.80531705252713 297.12279245698915 298.6543190962192 255.57735380947915
          299.99999999999994 230.361256938345 298.53342636969467 253.96804598006767 301.3992238294125 304.4965287901416
          296.7448840298127 299.99999999999994 299.99999999999994 298.30250982082487 299.99999999999994 300
        </DataArray>
        <DataArray type="Float64" Name="Density" format="ascii" RangeMin="0.5736571428181553" RangeMax="1.4941500591960004">
          1.147314285636311 1.156465168684802 1.1572185518781182 1.1473142856363105 1.1559319042709046 1.1551810081125111
          1.153577169231342 1.1566937330444362 1.1542734480552717 1.1541870651865003 1.156234236317971 1.1548529832209617
          1.1538140320663823 1.154228904642689 1.155224013940229 1.1549376040500023 1.1547057639285123 1.1473142856363108
          1.1563771734873929 1.1545737464684092 1.1541992793667315 1.1534951136356455 1.1546284508951123 1.1564567726380417
          1.1543267431386584 1.1545970198351978 1.1564000961164551 1.1542377367859373 1.1574256992725693 1.1547468038432431
          1.154229606010596 1.1554997199494084 1.1546056155043551 1.1550918552661942 1.1566723958050982 1.1544242161087157
          1.147314285636311 1.1546278663906366 1.1550487165056078 1.154571066317663 1.1542093628561154 1.147314285636311
          1.1543128794060562 1.1562665636944673 1.156121231921218 1.147314285636311 1.156436317068083 1.1545231518272359
          1.1546438269861719 1.1547792212513797 1.1545744468712984 1.1565595941232087 1.153775077196823 1.1473142856363108
          1.1571559320918932 1.1545776178939595 1.15466874723266 1.1544956260429586 1.1543774114696643 1.1553529804844447
          1.147314285636311 1.15516166681987 1.1545888505150952 1.1546307041389585 1.1542927078278333 1.1541533532934756
          1.1473142856363105 1.1563333496086452 1.1567921593023436 1.1565406845565478 1.1563719701185526 1.1546104490899332
          1.154380049499025 1.1547123033670614 1.154900836630766 1.1541854689403452 1.1551202251218415 1.1546211718818031
          1.1542836662083773 1.1473142856363105 1.1564649722252858 1.1546445975697932 1.1473142856363108 1.1541908786831334
          1.156567884912437 1.1565261547046075 1.154343288605981 1.15494828709513 1.1546075354739116 1.1546729356169685
          1.156667358038785 1.1543516966082892 1.1551776134242977 1.1565817035614905 1.1542314444991322 1.1547080460398562
          1.1473142856363105 1.1546980064605377 1.1541273199899171 1.1473142856363108 1.1566481678464962 1.157025898564938
          1.1550448694916875 1.1544506651927429 1.15442311618042 1.154211413741946 1.1507141663125244 1.156448514383467
          1.153905296524923 1.154703281471049 1.1533642794469263 1.1473142856363108 1.1644796803377875 1.1498081390006731
          1.170198954847468 1.1637903932789369 1.1473142856363108 1.1583171737277047 1.1589083691720274 1.1474904999381492
          1.1505592313495852 1.15133730380625 1.1673551850274002 1.2256868122541689 1.1612686907721133 1.1573502031202672
          0.9587592657522378 1.1457531672197774 0.841946246532927 1.1473142856363105 1.2282739899354773 1.1447395073725029
          0.8530112339664582 1.151801120874895 0.5736571428181554 0.5736571428181554 1.1473142856363108 1.1578350090790677
          1.1561964338935187 1.1743950063800717 0.5736571428181555 1.1404543486799505 1.0918838045415014 0.5736571428181553
          0.5736571428181554 1.1043318241993347 1.148059310871358 1.158424376819621 1.1524838707589633 1.3467323319556468
          1.147314285636311 1.4941500591960004 1.1529505753391032 1.3552661098077938 1.1419879630668928 1.1303717880084974
          1.1598996451656216 1.147314285636311 1.147314285636311 1.1538430766058028 1.147314285636311 1.1473142856363108
        </DataArray>
        <DataArray type="Float64" Name="stream" format="ascii" RangeMin="-4.252092112758446" RangeMax="0.0757895299100648">
          0.0757895299100648 -0.38927474045246935 -0.8560339077777886 0.00013444477526438625 -1.3757517978569331 -0.7891272516771819
          -1.3437220959860994 -0.7225581711529226 -1.9244351826777624 -1.2774296138748469 -0.34243183159817847 -1.841707511870147
          -2.532318562765644 -1.2018921404433767 -0.6511331002057648 -2.415651573610104 -1.7599002145921487 0.003204390232152976
          -2.8021781200929374 -2.331230848840358 -1.1139503250974856 -3.005501375269897 -1.6596505660181287 -0.5854165178079312
          -2.8926726261034035 -2.207119496026221 -0.276274558107094 -2.7719436393699026 -3.578093483033258 -1.5744613152998495
          -1.047990397039629 -3.468797928511941 -2.1189498959526305 -0.5228615671956994 -3.3611031355474323 -2.6822565690443287
          -0.0015659792993787502 -1.486137778646838 -3.2584556915716405 -2.0043580017597327 -0.9584877349132362 -4.252092112758446
          -2.5589670211028523 -0.45209028726445044 -3.72731286746787 -4.165937267841693 -3.138480882857726 -1.9205336690307766
          -1.392259586542803 -2.4420571210523105 -0.8893415012556337 -0.43251375996188485 -3.0174836794965727 -4.098342654456272
          -3.61396791927433 -1.800698907478597 -2.321107319152441 -1.3139473452001915 -2.884446735758591 -0.8083182579938818
          -0.010306739737718095 -3.492095419550438 -2.2055514380839982 -1.7128281586003453 -2.778417812653011 -1.2251604033092682
          -4.001486461831133 -3.3708595278032067 -0.7594936544567918 -0.3745089610996356 -3.668250525553606 -2.111329664645567
          -2.6457865504402025 -1.626169447312886 -3.263148423425799 -1.17699901244663 -0.715607971304704 -2.0181566348578657
          -2.5616706766777226 -0.018650368236511596 -3.1278475852332193 -1.5712888650596293 -3.8815766266711043 -1.101277648794394
          -0.6405161301661486 -3.4902035580159025 -2.462076897408711 -3.028102180830629 -1.9452670587523702 -1.4829209729201531
          -0.3139132036328411 -1.0345002312289995 -0.5781255068012012 -2.90765033757672 -2.3392642844230305 -1.86574899719437
          -3.730940411836258 -1.4412629079393076 -0.9868007417595847 -0.02984358445571489 -3.291683505692945 -0.5190180052612285
          -2.7969378498828483 -2.2721878167649177 -1.8240486152212767 -1.362399425966111 -0.8384720659170334 -2.6874693895922643
          -2.149782595245506 -0.4451663886214849 -1.667140490312705 -3.548229161123057 -1.2127972267123224 -2.5010832125734535
          -0.8205188002483957 -1.9568497606527384 -0.027522741623552838 -3.055927708614746 -1.5824214320009853 -0.4865222971676992
          -1.20886929652563 -2.8160495177193328 -2.3284275495374884 -0.9440601581146937 -1.7988246399454708 -0.2767797639293668
          -1.473794858080694 -0.5426819355915392 -1.3075802099809282 -3.342081721543591 -2.0696654679499122 -2.6976101234887957
          -1.4991947267778503 -1.0303843540863993 -1.3998476326097318 -1.3385172000809231 -0.03623838119378888 -2.9721838138865744
          -0.6383823794473643 -1.8630072372901838 -1.417332892995583 -2.547541025679391 -1.1142155036389885 -1.2919169689120835
          -1.3816337601528326 -1.640478487408993 -0.6729678961701541 -0.36957876210999696 -2.278323603039993 -1.0300939772404771
          -3.0730293864570646 -1.3106640544976087 -0.4565055799518209 -1.5427977503829986 -2.047468564839023 -1.2856996861333891
          -2.568482433210403 -0.034358908465085124 -0.8676286065291924 -2.2034939193223746 -1.6767211804879554 -2.757478864476479
        </DataArray>
      </PointData>
      <CellData>
        <DataArray type="UInt8" Name="vtkGhostType" format="ascii" RangeMin="0" RangeMax="0">
          0 0 0 0 0 0
          0 0 0 0 0 0
          0 0 0 0 0 0
          0 0 0 0 0 0
          0 0 0 0 0 0
          0 0 0 0 0 0
          0 0 0 0 0 0
          0 0 0 0 0 0
          0 0 0 0 0 0
          0 0 0 0 0 0
          0 0 0 0 0 0
          0 0 0 0 0 0
          0 0 0 0 0 0
          0 0 0 0 0 0
          0 0 0 0 0 0
          0 0 0 0 0 0
          0 0 0 0 0 0
          0 0 0 0 0 0
          0 0 0 0 0 0
          0 0 0 0 0 0
          0 0 0 0 0 0
          0 0 0 0 0 0
          0 0 0 0 0 0
          0 0 0 0 0 0
          0 0 0 0 0 0
          0 0 0 0 0 0
          0 0 0 0 0 0
          0 0 0 0 0 0
          0 0 0 0 0 0
          0 0 0 0 0 0
          0 0 0 0 0 0
          0 0 0 0 0 0
          0 0 0 0 0 0
          0 0 0 0 0 0
          0 0 0 0 0 0
          0 0 0 0 0 0
          0 0 0 0 0 0
          0 0 0 0 0 0
          0 0 0 0 0 0
          0 0 0 0 0 0
          0 0 0 0 0 0
          0 0 0 0 0 0
          0 0 0 0 0 0
          0 0 0 0 0 0
          0 0 0 0 0 0
          0 0 0 0 0 0
          0 0 0 0 0 0
          0 0 0 0 0 0
          0 0 0 0 0 0
          0
        </DataArray>
      </CellData>
      <Points>
        <DataArray type="Float32" Name="Points" NumberOfComponents="3" format="ascii" RangeMin="0.22994902639587697" RangeMax="7.102112369882704">
          7 1.2000000476837158 0 6.599672794342041 0.9660372734069824 0
          6.6399030685424805 0.7036619186401367 0 6.222221851348877 1.2000000476837158 0
          7 0.4000000059604645 0 6.291684150695801 0.7389311790466309 0
          6.435248851776123 0.4197305142879486 0 5.9434661865234375 0.7742003798484802 0
          6.57881498336792 0.10052960366010666 0 6.08703088760376 0.45499980449676514 0
          5.801344871520996 0.9959174990653992 0 6.23059606552124 0.1357990950345993 0
          6.722381114959717 -0.21868319809436798 0 5.7388129234313965 0.49026909470558167 0
          5.5952467918396 0.8094696998596191 0 6.3741607666015625 -0.18340149521827698 0
          5.882378101348877 0.17106840014457703 0 5.444444179534912 1.2000000476837158 0
          7 -0.4000000059604645 0 6.025942802429199 -0.14813220500946045 0
          5.384244918823242 0.5261802077293396 0 6.51772403717041 -0.5026149749755859 0
          5.531583786010742 0.20377269387245178 0 5.236144065856934 0.8432719111442566 0
          6.169507026672363 -0.4673318862915039 0 5.674856185913086 -0.1111351028084755 0
          5.060293197631836 1.0298899412155151 0 5.821293830871582 -0.43206480145454407 0
          6.6612749099731445 -0.8218216896057129 0 5.183467864990234 0.23962560296058655 0
          5.035661220550537 0.5564131140708923 0 6.313057899475098 -0.7865372896194458 0
          5.326355934143066 -0.07969167828559875 0 4.893916130065918 0.8762899041175842 0
          5.964842796325684 -0.7512490749359131 0 5.473134994506836 -0.3970530033111572 0
          4.6666669845581055 1.2000000476837158 0 4.836434841156006 0.26916739344596863 0
          5.616653919219971 -0.7159011960029602 0 4.978854179382324 -0.04412427172064781 0
          4.688116073608398 0.5933424234390259 0 7 -1.2000000476837158 0
          5.12586784362793 -0.3661642074584961 0 4.545888900756836 0.9131073951721191 0
          5.81204080581665 -0.966787576675415 0 6.222221851348877 -1.2000000476837158 0
          5.268884181976318 -0.6795946955680847 0 4.630309104919434 -0.01361996028572321 0
          4.488448143005371 0.30607008934020996 0 4.777815818786621 -0.33047690987586975 0
          4.339453220367432 0.6220952272415161 0 4.286639213562012 0.9191486239433289 0
          4.920590877532959 -0.6494935750961304 0 5.444444179534912 -1.2000000476837158 0
          5.067508220672607 -0.9653593897819519 0 4.283215045928955 0.02286371961236 0
          4.43105411529541 -0.300768107175827 0 4.142016887664795 0.33384108543395996 0
          4.573105812072754 -0.6119378209114075 0 3.992300033569336 0.6605401039123535 0
          3.8888890743255615 1.2000000476837158 0 4.721052169799805 -0.9289693236351013 0
          4.083156108856201 -0.26410868763923645 0 3.9346089363098145 0.05202680081129074 0
          4.2248640060424805 -0.583368182182312 0 3.794219970703125 0.37224650382995605 0
          4.6666669845581055 -1.2000000476837158 0 4.372566223144531 -0.8980712890625 0
          3.6435329914093018 0.6871886849403381 0 3.4845330715179443 0.9496920704841614 0
          4.238772869110107 -1.0396209955215454 0 3.7371129989624023 -0.2360759973526001 0
          3.8777899742126465 -0.544031023979187 0 3.5880980491638184 0.08982273191213608 0
          4.026970863342285 -0.8604139089584351 0 3.4486160278320312 0.3975287973880768 0
          3.294600009918213 0.7115796804428101 0 3.3894379138946533 -0.1980305016040802 0
          3.5296289920806885 -0.5176354050636292 0 3.1111109256744385 1.2000000476837158 0
          3.678446054458618 -0.8306925892829895 0 3.2394111156463623 0.11707709729671478 0
          3.8888890743255615 -1.2000000476837158 0 3.1010890007019043 0.43808528780937195 0
          2.961361885070801 0.7589535117149353 0 3.503129005432129 -1.0054839849472046 0
          3.18314790725708 -0.47578510642051697 0 3.3340699672698975 -0.7912443280220032 0
          3.044409990310669 -0.17236250638961792 0 2.893527030944824 0.1568426936864853 0
          2.7548489570617676 0.9893125891685486 0 2.7534260749816895 0.4774535000324249 0
          2.6135880947113037 0.7982968091964722 0 2.9854938983917236 -0.7631890773773193 0
          2.8351199626922607 -0.4524492025375366 0 2.697058916091919 -0.13238230347633362 0
          3.1111109256744385 -1.2000000476837158 0 2.544728994369507 0.1811445951461792 0
          2.388031005859375 0.49400800466537476 0 2.3333330154418945 1.2000000476837158 0
          2.7681961059570312 -0.9710931181907654 0 2.2573049068450928 0.8266525864601135 0
          2.6428470611572266 -0.721183180809021 0 2.489516019821167 -0.40704599022865295 0
          2.353508949279785 -0.11029759794473648 0 2.1956899166107178 0.20170240104198456 0
          1.9920220375061035 0.5723655819892883 0 2.2942399978637695 -0.6953821182250977 0
          2.141784906387329 -0.3882349133491516 0 1.8683220148086548 0.8697000741958618 0
          2.0066850185394287 -0.0679963231086731 0 2.3333330154418945 -1.2000000476837158 0
          1.8129379749298096 0.2728925049304962 0 1.954548954963684 -0.6485614776611328 0
          1.6430920362472534 0.5740132927894592 0 1.7980589866638184 -0.3366861045360565 0
          1.555556058883667 1.2000000476837158 0 1.9700770378112793 -0.9401506781578064 0
          1.6666820049285889 -0.05719396844506264 0 1.4286249876022339 0.8451691269874573 0
          1.4677189588546753 0.2914707064628601 0 1.6918359994888306 -0.8584386110305786 0
          1.606449007987976 -0.6244480013847351 0 1.3151990175247192 0.5185866951942444 0
          1.4524099826812744 -0.32973089814186096 0 1.2210429906845093 1.0129400491714478 0
          1.3220579624176025 -0.01946846954524517 0 1.1222139596939087 0.8065894842147827 0
          1.1284430027008057 0.23862800002098083 0 1.555556058883667 -1.2000000476837158 0
          1.2835420370101929 -0.5449687838554382 0 1.3725509643554688 -0.8790327906608582 0
          1.1284430027008057 -0.23862800002098083 0 0.9798405170440674 0.4904909133911133 0
          1 0 0 0.861803412437439 0.19021129608154297 0
          0.7777777910232544 1.2000000476837158 0 1.1798269748687744 -1.0302430391311646 0
          0.729131281375885 0.7251076102256775 0 0.9428092837333679 -0.5025230050086975 0
          0.861803412437439 -0.19021129608154297 0 1.0134249925613403 -0.8419373035430908 0
          0.6745458245277405 0.38610830903053284 0 0.638196587562561 0.1175571009516716 0
          0.638196587562561 -0.1175571009516716 0 0.6745458245277405 -0.38610830903053284 0
          0.4659998118877411 0.650235116481781 0 0.44361230731010437 0.9165406823158264 0
          0.6880131959915161 -0.7223715782165527 0 0.3890891969203949 0.32260850071907043 0
          0.7777777910232544 -1.2000000476837158 0 0.39402180910110474 4.742348735931046e-10 0
          0.24515259265899658 0.8073607087135315 0 0.366202712059021 -0.29110780358314514 0
          0.4311263859272003 -0.628279983997345 0 0.22986270487308502 0.006300130859017372 0
          0.4553210139274597 -0.959943413734436 0 0 1.2000000476837158 0
          0 0.4000000059604645 0 0.2216119021177292 -0.7970559000968933 0
          0 -0.4000000059604645 0 0 -1.2000000476837158 0