<?xml version="1.0"?>
<VTKFile type="UnstructuredGrid" version="0.1" byte_order="LittleEndian" header_type="UInt32" compressor="vtkZLibDataCompressor">
  <UnstructuredGrid>
    <Piece NumberOfPoints="44" NumberOfCells="60">
      <PointData>
        <DataArray type="Float64" Name="Density" format="ascii" RangeMin="0.9980722269440337" RangeMax="1.7">
          1.7 1.0802381481667669 1.7 1.1005277273429332 0.9980722269440337 1.002025627226516
          1.7 1.101017719528716 0.9993494151331955 1.0017662351144367 1.0001418527140629 1.7
          1.10087803472717 0.999945848291514 1.0017199209992877 0.9999309098631664 1.7 1.1008889088008353
          1.0017283489539701 0.9999340928103015 1.7 1.1008889088008353 1.0017283489539701 0.9999340928103015
          1.7 1.1008889088008353 1.0017283489539701 0.9999340928103015 1.7 1.1009214895052952
          1.0017283489539701 0.9999340928103015 1.7 1.1021470176339352 1.001808088982706 0.9999340928103015
          1.7 1.105384979578123 1.002999093273014 1.0000234136152384 1 1
          1 1
        </DataArray>
        <DataArray type="Float64" Name="Momentum" NumberOfComponents="3" format="ascii" RangeMin="2.8945727865308326" RangeMax="4.535233026008696">
          4.4528099999999995 -0.86071 0 3.1208241722855967 -0.06122852827065666 0
          4.4528099999999995 -0.86071 0 3.1701491866974725 -0.08152056196521178 0
          2.8945722623787087 0.001741950824040251 0 2.905776179494111 -0.0015749595821375499 0
          4.4528099999999995 -0.86071 0 3.171662302301593 -0.08213352070507828 0
          2.898043761085771 0.0004431837069968279 0 2.905114558209699 -0.0012940116389504493 0
          2.900461649024468 0 0 4.4528099999999995 -0.86071 0
          3.171242973319635 -0.08199868343639312 0 2.8998428904379367 0 0
          2.9049730359800625 -0.0012277495564550654 0 2.899797571427125 0 0
          4.4528099999999995 -0.86071 0 3.1712765327364645 -0.08200786058142205 0
          2.9050001272110237 -0.0012366038256120693 0 2.8998088685915584 0 0
          4.4528099999999995 -0.86071 0 3.1712765327364645 -0.08200786058142207 0
          2.9050001272110237 -0.0012366038256120728 0 2.8998088685915584 0 0
          4.4528099999999995 -0.86071 0 3.1712765327364645 -0.08200786058142207 0
          2.9050001272110237 -0.0012366038256120659 0 2.8998088685915584 0 0
          4.4528099999999995 -0.86071 0 3.171377314822913 -0.08203916247503062 0
          2.9050001272110237 -0.0012366038256120628 0 2.8998088685915584 0 0
          4.4528099999999995 -0.86071 0 3.1748219380563065 -0.0836768438077163 0
          2.9052489517499236 -0.001297753588368132 0 2.8998088685915584 0 0
          4.4528099999999995 -0.86071 0 3.179460360778305 -0.09167565080216755 0
          2.908693838437188 -0.0023991689921409355 0 2.9000825158936894 0 0
          2.9 0 0 2.9 0 0
          2.9 0 0 2.9 0 0
          <InformationKey name="L2_NORM_RANGE" location="vtkDataArray" length="2">
            <Value index="0">
              2.8945727865
            </Value>
            <Value index="1">
              4.535233026
            </Value>
          </InformationKey>
        </DataArray>
        <DataArray type="Float64" Name="Energy" format="ascii" RangeMin="4.912294883739461" RangeMax="7.585636452999999">
          7.585636452999999 5.33338536852763 7.585636452999999 5.423703891191145 4.912294883739461 4.933376526281701
          7.585636452999999 5.42649747630019 4.919374519774652 4.93193692993074 4.923948018005687 7.585636452999999
          5.4256913736045025 4.922721531018735 4.931645457014243 4.9226290283199114 7.585636452999999 5.425757025339089
          4.931702034846832 4.9226558718972075 7.585636452999999 5.425757025339089 4.931702034846832 4.9226558718972075
          7.585636452999999 5.425757025339089 4.931702034846831 4.9226558718972075 7.585636452999999 5.4259530886469145
          4.931702034846831 4.9226558718972075 7.585636452999999 5.433059309580808 4.932192232218906 4.9226558718972075
          7.585636452999999 5.442421258549641 4.938881908334978 4.923175409735723 4.923 4.923
          4.923 4.923
        </DataArray>
        <DataArray type="Float64" Name="DERPR" format="ascii" RangeMin="-3.787341463414633" RangeMax="2.428159058046705">
          2.428159058046705 1.0317096070381369 2.3381857643479593 1.340358327089986 0.08343018623304689 0.14202306790097735
          2.33552359086839 1.2902278378947296 0.0020009859145968534 0.12266389370914935 0.012422734726304558 2.336152290237015
          1.2888534329154853 0.0030851793074304088 0.12277783377942263 0.00360679236582361 2.336106651866398 1.2892419024520887
          0.12304729071604939 0.003732167655331173 2.336106651866398 1.2892100298010805 0.12301178472154412 0.003709811847817238
          2.336157286625309 1.2893076174027518 0.12301178472154409 0.0037098118478172317 2.3371755713735434 1.2929975380438352
          0.12331692620049625 0.0037098118478172295 2.3268719692762274 1.3013577841394233 0.12979221090261897 0.004256885240055984
          0.048418152382789695 1.019860795602521 0.13044974375500623 0.00905220445519103 -3.787341463414633 -0.9478197924457825
          -0.15206341714146673 -0.007104117287129341
        </DataArray>
        <DataArray type="Float64" Name="MORPR" NumberOfComponents="3" format="ascii" RangeMin="0.007540590802736649" RangeMax="10.620259285767293">
          5.9196672694337575 -2.665605867497699 0 2.931108814772711 -0.6889771043170397 0
          5.688130088152127 -2.5668630500102605 0 3.7984172029939187 -0.8695946402746432 0
          0.244778414203157 -0.06125633958782996 0 0.40699671128873466 -0.1109882040735164 0
          5.680216308275872 -2.5641057752978034 0 3.665093619012039 -0.816101935849475 0
          0.0075370806908275495 -0.00023005285103873047 0 0.35583182873135943 -0.08563979967445037 0
          0.0375094292586259 -0.00947236170175089 0 5.682088308552226 -2.5647377767383253 0
          3.6608495319541157 -0.8144559330662516 0 0.008742386485957177 -0.0014126000426646391 0
          0.35594098186454115 -0.08558690476933101 0 0.010412353633885981 -0.0017320266310499705 0
          5.681948914417493 -2.5646935365291514 0 3.6620560066269436 -0.8148148604023715 0
          0.3568116190840122 -0.08589664848675582 0 0.010841323655583612 -0.0018928862326609433 0
          5.681948914417494 -2.5646935365291523 0 3.6619544303728184 -0.8147898453165501 0
          0.356693250211994 -0.08586507318201962 0 0.010758454356598607 -0.0018744450240310133 0
          5.68211724873749 -2.5647301210376097 0 3.662264820947068 -0.8148736811305356 0
          0.3566932502119929 -0.08586507318201941 0 0.010758454356598347 -0.0018744450240300256 0
          5.685640274636197 -2.5661670500254985 0 3.673428639570805 -0.8193596072418172 0
          0.3576681185831216 -0.08608401130529743 0 0.01075845435659858 -0.001874445024029794 0
          5.6526921768154885 -2.564857393644974 0 3.688418535961131 -0.8435565899447169 0
          0.37725521514384014 -0.09184932771561001 0 0.01248881060761866 -0.0021031390603534258 0
          0.17611133866637063 0.22661297347911083 0 2.875939891822901 -0.5979466028264218 0
          0.37363066784707355 -0.09740322350859168 0 0.026816975174331608 -0.005904444310395585 0
          -8.702113935308102 6.087948780487805 0 -1.9655478318959825 2.0749080980594536 0
          -0.43176810958525075 0.1669242987271481 0 -0.022285504201116007 0.006504473648640048 0
          <InformationKey name="L2_NORM_RANGE" location="vtkDataArray" length="2">
            <Value index="0">
              0.0075405908027
            </Value>
            <Value index="1">
              10.620259286
            </Value>
          </InformationKey>
        </DataArray>
        <DataArray type="Float64" Name="ENRPR" format="ascii" RangeMin="-15.936461299466677" RangeMax="10.954200705080936">
          10.954200705080936 5.371968298869289 10.513805128198857 6.95584822434263 0.44900443769752024 0.743090300054396
          10.498965416001923 6.701186745295083 0.016129239287042775 0.6392937670584151 0.07204967031233374 10.502618525553675
          6.6931340184261 0.014513053241809976 0.6400726135387179 0.018592805328188317 10.502341763469829 6.695495513747378
          0.6418489529613169 0.0195371323964201 10.502341763469836 6.695294835825973 0.6416038530361644 0.01934656614902576
          10.502670386808035 6.695904004202383 0.6416038530361625 0.01934656614902239 10.510419490483988 6.719099848139451
          0.6435205545639578 0.019346566149025708 10.447766802504518 6.754788157935401 0.6820666862014261 0.02269854696741167
          0.5592779139509715 5.200298904991772 0.6752793742930434 0.05003868547264395 -15.936461299466677 -3.8208878902463654
          -0.8751999084680527 -0.04285972215263345
        </DataArray>
      </PointData>
      <CellData>
        <DataArray type="UInt8" Name="vtkGhostType" format="ascii" RangeMin="0" RangeMax="0">
          0 0 0 0 0 0
          0 0 0 0 0 0
          0 0 0 0 0 0
          0 0 0 0 0 0
          0 0 0 0 0 0
          0 0 0 0 0 0
          0 0 0 0 0 0
          0 0 0 0 0 0
          0 0 0 0 0 0
          0 0 0 0 0 0
        </DataArray>
        <DataArray type="Float64" Name="sgvis" format="ascii" RangeMin="0.38271429044224287" RangeMax="0.48694263253738357">
          0.4868735623888413 0.4867083651487085 0.48689184895288384 0.4866146489208375 0.48689143773770305 0.48671172608259117
          0.4868914377377028 0.486715707329089 0.4868914377377028 0.486715707329089 0.48689143773770316 0.4867157073290892
          0.4868913829086047 0.4867162904082465 0.4868908254773483 0.4867119073388556 0.48687701174953535 0.48667293506531684
          0.48694263253738357 0.48693417769255054 0.4840807618324645 0.47847964591303427 0.48445329970704754 0.4708636792168909
          0.4844953262722579 0.4719045465497842 0.48449491301436853 0.4720257600094153 0.48449491301436853 0.4720272649209607
          0.48449491301436876 0.4720272649209609 0.484494833968249 0.4720277067331369 0.4844945378892498 0.4720214171795569
          0.48447333634356926 0.4720377824612074 0.48533754367513315 0.4739863299693592 0.4648314736806479 0.4357051818964428
          0.4622691149425182 0.38271429044224287 0.46268763697930393 0.38341230526986236 0.4627142075949827 0.38350273124648143
          0.46271403966481284 0.3835037980611518 0.46271403966481317 0.383503798061152 0.462713997032957 0.383503798061152
          0.462713870873675 0.38350411104788684 0.46270870444795076 0.38349874465766093 0.4635496096434012 0.3835187804757666
        </DataArray>
        <DataArray type="Float64" Name="sgtco" format="ascii" RangeMin="0.38271429044224287" RangeMax="0.48694263253738357">
          0.4868735623888413 0.4867083651487085 0.48689184895288384 0.4866146489208375 0.48689143773770305 0.48671172608259117
          0.4868914377377028 0.486715707329089 0.4868914377377028 0.486715707329089 0.48689143773770316 0.4867157073290892
          0.4868913829086047 0.4867162904082465 0.4868908254773483 0.4867119073388556 0.48687701174953535 0.48667293506531684
          0.48694263253738357 0.48693417769255054 0.4840807618324645 0.47847964591303427 0.48445329970704754 0.4708636792168909
          0.4844953262722579 0.4719045465497842 0.48449491301436853 0.4720257600094153 0.48449491301436853 0.4720272649209607
          0.48449491301436876 0.4720272649209609 0.484494833968249 0.4720277067331369 0.4844945378892498 0.4720214171795569
          0.48447333634356926 0.4720377824612074 0.48533754367513315 0.4739863299693592 0.4648314736806479 0.4357051818964428
          0.4622691149425182 0.38271429044224287 0.46268763697930393 0.38341230526986236 0.4627142075949827 0.38350273124648143
          0.46271403966481284 0.3835037980611518 0.46271403966481317 0.383503798061152 0.462713997032957 0.383503798061152
          0.462713870873675 0.38350411104788684 0.46270870444795076 0.38349874465766093 0.4635496096434012 0.3835187804757666
        </DataArray>
        <DataArray type="Float64" Name="MOSGS" NumberOfComponents="3" format="ascii" RangeMin="0" RangeMax="0.24898301173617648">
          6.91074960842266e-310 6.91074960842266e-310 4.64068504247227e-310 -0.0022697503534927135 0.0006211483774567772 0
          -0.0008395156628222523 -0.00014263451874735255 0 -0.003250657290339046 0.0008191244591543003 0
          -0.004896809211946855 0.0012386775003897866 0 -0.00290266788188769 0.0007258267058843198 0
          -0.005985587712895363 0.0015040241113119244 0 -0.002902667881887683 0.0007258267058843186 0
          -0.005804704859829037 0.0014513426600949435 0 -0.0029026678818876825 0.0007258267058843215 0
          -0.005804704859829042 0.0014513426600949457 0 -0.0029026678818877016 0.0007258267058843177 0
          -0.005804704859829038 0.00145134266009494 0 -0.002891695041492991 0.0007211871940189641 0
          -0.005796653704045071 0.001448261315744329 0 -0.0028556731993359587 0.0007087148279415967 0
          -0.00581337428903863 0.0014554728668028979 0 -0.0034270130648359903 0.0009559475691111277 0
          -0.006463104197728958 0.001724657339661361 0 -0.0020990417394516608 0.0005321261870124714 0
          -0.003514162230896978 0.0009470882151894854 0 -0.022991544325742033 0.007715566476568867 0
          -0.06320489203297386 0.0052414004990510585 0 -0.03364721000269033 0.011075641738118444 0
          -0.0722635247662933 0.02217082928571116 0 -0.035078567761455424 0.011356535968723307 0
          -0.07670109374448583 0.0241027424489335 0 -0.03480679881311442 0.011270039084362325 0
          -0.07758097706866458 0.024320978786688284 0 -0.03480679881311443 0.011270039084362325 0
          -0.07749009097338994 0.024287163353544285 0 -0.03480679881311445 0.01127003908436233 0
          -0.07749009097338999 0.02428716335354429 0 -0.03478812718227827 0.011263708759797297 0
          -0.07747947049833775 0.024283914373329874 0 -0.03484112514147689 0.011279872278517334 0
          -0.07758548481470967 0.02431383912905584 0 -0.03712035667189127 0.012110337272979096 0
          -0.07851319476857985 0.024708130124048377 0 -0.026451127706236276 0.008052160907280557 0
          -0.05906701612074973 0.01725005710255115 0 0.1857852962680954 -0.07934327729061538 0
          -0.21797701072948447 0.12032690026197468 0 0.09119096355212872 -0.02220958795956334 0
          0.10532997321673002 -0.05286013001998886 0 0.0868841387713667 -0.020253691067707226 0
          0.032794890047919086 -0.016348795897456136 0 0.0862207392931729 -0.020067856734424655 0
          0.03258972559383709 -0.016443015743520206 0 0.08631162538844754 -0.02010167216756864 0
          0.032718898538767645 -0.016493713304143835 0 0.08631162538844762 -0.02010167216756866 0
          0.03271889853876763 -0.01649371330414383 0 0.08632224586349982 -0.020104921147783072 0
          0.03271889853876764 -0.016493713304143835 0 0.0861912594166297 -0.02007005890922238 0
          0.032745262961692834 -0.01650188607751437 0 0.08527479050723666 -0.019672889536094598 0
          0.032608001171381136 -0.01646745564362995 0 0.10783133529444541 -0.028322651364208314 0
          0.02841995940705325 -0.01565819974745543 0
          <InformationKey name="L2_NORM_RANGE" location="vtkDataArray" length="2">
            <Value index="0">
              0
            </Value>
            <Value index="1">
              0.24898301174
            </Value>
          </InformationKey>
        </DataArray>
        <DataArray type="Float64" Name="CORES" format="ascii" RangeMin="-3.7873414634146334" RangeMax="2.5187495682321916">
          0.006996249418882883 -0.021204483993141565 0.004560693598651966 0.01559967034803824 0.003709811847817157 0.004500150273698829
          0.003709811847817157 0.003709811847817373 0.003709811847817157 0.0037098118478173818 0.003709811847817157 0.0037098118478174026
          0.003710803097282777 0.0037758880208935827 0.003771501132343147 0.0033380728678449037 0.003215711934678289 0.0022683248552697894
          0.0020009859145968534 0.03205150632963853 0.24662490787105984 -0.6816106360446463 0.2555393838824651 0.27914261801541784
          0.24301451658599937 0.25553874131204674 0.24231372180468647 0.24265343743367845 0.24231372180468647 0.24231372180468563
          0.24231372180468647 0.24231372180468563 0.24237882935033994 0.24239557404085504 0.2421733025248427 0.24128999956273206
          0.23822304873208555 0.2462090045583965 0.21623802661254918 0.3601416723815681 1.6254926422591773 -3.7873414634146334
          2.342412927838037 2.307103278303825 2.344414266257629 2.3310997016868207 2.3363524618333464 2.336012746176182
          2.336106651866398 2.336106651866398 2.336106651866398 2.336106651866398 2.3362160355404082 2.336106651866398
          2.3347069178432003 2.336134183304239 2.3412590737249275 2.335729671457732 2.5187495682321916 2.337568547861219
        </DataArray>
        <DataArray type="Float64" Name="MORES" NumberOfComponents="3" format="ascii" RangeMin="0.0066126791841902045" RangeMax="10.464034286801086">
          0.020151433532496266 -0.00396988640852639 0 -0.06472056432018361 0.016969718178515274 0
          0.013430166937567746 -0.002003916127307906 0 0.04686770613296491 -0.011765349762154705 0
          0.01075842454815347 -0.0018768750623658621 0 0.013277798242753335 -0.0024390096104736324 0
          0.010758424548154656 -0.0018768750623658621 0 0.010758394739708894 -0.0018793051007019 0
          0.010758424548154656 -0.0018768750623665833 0 0.0107583947397082 -0.0018793051007018726 0
          0.010758424548154656 -0.0018768750623673067 0 0.010758394739708983 -0.0018793051007033918 0
          0.010783316117054782 -0.0018695383143155935 0 0.01098209429251572 -0.0019419205891372773 0
          0.010899501582741094 -0.0019331395802573916 0 0.009554201885114395 -0.0014033642358525756 0
          0.008714941636842964 -0.0023679043847784583 0 0.006612485744992351 0.00005057929710247076 0
          0.0075366037494366545 -0.00023184213529692818 0 0.09627620652932524 -0.02582501748001864 0
          0.7079046166416537 -0.17601192903149812 0 -1.9409339860215997 0.6450784067310597 0
          0.7395101537724237 -0.18966554192763652 0 0.7774851284678039 -0.25875354635170605 0
          0.7019072367655179 -0.17917550744496308 0 0.7363163925323103 -0.20227584672625015 0
          0.6996494699614506 -0.17867812812686318 0 0.6977390536525703 -0.1877893347235084 0
          0.6996494699614498 -0.1786781281268625 0 0.6966709082106155 -0.1875078702237215 0
          0.6996494699614494 -0.17867812812686254 0 0.6966709082106175 -0.18750787022372092 0
          0.6998701085193308 -0.1787379713830506 0 0.6969359969304189 -0.1875718609652856 0
          0.6991153514836947 -0.17835994123055388 0 0.6934316181942778 -0.18656590506019993 0
          0.6878284498110404 -0.17541136665507176 0 0.709045930022244 -0.19194565155135768 0
          0.6290440954631645 -0.1636056847791286 0 1.003899876606289 -0.3261355549570423 0
          4.342255928728373 -1.0856087189986454 0 -8.725482841436236 5.775981539024389 0
          6.301309255784279 -1.869073889249719 0 5.916721053174571 -2.168161250744588 0
          6.338685370480961 -1.8232497126828289 0 5.983552998193344 -2.1839903713221407 0
          6.314909112083583 -1.8106449731035534 0 5.997761075420847 -2.1874818491655357 0
          6.314127907982206 -1.8103926880751895 0 5.998038411199849 -2.1875431123021705 0
          6.314127907982203 -1.8103926880751895 0 5.998038411199849 -2.18754311230217 0
          6.314472335594381 -1.81047317203865 0 5.998038411199849 -2.18754311230217 0
          6.309806384690232 -1.8092596034103772 0 5.998120116633789 -2.187563237251236 0
          6.330049276287304 -1.815114941697458 0 5.996931032244562 -2.1872979816351608 0
          6.813003258703144 -1.982277114941975 0 6.0023127775129925 -2.1881337540819987 0
          <InformationKey name="L2_NORM_RANGE" location="vtkDataArray" length="2">
            <Value index="0">
              0.0066126791842
            </Value>
            <Value index="1">
              10.464034287
            </Value>
          </InformationKey>
        </DataArray>
        <DataArray type="Float64" Name="ENRES" format="ascii" RangeMin="-15.755660713786629" RangeMax="12.511000602454903">
          0.036016449929401 -0.12172289046703824 0.024457320325712774 0.08965619459235871 0.019347339508766777 0.024294910074500457
          0.01934733950876205 0.019348112868501494 0.01934733950876205 0.019348112868491543 0.01934733950876205 0.01934811286850165
          0.01944639770909705 0.019820658936483156 0.019497233248251138 0.016838350693360378 0.014589592535081967 0.00945871906546324
          0.016131697683004632 0.18543401871826484 1.2798629039022191 -3.770293591851755 1.345889913145275 1.4376452536071092
          1.2727454310398485 1.353392893816458 1.2682523502491618 1.2747263706042626 1.2682523502491518 1.2726460673306788
          1.2682523502491636 1.2726460673306748 1.2687164714513655 1.2731739474680552 1.2669781420863653 1.266278534597482
          1.2445212438207807 1.2958993729893264 1.1496072418693966 1.8677746879879367 7.715412590262591 -15.755660713786629
          11.572303283993502 10.8909612989894 11.63022573832286 11.012639421754024 11.578049356908474 11.03890027604923
          11.576481596300894 11.039411679885362 11.576481596300894 11.039411679885365 11.577150926262645 11.039411679885365
          11.56818025848511 11.039563096041487 11.606113940717115 11.037376115175725 12.511000602454903 11.047151055708024
        </DataArray>
      </CellData>
      <Points>
        <DataArray type="Float32" Name="Points" NumberOfComponents="3" format="ascii" RangeMin="0" RangeMax="4.2201894765504395">
          4.099999904632568 1 0 4.099999904632568 0.6666666865348816 0
          3.690000057220459 1 0 3.690000057220459 0.6666666865348816 0
          4.099999904632568 0.3333333134651184 0 3.690000057220459 0.3333333134651184 0
          3.2799999713897705 1 0 3.2799999713897705 0.6666666865348816 0
          4.099999904632568 0 0 3.2799999713897705 0.3333333134651184 0
          3.690000057220459 0 0 2.869999885559082 1 0
          2.869999885559082 0.6666666865348816 0 3.2799999713897705 0 0
          2.869999885559082 0.3333333134651184 0 2.869999885559082 0 0
          2.4600000381469727 1 0 2.4600000381469727 0.6666666865348816 0
          2.4600000381469727 0.3333333134651184 0 2.4600000381469727 0 0
          2.049999952316284 1 0 2.049999952316284 0.6666666865348816 0
          2.049999952316284 0.3333333134651184 0 2.049999952316284 0 0
          1.6399999856948853 1 0 1.6399999856948853 0.6666666865348816 0
          1.6399999856948853 0.3333333134651184 0 1.6399999856948853 0 0
          1.2300000190734863 1 0 1.2300000190734863 0.6666666865348816 0
          1.2300000190734863 0.3333333134651184 0 1.2300000190734863 0 0
          0.8199999928474426 1 0 0.8199999928474426 0.6666666865348816 0
          0.8199999928474426 0.3333333134651184 0 0.8199999928474426 0 0
          0.4099999964237213 1 0 0.4099999964237213 0.6666666865348816 0
          0.4099999964237213 0.3333333134651184 0 0.4099999964237213 0 0
          0 1 0 0 0.6666666865348816 0
          0 0.3333333134651184 0 0 0 0
          <InformationKey name="L2_NORM_RANGE" location="vtkDataArray" length="2">
            <Value index="0">
              0
            </Value>
            <Value index="1">
              4.2201894766
            </Value>
          </InformationKey>
        </DataArray>
      </Points>
      <Cells>
        <DataArray type="Int64" Name="connectivity" format="ascii" RangeMin="0" RangeMax="43">
          39 38 43 38 42 43
          35 34 39 34 38 39
          31 30 35 30 34 35
          27 26 31 26 30 31
          23 22 27 22 26 27
          19 18 23 18 22 23
          15 14 19 14 18 19
          13 9 15 9 14 15
          10 5 13 5 9 13
          8 4 10 4 5 10
          38 37 42 37 41 42
          34 33 38 33 37 38
          30 29 34 29 33 34
          26 25 30 25 29 30
          22 21 26 21 25 26
          18 17 22 17 21 22
          14 12 18 12 17 18
          9 7 14 7 12 14
          5 3 9 3 7 9
          4 1 5 1 3 5
          37 36 41 36 40 41
          33 32 37 32 36 37
          29 28 33 28 32 33
          25 24 29 24 28 29
          21 20 25 20 24 25
          17 16 21 16 20 21
          12 11 17 11 16 17
          7 6 12 6 11 12
          3 2 7 2 6 7
          1 0 3 0 2 3
        </DataArray>
        <DataArray type="Int64" Name="offsets" format="ascii" RangeMin="3" RangeMax="180">
          3 6 9 12 15 18
          21 24 27 30 33 36
          39 42 45 48 51 54
          57 60 63 66 69 72
          75 78 81 84 87 90
          93 96 99 102 105 108
          111 114 117 120 123 126
          129 132 135 138 141 144
          147 150 153 156 159 162
          165 168 171 174 177 180
        </DataArray>
        <DataArray type="UInt8" Name="types" format="ascii" RangeMin="5" RangeMax="5">
          5 5 5 5 5 5
          5 5 5 5 5 5
          5 5 5 5 5 5
          5 5 5 5 5 5
          5 5 5 5 5 5
          5 5 5 5 5 5
          5 5 5 5 5 5
          5 5 5 5 5 5
          5 5 5 5 5 5
          5 5 5 5 5 5
        </DataArray>
      </Cells>
    </Piece>
  </UnstructuredGrid>
</VTKFile>
