<?xml version="1.0"?>
<VTKFile type="UnstructuredGrid" version="0.1" byte_order="LittleEndian" header_type="UInt32" compressor="vtkZLibDataCompressor">
  <UnstructuredGrid>
    <Piece NumberOfPoints="36" NumberOfCells="50">
      <PointData>
        <DataArray type="Float64" Name="Velocity" NumberOfComponents="3" format="ascii" RangeMin="0" RangeMax="0.2164995372857212">
          0 0 0 0 0 0
          0 0 0 0.10724770713303394 0.05570846290356726 0
          0 0 0 0 0 0
          0.0142235079673846 0.1146742586564761 0 0.09118438699339174 -0.07451350219589453 0
          0.015521273628129328 -0.06359849533119366 0 0 0 0
          0 0 0 0.11555040549277729 0.06372095520838449 0
          -0.00026224949012697285 0.095383023044573 0 0.03460575213574878 0.09565114951062631 0
          -0.0034025621534162637 -0.0674963342538068 0 0 0 0
          0 0 0 -0.06363887770514391 0.049513135346902076 0
          0.052193069315618956 -0.16815302547807848 0 0.00040691890541040207 0.08885605938460596 0
          -0.07812409518707764 -0.05237159448625632 0 0.006282862967791958 -0.19413027007407674 0
          0 0 0 0 0 0
          -0.07225786571769824 0.08484134974165758 0 -0.00022806476049764927 -0.20351157280409526 0
          0 0 0 0 0 0
          0 0 0 0 0 0
          -0.06091342194281692 -0.2077537115724957 0 0 0 0
          0 0 0 0 0 0
          0 0 0 0 0 0
          <InformationKey name="L2_NORM_RANGE" location="vtkDataArray" length="2">
            <Value index="0">
              0
            </Value>
            <Value index="1">
              0.21649953729
            </Value>
          </InformationKey>
        </DataArray>
        <DataArray type="Float64" Name="Pressure" format="ascii" RangeMin="-1.0463963560234049" RangeMax="0.49497668381071896">
          -0.8979754144657749 -0.9278031710039458 -0.6641145701233364 -0.6756987532571268 -0.9564667083221842 -0.405004652625486
          -0.4062421780043796 -0.6899255947899493 -0.4086944443628931 -0.9863517900848526 -0.1312068024928759 -0.7035283394286173
          -0.13099091802250942 -0.41396662170414783 -0.12700628590166338 -1.0193810356566684 0.1392657718107674 0.14044933600073425
          -0.7258586444197032 -0.12321462869690415 0.1540888372133813 -0.4191324994915173 0.39835686972134965 -1.0463963560234049
          0.16848449564525622 -0.11522539508152019 0.4115522974800464 -0.7220208079493986 0.43573282002418634 -0.4187922920017941
          0.19302825129162965 0.46736274460716803 -0.11236111028344059 0.49497668381071896 0.1901816329631045 0.4411749739074945
        </DataArray>
        <DataArray type="Float64" Name="Temperature" format="ascii" RangeMin="240" RangeMax="960.0000000000002">
          960.0000000000001 614.2378749315969 959.9999999999999 641.0256156007582 586.9991921833347 960
          619.0976200807097 593.9422414599607 595.2106857815185 603.6608400682807 960.0000000000002 603.9361176340251
          614.5932645322002 602.7806189432965 597.8418650346515 583.901005316003 960.0000000000001 600.6839199204007
          590.9740744969764 603.265743253279 596.126139658924 586.9715527288606 960.0000000000001 240
          603.5875136537232 586.9190036329443 614.8506412871848 240.00000000000003 596.5856692039109 240.00000000000003
          577.7935784675593 606.4495604952497 240.00000000000006 588.6110004164004 240 240
        </DataArray>
        <DataArray type="Float64" Name="Density" format="ascii" RangeMin="0.3670423342811823" RangeMax="1.4681693371247297">
          0.3670423342811824 0.5736550207835602 0.36704233428118244 0.5496826216214601 0.6002744903265284 0.36704233428118244
          0.5691519874749301 0.593257418505548 0.5919931367617863 0.5837063091090674 0.3670423342811823 0.5834402524067283
          0.5733233037920382 0.5845586766336985 0.5893876985170852 0.6034595551333913 0.3670423342811824 0.5865990901781223
          0.5962370535625551 0.5840885958644559 0.5910840298188227 0.6003027561928557 0.3670423342811824 1.4681693371247297
          0.5837772202691449 0.6003565035871617 0.5730833103992069 1.4681693371247295 0.5906287379985647 1.4681693371247295
          0.609838277961614 0.5810221721031245 1.4681693371247293 0.5986307436671503 1.4681693371247297 1.4681693371247297
        </DataArray>
        <DataArray type="Float64" Name="stream" format="ascii" RangeMin="-0.021076076463433888" RangeMax="0.01714627277779876">
          0 0.0011495071499333126 -0.00042949370191222206 -0.004906428986227157 0.002554940251158364 -0.0042141243985161095
          -0.013867625084409039 -0.00704066236340209 -0.016076005368631505 0.00553190559376033 -0.004927901766986187 -0.0052364377965117325
          -0.01459988903774443 -0.017570388335845368 -0.01653393844562932 0.00846061596511922 -0.0049140113677336545 -0.010302386852555958
          -0.0020733868362063194 -0.021076076463433888 -0.01019984366074172 -0.008207034164611826 -0.002660064377562204 0.01714627277779876
          -0.011226204881950511 -0.00555955226120873 -0.004268219672840932 0.01258695965926985 -0.001701985341214688 0.01345505485838905
          -0.0042466699873558 -0.0063369851595740994 0.011038098936280714 0.002565775139300099 0.006289222080791743 0.002565775139300099
        </DataArray>
      </PointData>
      <CellData>
        <DataArray type="UInt8" Name="vtkGhostType" format="ascii" RangeMin="0" RangeMax="0">
          0 0 0 0 0 0
          0 0 0 0 0 0
          0 0 0 0 0 0
          0 0 0 0 0 0
          0 0 0 0 0 0
          0 0 0 0 0 0
          0 0 0 0 0 0
          0 0 0 0 0 0
          0 0
        </DataArray>
      </CellData>
      <Points>
        <DataArray type="Float32" Name="Points" NumberOfComponents="3" format="ascii" RangeMin="0" RangeMax="1.4142135623730951">
          0 1 0 0.20000000298023224 1 0
          0 0.800000011920929 0 0.20000000298023224 0.800000011920929 0
          0.4000000059604645 1 0 0 0.6000000238418579 0
          0.20000000298023224 0.6000000238418579 0 0.4000000059604645 0.800000011920929 0
          0.4000000059604645 0.6000000238418579 0 0.6000000238418579 1 0
          0 0.4000000059604645 0 0.6000000238418579 0.800000011920929 0
          0.20000000298023224 0.4000000059604645 0 0.6000000238418579 0.6000000238418579 0
          0.4000000059604645 0.4000000059604645 0 0.800000011920929 1 0
          0 0.20000000298023224 0 0.20000000298023224 0.20000000298023224 0
          0.800000011920929 0.800000011920929 0 0.6000000238418579 0.4000000059604645 0
          0.4000000059604645 0.20000000298023224 0 0.800000011920929 0.6000000238418579 0
          0 0 0 1 1 0
          0.6000000238418579 0.20000000298023224 0 0.800000011920929 0.4000000059604645 0
          0.20000000298023224 0 0 1 0.800000011920929 0
          0.4000000059604645 0 0 1 0.6000000238418579 0
          0.800000011920929 0.20000000298023224 0 0.6000000238418579 0 0
          1 0.4000000059604645 0 0.800000011920929 0 0
          1 0.20000000298023224 0 1 0 0
          <InformationKey name="L2_NORM_RANGE" location="vtkDataArray" length="2">
            <Value index="0">
              0
            </Value>
            <Value index="1">
              1.4142135624
            </Value>
          </InformationKey>
        </DataArray>
      </Points>
      <Cells>
        <DataArray type="Int64" Name="connectivity" format="ascii" RangeMin="0" RangeMax="35">
          26 17 22 17 16 22
          28 20 26 20 17 26
          31 24 28 24 20 28
          33 30 31 30 24 31
          35 34 33 34 30 33
          17 12 16 12 10 16
          20 14 17 14 12 17
          24 19 20 19 14 20
          30 25 24 25 19 24
          34 32 30 32 25 30
          12 6 10 6 5 10
          14 8 12 8 6 12
          19 13 14 13 8 14
          25 21 19 21 13 19
          32 29 25 29 21 25
          6 3 5 3 2 5
          8 7 6 7 3 6
          13 11 8 11 7 8
          21 18 13 18 11 13
          29 27 21 27 18 21
          3 1 2 1 0 2
          7 4 3 4 1 3
          11 9 7 9 4 7
          18 15 11 15 9 11
          27 23 18 23 15 18
        </DataArray>
        <DataArray type="Int64" Name="offsets" format="ascii" RangeMin="3" RangeMax="150">
          3 6 9 12 15 18
          21 24 27 30 33 36
          39 42 45 48 51 54
          57 60 63 66 69 72
          75 78 81 84 87 90
          93 96 99 102 105 108
          111 114 117 120 123 126
          129 132 135 138 141 144
          147 150
        </DataArray>
        <DataArray type="UInt8" Name="types" format="ascii" RangeMin="5" RangeMax="5">
          5 5 5 5 5 5
          5 5 5 5 5 5
          5 5 5 5 5 5
          5 5 5 5 5 5
          5 5 5 5 5 5
          5 5 5 5 5 5
          5 5 5 5 5 5
          5 5 5 5 5 5
          5 5
        </DataArray>
      </Cells>
    </Piece>
  </UnstructuredGrid>
</VTKFile>
