<?xml version="1.0"?>
<VTKFile type="UnstructuredGrid" version="0.1" byte_order="LittleEndian" header_type="UInt32" compressor="vtkZLibDataCompressor">
  <UnstructuredGrid>
    <Piece NumberOfPoints="36" NumberOfCells="50">
      <PointData>
        <DataArray type="Float64" Name="Velocity" NumberOfComponents="3" format="ascii" RangeMin="0" RangeMax="0.08384630653581135">
          0 0 0 0 0 0
          0 0 0 0.03951226629739171 -0.018007499859562792 0
          0 0 0 0 0 0
          0.006576014258351075 0.007743860117267069 0 0.02665542085237954 -0.023215557722819954 0
          0.012205799460833278 -0.021963433790604645 0 0 0 0
          0 0 0 0.020829801925249553 -0.0038811046608240862 0
          0.00433560557782222 -0.001071643758685091 0 0.014138859254676985 0.011780278258405268 0
          0.008774175241238961 -0.023634148455424032 0 0 0 0
          0 0 0 -0.01832945853876941 -0.010623153176645861 0
          0.005028751446995106 -0.07250264433019418 0 0.011958496222479617 0.0038835276660935322 0
          -0.008961155663873038 -0.023122834944955678 0 0.005681344815478016 -0.059833602499806765 0
          0 0 0 0 0 0
          0.006372845016063486 0.009651499076080483 0 0.00397307477294815 -0.05637447901385684 0
          0 0 0 0 0 0
          0 0 0 0 0 0
          0.010761538633936737 -0.08315282560398972 0 0 0 0
          0 0 0 0 0 0
          0 0 0 0 0 0
          <InformationKey name="L2_NORM_RANGE" location="vtkDataArray" length="2">
            <Value index="0">
              0
            </Value>
            <Value index="1">
              0.083846306536
            </Value>
          </InformationKey>
        </DataArray>
        <DataArray type="Float64" Name="Pressure" format="ascii" RangeMin="-0.6976230334193083" RangeMax="0.6799607208251388">
          -0.5231478957739831 -0.5953949080570351 -0.3450149551546743 -0.3687243949819694 -0.6548231380435457 -0.10308447496908434
          -0.10737790639954435 -0.3933659684459905 -0.12380666767354477 -0.6845641704441768 0.14789601467107058 -0.41548305306471633
          0.14819140780998352 -0.1379939689542957 0.14085882018366605 -0.6925999917754929 0.39233204884891953 0.40257455161995886
          -0.4347910604829786 0.13193922143821493 0.4090277281616984 -0.1537673045826187 0.6163653441558542 -0.6976230334193083
          0.4064926146123135 0.11943371469630279 0.6514844671456278 -0.4289822379454181 0.6799607208251388 -0.15581806748725546
          0.4018063626140535 0.6769248511644159 0.1189967847978945 0.635336856116303 0.39601344416561945 0.5711969637333658
        </DataArray>
        <DataArray type="Float64" Name="Temperature" format="ascii" RangeMin="239.99999999999997" RangeMax="960.0000000000001">
          960 602.8925005333464 960.0000000000001 606.1622883716095 597.7820993706325 960
          603.6493463272259 598.616853642004 598.8211094170895 600.7906030872061 960 601.0265556121288
          603.3679229600481 600.878645467155 599.1622431249297 596.5937295713902 960 601.441623256276
          596.6691733284824 600.8132671983849 599.1488259319007 596.94760216551 960 240
          600.6967618855821 597.0226740646858 602.899402087274 240.00000000000003 599.2615238310275 239.99999999999997
          597.2292469087206 601.1200294887283 239.99999999999997 596.8370601736484 240.00000000000003 240
        </DataArray>
        <DataArray type="Float64" Name="Density" format="ascii" RangeMin="0.3675772878645501" RangeMax="1.4703091514582005">
          0.3675772878645501 0.5853020165913482 0.3675772878645501 0.5821447541679425 0.59030572631982 0.3675772878645501
          0.5845681743829508 0.5894825616804309 0.5892814912511459 0.5873497264050044 0.3675772878645501 0.5871191431642742
          0.5848408291558012 0.5872636663192198 0.5889459831606767 0.5914815708899303 0.3675772878645501 0.5867139597679747
          0.5914067830611744 0.5873275701707352 0.5889591718737271 0.5911309385779725 0.3675772878645501 1.4703091514582003
          0.5874414825248915 0.591056607528 0.585295316479493 1.4703091514582003 0.5888484114482666 1.4703091514582005
          0.5908521697094662 0.5870278464187907 1.4703091514582005 0.5912404237218448 1.4703091514582003 1.4703091514582003
        </DataArray>
        <DataArray type="Float64" Name="stream" format="ascii" RangeMin="-0.002660010640574592" RangeMax="0.01739261278864976">
          0 0.003955569687807772 -0.0004793313846412875 0.000893408449154678 0.0063807000781419725 -0.002080848087793458
          -0.001695442477293761 0.003615661033733345 0.001143908238123159 0.008402098858098239 -0.002465502668262494 0.0060533812429830365
          -0.0024819512421314425 0.0034989626329489116 0.0000627754206949394 0.01303716902891476 -0.002660010640574592 -0.002658107583159369
          0.010384021754749893 0.00132808790425771 -0.0006755200777983184 0.008233737895619592 -0.0019984148418919993 0.01739261278864976
          0.0006242655894842718 0.00838020642883202 -0.0012861265524377037 0.015313323063050124 -0.00016455359826106144 0.014638462140463925
          0.0031047597611708402 -0.0008147544024268283 0.011024496110286922 0.0035465948663401282 0.005646180854401377 0.0035465948663401282
        </DataArray>
      </PointData>
      <CellData>
        <DataArray type="UInt8" Name="vtkGhostType" format="ascii" RangeMin="0" RangeMax="0">
          0 0 0 0 0 0
          0 0 0 0 0 0
          0 0 0 0 0 0
          0 0 0 0 0 0
          0 0 0 0 0 0
          0 0 0 0 0 0
          0 0 0 0 0 0
          0 0 0 0 0 0
          0 0
        </DataArray>
      </CellData>
      <Points>
        <DataArray type="Float32" Name="Points" NumberOfComponents="3" format="ascii" RangeMin="0" RangeMax="1.4142135623730951">
          0 1 0 0.20000000298023224 1 0
          0 0.800000011920929 0 0.20000000298023224 0.800000011920929 0
          0.4000000059604645 1 0 0 0.6000000238418579 0
          0.20000000298023224 0.6000000238418579 0 0.4000000059604645 0.800000011920929 0
          0.4000000059604645 0.6000000238418579 0 0.6000000238418579 1 0
          0 0.4000000059604645 0 0.6000000238418579 0.800000011920929 0
          0.20000000298023224 0.4000000059604645 0 0.6000000238418579 0.6000000238418579 0
          0.4000000059604645 0.4000000059604645 0 0.800000011920929 1 0
          0 0.20000000298023224 0 0.20000000298023224 0.20000000298023224 0
          0.800000011920929 0.800000011920929 0 0.6000000238418579 0.4000000059604645 0
          0.4000000059604645 0.20000000298023224 0 0.800000011920929 0.6000000238418579 0
          0 0 0 1 1 0
          0.6000000238418579 0.20000000298023224 0 0.800000011920929 0.4000000059604645 0
          0.20000000298023224 0 0 1 0.800000011920929 0
          0.4000000059604645 0 0 1 0.6000000238418579 0
          0.800000011920929 0.20000000298023224 0 0.6000000238418579 0 0
          1 0.4000000059604645 0 0.800000011920929 0 0
          1 0.20000000298023224 0 1 0 0
          <InformationKey name="L2_NORM_RANGE" location="vtkDataArray" length="2">
            <Value index="0">
              0
            </Value>
            <Value index="1">
              1.4142135624
            </Value>
          </InformationKey>
        </DataArray>
      </Points>
      <Cells>
        <DataArray type="Int64" Name="connectivity" format="ascii" RangeMin="0" RangeMax="35">
          26 17 22 17 16 22
          28 20 26 20 17 26
          31 24 28 24 20 28
          33 30 31 30 24 31
          35 34 33 34 30 33
          17 12 16 12 10 16
          20 14 17 14 12 17
          24 19 20 19 14 20
          30 25 24 25 19 24
          34 32 30 32 25 30
          12 6 10 6 5 10
          14 8 12 8 6 12
          19 13 14 13 8 14
          25 21 19 21 13 19
          32 29 25 29 21 25
          6 3 5 3 2 5
          8 7 6 7 3 6
          13 11 8 11 7 8
          21 18 13 18 11 13
          29 27 21 27 18 21
          3 1 2 1 0 2
          7 4 3 4 1 3
          11 9 7 9 4 7
          18 15 11 15 9 11
          27 23 18 23 15 18
        </DataArray>
        <DataArray type="Int64" Name="offsets" format="ascii" RangeMin="3" RangeMax="150">
          3 6 9 12 15 18
          21 24 27 30 33 36
          39 42 45 48 51 54
          57 60 63 66 69 72
          75 78 81 84 87 90
          93 96 99 102 105 108
          111 114 117 120 123 126
          129 132 135 138 141 144
          147 150
        </DataArray>
        <DataArray type="UInt8" Name="types" format="ascii" RangeMin="5" RangeMax="5">
          5 5 5 5 5 5
          5 5 5 5 5 5
          5 5 5 5 5 5
          5 5 5 5 5 5
          5 5 5 5 5 5
          5 5 5 5 5 5
          5 5 5 5 5 5
          5 5 5 5 5 5
          5 5
        </DataArray>
      </Cells>
    </Piece>
  </UnstructuredGrid>
</VTKFile>
