<?xml version="1.0"?>
<VTKFile type="UnstructuredGrid" version="0.1" byte_order="LittleEndian" header_type="UInt32" compressor="vtkZLibDataCompressor">
  <UnstructuredGrid>
    <Piece NumberOfPoints="36" NumberOfCells="50">
      <PointData>
        <DataArray type="Float64" Name="Velocity" NumberOfComponents="3" format="ascii" RangeMin="0" RangeMax="0.18677928870361205">
          0 0 0 0 0 0
          0 0 0 0.09282491689384795 0.03414663488304126 0
          0 0 0 0 0 0
          0.012220679023298445 0.08749900302729509 0 0.07456775313113145 -0.06095247439285448 0
          0.014619647563951094 -0.05264018424498556 0 0 0 0
          0 0 0 0.09269785104029676 0.0484377184607873 0
          0.001019042336339226 0.07011218199514332 0 0.028861664255998405 0.07666828033760043 0
          0.0005049235744771651 -0.05758361825587052 0 0 0 0
          0 0 0 -0.053941556530962984 0.03541670111497307 0
          0.038046113791669084 -0.15056571686094256 0 0.003965245532504154 0.06703561084994546 0
          -0.061597913910381254 -0.04759372804642495 0 0.00594708005841494 -0.16014830393049678 0
          0 0 0 0 0 0
          -0.0520356093024563 0.07078941553252024 0 0.0007415560616292189 -0.16591184079332139 0
          0 0 0 0 0 0
          0 0 0 0 0 0
          -0.04167786146505155 -0.1820699276440984 0 0 0 0
          0 0 0 0 0 0
          0 0 0 0 0 0
          <InformationKey name="L2_NORM_RANGE" location="vtkDataArray" length="2">
            <Value index="0">
              0
            </Value>
            <Value index="1">
              0.1867792887
            </Value>
          </InformationKey>
        </DataArray>
        <DataArray type="Float64" Name="Pressure" format="ascii" RangeMin="-0.937965494578754" RangeMax="0.6060211903671513">
          -0.789085766547402 -0.8201437341187978 -0.5534605912049304 -0.5650350892971557 -0.8479400051872892 -0.2921402875854317
          -0.2932491714835058 -0.5779432462751874 -0.2959267903176891 -0.876071840432446 -0.017967214956070482 -0.5914518311716928
          -0.017500040872017588 -0.3004792511152424 -0.013600029992576458 -0.9113824982892383 0.25261216895738087 0.25416984072495735
          -0.6135152038851083 -0.009402527483460713 0.267630245484889 -0.3054113777151703 0.5127379294393061 -0.937965494578754
          0.2820843558574186 -0.001723573402018239 0.5251627447958354 -0.6115935296169237 0.5491525521099591 -0.3060706931599826
          0.3053014460757961 0.5787863536968326 0.00040315692872575244 0.6060211903671513 0.303287456518792 0.559543803048082
        </DataArray>
        <DataArray type="Float64" Name="Temperature" format="ascii" RangeMin="239.99999999999994" RangeMax="960.0000000000001">
          960.0000000000001 611.3532753803012 960 631.0196693261308 589.8755472212889 960
          615.0943823456283 594.7613797986231 595.9342307909748 603.1316011831476 960 603.4444243555329
          612.2783498403593 602.6195371102774 597.8876948650925 586.755397231936 960 601.6421005835778
          590.8113416020459 602.722882550179 596.943210820389 589.0142098890514 960.0000000000001 240
          602.8779751632425 589.3459299392845 611.7679784163406 240 597.1594351604258 239.99999999999994
          584.3724110234427 604.920666491261 239.99999999999997 590.4434423532107 239.99999999999997 240
        </DataArray>
        <DataArray type="Float64" Name="Density" format="ascii" RangeMin="0.3671587278315837" RangeMax="1.4686349113263353">
          0.3671587278315837 0.5765445167510713 0.3671587278315837 0.5585758984259991 0.5975368539664048 0.3671587278315837
          0.5730378765193506 0.5926282214855007 0.591461877010302 0.5844037653256511 0.3671587278315837 0.5841008127546363
          0.5756734315531837 0.5849003509055152 0.58952940785619 0.6007143357881941 0.3671587278315837 0.5858505885416446
          0.5965904069521671 0.5848000613930163 0.5904621617756767 0.5984106542772767 0.3671587278315837 1.4686349113263348
          0.5846496193908572 0.5980738320439962 0.5761536908661868 1.4686349113263348 0.5902483624388005 1.4686349113263353
          0.6031639620032996 0.5826753791745556 1.468634911326335 0.5969621363115537 1.468634911326335 1.4686349113263348
        </DataArray>
        <DataArray type="Float64" Name="stream" format="ascii" RangeMin="-0.015572939148173433" RangeMax="0.017501800977984205">
          0 0.00228467862119568 -0.0004889856834233887 -0.003404709043265899 0.0037042494887174564 -0.003822513215498287
          -0.010822017405024116 -0.004252593054899528 -0.011722513374840588 0.0062081480833585875 -0.004445891855976395 -0.0025730276396951552
          -0.011718784654120592 -0.012239287483643257 -0.01233736621147559 0.009638810553250476 -0.0044488604127314755 -0.008502017879662902
          0.000987280333973877 -0.015572939148173433 -0.007872336986366224 -0.0041924356857557235 -0.002508464898119806 0.017501800977984205
          -0.008194469277486377 -0.0019142854624999812 -0.0035704986440357397 0.013354366761361506 -0.0012419372624121472 0.013862946724725688
          -0.002497906218729707 -0.005160189375976051 0.011317323673627797 0.002800757524134178 0.006242978596546431 0.002800757524134178
        </DataArray>
      </PointData>
      <CellData>
        <DataArray type="UInt8" Name="vtkGhostType" format="ascii" RangeMin="0" RangeMax="0">
          0 0 0 0 0 0
          0 0 0 0 0 0
          0 0 0 0 0 0
          0 0 0 0 0 0
          0 0 0 0 0 0
          0 0 0 0 0 0
          0 0 0 0 0 0
          0 0 0 0 0 0
          0 0
        </DataArray>
      </CellData>
      <Points>
        <DataArray type="Float32" Name="Points" NumberOfComponents="3" format="ascii" RangeMin="0" RangeMax="1.4142135623730951">
          0 1 0 0.20000000298023224 1 0
          0 0.800000011920929 0 0.20000000298023224 0.800000011920929 0
          0.4000000059604645 1 0 0 0.6000000238418579 0
          0.20000000298023224 0.6000000238418579 0 0.4000000059604645 0.800000011920929 0
          0.4000000059604645 0.6000000238418579 0 0.6000000238418579 1 0
          0 0.4000000059604645 0 0.6000000238418579 0.800000011920929 0
          0.20000000298023224 0.4000000059604645 0 0.6000000238418579 0.6000000238418579 0
          0.4000000059604645 0.4000000059604645 0 0.800000011920929 1 0
          0 0.20000000298023224 0 0.20000000298023224 0.20000000298023224 0
          0.800000011920929 0.800000011920929 0 0.6000000238418579 0.4000000059604645 0
          0.4000000059604645 0.20000000298023224 0 0.800000011920929 0.6000000238418579 0
          0 0 0 1 1 0
          0.6000000238418579 0.20000000298023224 0 0.800000011920929 0.4000000059604645 0
          0.20000000298023224 0 0 1 0.800000011920929 0
          0.4000000059604645 0 0 1 0.6000000238418579 0
          0.800000011920929 0.20000000298023224 0 0.6000000238418579 0 0
          1 0.4000000059604645 0 0.800000011920929 0 0
          1 0.20000000298023224 0 1 0 0
          <InformationKey name="L2_NORM_RANGE" location="vtkDataArray" length="2">
            <Value index="0">
              0
            </Value>
            <Value index="1">
              1.4142135624
            </Value>
          </InformationKey>
        </DataArray>
      </Points>
      <Cells>
        <DataArray type="Int64" Name="connectivity" format="ascii" RangeMin="0" RangeMax="35">
          26 17 22 17 16 22
          28 20 26 20 17 26
          31 24 28 24 20 28
          33 30 31 30 24 31
          35 34 33 34 30 33
          17 12 16 12 10 16
          20 14 17 14 12 17
          24 19 20 19 14 20
          30 25 24 25 19 24
          34 32 30 32 25 30
          12 6 10 6 5 10
          14 8 12 8 6 12
          19 13 14 13 8 14
          25 21 19 21 13 19
          32 29 25 29 21 25
          6 3 5 3 2 5
          8 7 6 7 3 6
          13 11 8 11 7 8
          21 18 13 18 11 13
          29 27 21 27 18 21
          3 1 2 1 0 2
          7 4 3 4 1 3
          11 9 7 9 4 7
          18 15 11 15 9 11
          27 23 18 23 15 18
        </DataArray>
        <DataArray type="Int64" Name="offsets" format="ascii" RangeMin="3" RangeMax="150">
          3 6 9 12 15 18
          21 24 27 30 33 36
          39 42 45 48 51 54
          57 60 63 66 69 72
          75 78 81 84 87 90
          93 96 99 102 105 108
          111 114 117 120 123 126
          129 132 135 138 141 144
          147 150
        </DataArray>
        <DataArray type="UInt8" Name="types" format="ascii" RangeMin="5" RangeMax="5">
          5 5 5 5 5 5
          5 5 5 5 5 5
          5 5 5 5 5 5
          5 5 5 5 5 5
          5 5 5 5 5 5
          5 5 5 5 5 5
          5 5 5 5 5 5
          5 5 5 5 5 5
          5 5
        </DataArray>
      </Cells>
    </Piece>
  </UnstructuredGrid>
</VTKFile>
