<?xml version="1.0"?>
<VTKFile type="UnstructuredGrid" version="0.1" byte_order="LittleEndian" header_type="UInt32" compressor="vtkZLibDataCompressor">
  <UnstructuredGrid>
    <Piece NumberOfPoints="16" NumberOfCells="9">
      <PointData>
        <DataArray type="Float64" Name="Velocity" NumberOfComponents="3" format="ascii" RangeMin="0" RangeMax="0.6798152371072713">
          0.048177923259018096 -0.002878677991719898 0 0.6721576714517054 -0.007233129017896187 0
          0.6797964317268929 -0.005056482433411847 0 0 0 0
          0.046996234275220566 -0.009072823771094606 0 0.6415106069941916 0.00013423348143747866 0
          0.6498157821531878 -0.00047214181616241936 0 0 0 0
          0 0 0 0.6114558848007272 0.0036152285217822384 0
          0.6158175744168728 -0.000973629318924532 0 0 0 0
          0 0 0 0.5722981012385411 -0.0026956391153768965 0
          0.5710425396759247 -0.012970903935444837 0 -0.016689354519160753 -0.01972580937256884 0
          <InformationKey name="L2_NORM_RANGE" location="vtkDataArray" length="2">
            <Value index="0">
              0
            </Value>
            <Value index="1">
              0.67981523711
            </Value>
          </InformationKey>
        </DataArray>
        <DataArray type="Float64" Name="Pressure" format="ascii" RangeMin="303.81550048000327" RangeMax="304.3053856963796">
          303.84763412940384 303.8168475461491 303.81550048000327 304.16984398464575 303.84258888644234 304.1710748758594
          304.17240949303374 304.1693931233825 304.2731447800852 304.3006970205881 304.3053856963796 304.2846719970336
          304.120644614948 304.12290217624576 304.1383087872883 304.1807927984747
        </DataArray>
        <DataArray type="Float64" Name="Temperature" format="ascii" RangeMin="1.0117212086593068" RangeMax="1.0122198379700558">
          1.0119606307437565 1.0117212086593068 1.0117329709578524 1.0121269708024632 1.0119412647149801 1.0120077554854952
          1.0119965953250243 1.0121432506539343 1.01215386600715 1.0122085852808331 1.0122198379700558 1.0121387011442609
          1.0119743013411966 1.0120913313037094 1.0121054262074252 1.0120598460900019
        </DataArray>
        <DataArray type="Float64" Name="Density" format="ascii" RangeMin="1.0282752686924919" RangeMax="1.0295731141712978">
          1.0282752686924919 1.0284143962532435 1.0283978802773264 1.0291965118434994 1.0282778729732096 1.0293219173738055
          1.0293377850206036 1.029178432177644 1.0295186855835776 1.0295562494551533 1.0295606673021418 1.0295731141712978
          1.0291852821955725 1.0290739146369339 1.0291117147196627 1.0293018222736146
        </DataArray>
        <DataArray type="Float64" Name="Momentum" NumberOfComponents="3" format="ascii" RangeMin="0" RangeMax="0.6991205488213458">
          0.04954016698421308 -0.002960073385414941 0 0.6912566258729915 -0.007438654011961523 0
          0.6991012094080268 -0.005200075816180281 0 0 0 0
          0.048325187818274454 -0.009329383929201936 0 0.6603209280068951 0.00013816946448898666 0
          0.6688799378729934 -0.00048599341126422975 0 0 0 0
          0 0 0 0.629528227462719 0.0037220811178094193 0
          0.6340215528530219 -0.001002410451296871 0 0 0 0
          0 0 0 0.5889370473808297 -0.0027740118969093444 0
          0.5876665671837619 -0.013348509190469657 0 -0.017178383019142547 -0.020303811533007053 0
          <InformationKey name="L2_NORM_RANGE" location="vtkDataArray" length="2">
            <Value index="0">
              0
            </Value>
            <Value index="1">
              0.69912054882
            </Value>
          </InformationKey>
        </DataArray>
        <DataArray type="Float64" Name="Energy" format="ascii" RangeMin="747.1209683538987" RangeMax="748.4529847542971">
          747.1333938814291 747.2888386179965 747.290819087963 747.9244793869028 747.1209683538987 748.1393074793085
          748.1481122107479 747.9233707622899 748.1784861373327 748.4387055524858 748.4529847542971 748.2068304584593
          747.8035028545638 747.9775814971665 748.0148152361428 747.9517450728422
        </DataArray>
      </PointData>
      <CellData>
        <DataArray type="UInt8" Name="vtkGhostType" format="ascii" RangeMin="0" RangeMax="0">
          0 0 0 0 0 0
          0 0 0
        </DataArray>
      </CellData>
      <Points>
        <DataArray type="Float32" Name="Points" NumberOfComponents="3" format="ascii" RangeMin="0.4000000059604645" RangeMax="7.102112369882704">
          0 1.2000000476837158 0 0 0.4000000059604645 0
          0 -0.4000000059604645 0 2.3333330154418945 1.2000000476837158 0
          0 -1.2000000476837158 0 2.3333330154418945 0.4000000059604645 0
          2.3333330154418945 -0.4000000059604645 0 2.3333330154418945 -1.2000000476837158 0
          4.6666669845581055 1.2000000476837158 0 4.6666669845581055 0.4000000059604645 0
          4.6666669845581055 -0.4000000059604645 0 4.6666669845581055 -1.2000000476837158 0
          7 1.2000000476837158 0 7 0.4000000059604645 0
          7 -0.4000000059604645 0 7 -1.2000000476837158 0
          <InformationKey name="L2_NORM_RANGE" location="vtkDataArray" length="2">
            <Value index="0">
              0.40000000596
            </Value>
            <Value index="1">
              7.1021123699
            </Value>
          </InformationKey>
        </DataArray>
      </Points>
      <Cells>
        <DataArray type="Int64" Name="connectivity" format="ascii" RangeMin="0" RangeMax="15">
          7 6 2 4 11 10
          6 7 15 14 10 11
          6 5 1 2 10 9
          5 6 14 13 9 10
          5 3 0 1 9 8
          3 5 13 12 8 9
        </DataArray>
        <DataArray type="Int64" Name="offsets" format="ascii" RangeMin="4" RangeMax="36">
          4 8 12 16 20 24
          28 32 36
        </DataArray>
        <DataArray type="UInt8" Name="types" format="ascii" RangeMin="9" RangeMax="9">
          9 9 9 9 9 9
          9 9 9
        </DataArray>
      </Cells>
    </Piece>
  </UnstructuredGrid>
</VTKFile>
