<?xml version="1.0"?>
<VTKFile type="UnstructuredGrid" version="0.1" byte_order="LittleEndian" header_type="UInt32" compressor="vtkZLibDataCompressor">
  <UnstructuredGrid>
    <Piece NumberOfPoints="16" NumberOfCells="9">
      <PointData>
        <DataArray type="Float64" Name="Velocity" NumberOfComponents="3" format="ascii" RangeMin="0" RangeMax="0.6168022666303543">
          0.01500914810259507 -0.0043780219938193065 0 0.6087023851798562 -0.006531805874895561 0
          0.6167840945096166 -0.004734646797284363 0 0 0 0
          0.01930879397743887 -0.008037318747425568 0 0.6093166633847376 -0.00013995553324994096 0
          0.615131273496331 0.0011413571151743336 0 0 0 0
          0 0 0 0.6088697267003162 0.00004591688651104985 0
          0.6131536837633075 -0.0008999656705734886 0 0 0 0
          0 0 0 0.5991919179005287 -0.0032031075333030646 0
          0.6040227667213323 -0.00804117777408176 0 0.012675361786502946 -0.008172850048932957 0
          <InformationKey name="L2_NORM_RANGE" location="vtkDataArray" length="2">
            <Value index="0">
              0
            </Value>
            <Value index="1">
              0.61680226663
            </Value>
          </InformationKey>
        </DataArray>
        <DataArray type="Float64" Name="Pressure" format="ascii" RangeMin="304.26206101209203" RangeMax="304.39825960398116">
          304.2758290656465 304.26206101209203 304.26392007981974 304.3951807808125 304.2800048077016 304.3946489576063
          304.39657615396237 304.39825960398116 304.39252317649516 304.3977005511067 304.3980157985652 304.3911322540418
          304.31188803738394 304.3110793556068 304.3084207309845 304.3064780366546
        </DataArray>
        <DataArray type="Float64" Name="Temperature" format="ascii" RangeMin="1.0121800362378872" RangeMax="1.012368467073704">
          1.0123635601997012 1.0121914278541613 1.0122029305451918 1.0123524811839981 1.012356759342122 1.012232634991749
          1.0122270908718094 1.012368467073704 1.012287583708966 1.0122905000582063 1.0122905303049865 1.0122689822709103
          1.0121800362378872 1.0122610937009655 1.0122649172441522 1.0121929854632592
        </DataArray>
        <DataArray type="Float64" Name="Density" format="ascii" RangeMin="1.029314518485073" RangeMax="1.0298618139400768">
          1.029314518485073 1.0294429798121003 1.029437571119767 1.0297295345492312 1.0293355591979814 1.029849653035051
          1.0298618139400768 1.0297236896143114 1.0297865593147613 1.0298011080216 1.0298021437582636 1.0298007769566
          1.0296231528153683 1.029537969161298 1.0295250858127705 1.029591676385014
        </DataArray>
        <DataArray type="Float64" Name="Momentum" NumberOfComponents="3" format="ascii" RangeMin="0" RangeMax="0.6349594272211189">
          0.015449134052093791 -0.0045063616004851785 0 0.626624397218284 -0.006724121703406669 0
          0.6349407201572845 -0.004874023299106398 0 0 0 0
          0.019875228246205655 -0.008273097987333715 0 0.6275045543752469 -0.00014413315735778724 0
          0.6335002091342009 0.0011754401089868523 0 0 0 0
          0 0 0 0.6270147191967945 0.0000472852606059812 0
          0.6314269779927305 -0.0009267865768654218 0 0 0 0
          0 0 0 0.6168908302931736 -0.003297720824842092 0
          0.6218565907416467 -0.008278594237897266 0 0.013050446990552113 -0.008414698382724227 0
          <InformationKey name="L2_NORM_RANGE" location="vtkDataArray" length="2">
            <Value index="0">
              0
            </Value>
            <Value index="1">
              0.63495942722
            </Value>
          </InformationKey>
        </DataArray>
        <DataArray type="Float64" Name="Energy" format="ascii" RangeMin="748.1852123417765" RangeMax="748.6791133036719">
          748.1852123417765 748.3419680575928 748.3516256909045 748.4785609610389 748.1955794175371 748.6684277595232
          748.6768356158125 748.4861314919812 748.4720261668613 748.6756419760134 748.6791133036719 748.4686060219248
          748.2737520919235 748.456586902325 748.4530673720146 748.2605665144998
        </DataArray>
      </PointData>
      <CellData>
        <DataArray type="UInt8" Name="vtkGhostType" format="ascii" RangeMin="0" RangeMax="0">
          0 0 0 0 0 0
          0 0 0
        </DataArray>
      </CellData>
      <Points>
        <DataArray type="Float32" Name="Points" NumberOfComponents="3" format="ascii" RangeMin="0.4000000059604645" RangeMax="7.102112369882704">
          0 1.2000000476837158 0 0 0.4000000059604645 0
          0 -0.4000000059604645 0 2.3333330154418945 1.2000000476837158 0
          0 -1.2000000476837158 0 2.3333330154418945 0.4000000059604645 0
          2.3333330154418945 -0.4000000059604645 0 2.3333330154418945 -1.2000000476837158 0
          4.6666669845581055 1.2000000476837158 0 4.6666669845581055 0.4000000059604645 0
          4.6666669845581055 -0.4000000059604645 0 4.6666669845581055 -1.2000000476837158 0
          7 1.2000000476837158 0 7 0.4000000059604645 0
          7 -0.4000000059604645 0 7 -1.2000000476837158 0
          <InformationKey name="L2_NORM_RANGE" location="vtkDataArray" length="2">
            <Value index="0">
              0.40000000596
            </Value>
            <Value index="1">
              7.1021123699
            </Value>
          </InformationKey>
        </DataArray>
      </Points>
      <Cells>
        <DataArray type="Int64" Name="connectivity" format="ascii" RangeMin="0" RangeMax="15">
          7 6 2 4 11 10
          6 7 15 14 10 11
          6 5 1 2 10 9
          5 6 14 13 9 10
          5 3 0 1 9 8
          3 5 13 12 8 9
        </DataArray>
        <DataArray type="Int64" Name="offsets" format="ascii" RangeMin="4" RangeMax="36">
          4 8 12 16 20 24
          28 32 36
        </DataArray>
        <DataArray type="UInt8" Name="types" format="ascii" RangeMin="9" RangeMax="9">
          9 9 9 9 9 9
          9 9 9
        </DataArray>
      </Cells>
    </Piece>
  </UnstructuredGrid>
</VTKFile>
