<?xml version="1.0"?>
<VTKFile type="UnstructuredGrid" version="0.1" byte_order="LittleEndian" header_type="UInt32" compressor="vtkZLibDataCompressor">
  <UnstructuredGrid>
    <Piece NumberOfPoints="64" NumberOfCells="27">
      <PointData>
        <DataArray type="Float64" Name="nsi_SBC" NumberOfComponents="3" format="ascii" RangeMin="0" RangeMax="0">
          0 0 0 0 0 0
          0 0 0 0 0 0
          0 0 0 0 0 0
          0 0 0 0 0 0
          0 0 0 0 0 0
          0 0 0 0 0 0
          0 0 0 0 0 0
          0 0 0 0 0 0
          0 0 0 0 0 0
          0 0 0 0 0 0
          0 0 0 0 0 0
          0 0 0 0 0 0
          0 0 0 0 0 0
          0 0 0 0 0 0
          0 0 0 0 0 0
          0 0 0 0 0 0
          0 0 0 0 0 0
          0 0 0 0 0 0
          0 0 0 0 0 0
          0 0 0 0 0 0
          0 0 0 0 0 0
          0 0 0 0 0 0
          0 0 0 0 0 0
          0 0 0 0 0 0
          0 0 0 0 0 0
          0 0 0 0 0 0
          0 0 0 0 0 0
          0 0 0 0 0 0
          0 0 0 0 0 0
          0 0 0 0 0 0
          0 0 0 0 0 0
          0 0 0 0 0 0
          <InformationKey name="L2_NORM_RANGE" location="vtkDataArray" length="2">
            <Value index="0">
              0
            </Value>
            <Value index="1">
              0
            </Value>
          </InformationKey>
        </DataArray>
        <DataArray type="Float64" Name="nsi_SFIXNO" NumberOfComponents="3" format="ascii" RangeMin="0" RangeMax="1.4142135623730951">
          0 0 0 0 0 0
          0 0 0 0 0 0
          0 0 0 0 0 0
          0 0 0 -1 -1 0
          0 0 0 0 0 0
          0 0 0 0 0 0
          0 0 0 0 0 0
          0 0 0 0 0 0
          0 0 0 -1 -1 0
          -1 -1 0 -1 -1 0
          0 0 0 0 0 0
          0 0 0 0 0 0
          0 0 0 0 0 0
          -1 -1 0 -1 -1 0
          -1 -1 0 0 0 0
          0 0 0 0 0 0
          0 0 0 0 0 0
          0 0 0 0 0 0
          0 0 0 0 0 0
          -1 -1 0 0 0 0
          0 0 0 0 0 0
          0 0 0 0 0 0
          0 0 0 0 0 0
          0 0 0 0 0 0
          0 0 0 0 0 0
          0 0 0 0 0 0
          0 0 0 0 0 0
          0 0 0 0 0 0
          0 0 0 0 0 0
          0 0 0 0 0 0
          0 0 0 0 0 0
          0 0 0 0 0 0
          <InformationKey name="L2_NORM_RANGE" location="vtkDataArray" length="2">
            <Value index="0">
              0
            </Value>
            <Value index="1">
              1.4142135624
            </Value>
          </InformationKey>
        </DataArray>
        <DataArray type="Float64" Name="nsi_UBC" NumberOfComponents="3" format="ascii" RangeMin="0" RangeMax="0">
          0 0 0 0 0 0
          0 0 0 0 0 0
          0 0 0 0 0 0
          0 0 0 0 0 0
          0 0 0 0 0 0
          0 0 0 0 0 0
          0 0 0 0 0 0
          0 0 0 0 0 0
          0 0 0 0 0 0
          0 0 0 0 0 0
          0 0 0 0 0 0
          0 0 0 0 0 0
          0 0 0 0 0 0
          0 0 0 0 0 0
          0 0 0 0 0 0
          0 0 0 0 0 0
          0 0 0 0 0 0
          0 0 0 0 0 0
          0 0 0 0 0 0
          0 0 0 0 0 0
          0 0 0 0 0 0
          0 0 0 0 0 0
          0 0 0 0 0 0
          0 0 0 0 0 0
          0 0 0 0 0 0
          0 0 0 0 0 0
          0 0 0 0 0 0
          0 0 0 0 0 0
          0 0 0 0 0 0
          0 0 0 0 0 0
          0 0 0 0 0 0
          0 0 0 0 0 0
          <InformationKey name="L2_NORM_RANGE" location="vtkDataArray" length="2">
            <Value index="0">
              0
            </Value>
            <Value index="1">
              0
            </Value>
          </InformationKey>
        </DataArray>
        <DataArray type="Float64" Name="nsi_UFIXNO" NumberOfComponents="3" format="ascii" RangeMin="1.7320508075688772" RangeMax="1.7320508075688772">
          1 1 1 1 1 1
          1 1 1 1 1 1
          1 1 1 1 1 1
          1 1 1 -1 -1 -1
          1 1 1 1 1 1
          1 1 1 1 1 1
          1 1 1 1 1 1
          1 1 1 1 1 1
          1 1 1 -1 -1 -1
          -1 -1 -1 -1 -1 -1
          1 1 1 1 1 1
          1 1 1 1 1 1
          1 1 1 1 1 1
          -1 -1 -1 -1 -1 -1
          -1 -1 -1 1 1 1
          1 1 1 1 1 1
          1 1 1 1 1 1
          1 1 1 1 1 1
          1 1 1 1 1 1
          -1 -1 -1 1 1 1
          1 1 1 1 1 1
          1 1 1 1 1 1
          1 1 1 1 1 1
          1 1 1 1 1 1
          1 1 1 1 1 1
          1 1 1 1 1 1
          1 1 1 1 1 1
          1 1 1 1 1 1
          1 1 1 1 1 1
          1 1 1 1 1 1
          1 1 1 1 1 1
          1 1 1 1 1 1
          <InformationKey name="L2_NORM_RANGE" location="vtkDataArray" length="2">
            <Value index="0">
              1.7320508076
            </Value>
            <Value index="1">
              1.7320508076
            </Value>
          </InformationKey>
        </DataArray>
        <DataArray type="Float64" Name="Velocity" NumberOfComponents="3" format="ascii" RangeMin="0" RangeMax="0.03904781515866425">
          0 0 0 0 0 0
          0 0 0 0 0 0
          0 0 0 0 0 0
          0.03904781515866424 0 0 -0.010606145319349716 -0.0002976237983639101 -0.005445115513188516
          0 0 0 0 0 0
          0 0 0 0 0 0
          0 0 0 0 0 0
          0.03904781515866425 0 0 0 0 0
          0.03904781515866422 0 0 -0.00026560291747027356 0.000009596031938323269 -0.0003638017711383167
          -0.010606499753626479 0.0002971060708812195 -0.005445470010025446 -0.010615671405329572 0.0002976537587161812 0.005444939239137416
          0.03904781515866423 0 0 0 0 0
          0 0 0 0 0 0
          0 0 0 0 0 0
          -0.01061575991988567 -0.0002977285584074648 0.005444954739338646 -0.000265587425368788 -0.000009670814183000818 -0.0003638902604681908
          -0.0002620994135246755 -0.000009825748847388987 0.0003641497620460772 0 0 0
          0 0 0 0 0 0
          0 0 0 0 0 0
          0 0 0 0 0 0
          0 0 0 0 0 0
          -0.0002621306481173832 0.000009766664996550126 0.0003641185335356991 0 0 0
          0 0 0 0 0 0
          0 0 0 0 0 0
          0 0 0 0 0 0
          0 0 0 0 0 0
          0 0 0 0 0 0
          0 0 0 0 0 0
          0 0 0 0 0 0
          0 0 0 0 0 0
          0 0 0 0 0 0
          0 0 0 0 0 0
          0 0 0 0 0 0
          0 0 0 0 0 0
          <InformationKey name="L2_NORM_RANGE" location="vtkDataArray" length="2">
            <Value index="0">
              0
            </Value>
            <Value index="1">
              0.039047815159
            </Value>
          </InformationKey>
        </DataArray>
        <DataArray type="Float64" Name="Pressure" format="ascii" RangeMin="-0.4800054689268892" RangeMax="0.13442303894069355">
          0 -0.08628370653665413 0.13442303894069355 -0.08867035893198454 -0.08871173760987636 -0.12854666670747592
          -0.03208253002940434 -0.13050449723717925 -0.1467226276713069 0.13442092879242357 -0.25695648325539777 -0.15219720677064238
          -0.15845563471551094 -0.21708552273873666 -0.032070505167270155 -0.08869971247767726 -0.3135651769986399 -0.15612976262453115
          -0.13050149545486558 -0.21514143533030483 -0.31356497263196487 -0.15219700223793262 -0.18714336718519792 -0.15817177805755356
          0.00017673182380934438 -0.34577235152104463 -0.2151398850816521 -0.1561282122149632 -0.18946359233484666 -0.25930491776244546
          -0.16555434360024385 -0.1567701994974368 -0.08628296482089601 -0.08866961748491538 -0.4800054689268892 -0.25684405821809114
          -0.16632824487466324 -0.12853398323559428 -0.18946298201811573 -0.15676916903810528 -0.2569526012312288 -0.48000443848279745
          -0.1988785820795813 -0.18003751511706428 -0.14671874537355856 -0.256843523542435 -0.19340957023395522 -0.15845444161381878
          -0.21708432983031523 -0.17925878838926596 -0.16632771026381293 -0.1934090624616192 -0.18714187094412021 -0.1792582806405006
          -0.18742803209835118 -0.15817086744076198 -0.3457714410871111 -0.16555296530396268 -0.1888360833667016 -0.2593035395846582
          -0.18003679340181722 -0.18883570940927782 -0.19887786039134878 -0.1874272469925455
        </DataArray>
        <DataArray type="Float64" Name="stream" format="ascii" RangeMin="-0.0018384724627888102" RangeMax="0.015969612080261854">
          0 0.00007365624092344795 0 -0.0014222351256319775 0.00008550291793268376 -0.00012162634460403813
          0.00058188022963426 0.00008977767122227547 0.00026867771017689547 0.0007603262259057895 -0.0018384724627888102 0.00047213463717216597
          0.00023060723016316432 -0.0010037917571994986 0.0022444904162024666 0.001135820961817124 0.0004480828386839989 0.00041363422127729967
          0.0010458697042904932 -0.0005487518937318531 0.004087245002605366 0.0015372087704209022 0.0002088445482383832 0.000390042938506895
          0.0029536730432435225 -0.0018384724627888102 0.001562751848128451 0.0016693734204042054 0.00034427904199114403 -0.0007446113178672497
          0.0004899340393715824 0.0011559849348765669 0.0018368122520774396 0.0038982998942147925 -0.00028137718114580905 -0.000563838161887319
          0.0008557094453808495 0.00231173219318223 0.0016946962955438287 0.0025851125132855257 0.008577951486140562 0.007694259434333056
          0.00018621975118356847 0.000526668193382822 0.0022935137816097696 0.000681278745154903 0.0002732374299798914 0.0027943079110593146
          0.0035706295142755693 0.0009149821983509244 0.002243885372172628 0.0019257883793989223 0.003259061752165793 0.002370437239290444
          0.000526668193382822 0.0032482980953248124 0.015969612080261854 0.003069297742641925 0.0007400110854402044 0.0036490998657899847
          0.0035938629824589625 0.002197150055454391 0.0041353881741663205 0.00365454939864627
        </DataArray>
        <DataArray type="Float64" Name="Sigma" NumberOfComponents="6" format="ascii" RangeMin="0.0000012587938945230765" RangeMax="0.0034992436127621457">
          0.0000027096038556598852 -0.00001529917726304869 8.273617036338962e-8 1.453928872600954e-7 -0.0000010902646008842362 0.000005436889573851891
          3.06987262220477e-7 0.000004325040770272772 -1.139844087444316e-7 -0.0000035470488203386448 5.554559649446033e-7 -0.0000017175544366636103
          -0.0034991418240706133 0.000007616329389816563 0.000016553476622480377 4.364546147151561e-8 0.000019298955144715928 0.000002806930741182138
          -8.198484271057199e-7 -0.000005043910017663589 2.723350672582426e-9 -4.173939765564371e-7 0.000004352946281339781 0.0017448873090340612
          0.0009439473990207195 -0.0000021595000869906727 -0.000011190435017098457 -0.0000018270277105359474 0.00037109614961225446 0.000020178101039646267
          -0.000004432649405286698 -0.000040886938726767354 -2.496547458373974e-7 -0.00022713669824793312 -0.000003461661849508554 -0.00047308511049282636
          -0.0017362579413864741 0.000002530823690232328 0.0005992949166605345 0.000016926641989193835 0.0024699774204941056 0.0008708008240573782
          0.0004929340634037753 0.00002042337724462746 -0.000060373731706430444 -0.00011585951268259849 0.000421163820014513 -0.00024641431459271356
          -1.2868981785648466e-7 -4.47480306285256e-8 1.0920784661222032e-7 0.000002496597645682483 -3.865264568586599e-8 8.823439481231122e-7
          -0.0034991414642497366 0.000007616327723940528 0.000016553563274660742 -4.3773672450150684e-8 0.000019299297433562445 -0.00000280690141218062
          -0.0000012752129296673208 0.000005029860520100977 4.954315429292095e-7 3.929019081760451e-7 -3.6795375319554493e-7 0.0017437137812176934
          0.000001957472884667893 2.106878302942397e-8 0.0000029579202217294907 0.0000012806339830141535 0.000021980194290018525 -4.858380695412945e-7
          8.741997086476843e-7 5.825943816514098e-7 5.0787740139963434e-8 -0.00001271802476595277 9.084513394996532e-7 -0.000001766908557539231
          -0.000004845070822097766 0.000040879771615637365 -4.754485106213693e-7 0.00022710593404095777 0.0000015675414000412434 -0.0004730798404701864
          -0.0017362586544517058 0.000002530611866042856 0.00059933174792859 -0.000016899090437966254 0.0024699966938659845 -0.0008708011236997463
          0.0009439842266306207 -0.000002159709312041921 -0.000011190607227181311 0.000001827051201442784 0.00037111576258698324 -0.000020150579341700164
          0.001761157856850246 -0.0000025065394617320113 -0.0006014034818522754 -0.000017034301699188066 0.0024911806419602427 0.0008722932003101249
          -8.093074670553631e-7 -2.922598005251625e-7 -0.0002944268738707289 -0.0000149922902916937 -0.0005186196290723124 -5.232194375035035e-7
          0.0004929347504650284 0.000020444969107836998 -0.00006037336434847296 0.00011584592108146495 0.00042115880976483953 0.000246400947996286
          -0.00045430614381477733 -0.00002043147051660034 0.00006360095832795549 0.00011607547811096655 0.00039910569632612607 -0.0002473844598960391
          0.0017611580595724727 -0.000002506529582583927 -0.0006014061959242695 0.00001703762851277757 0.002491185339723659 -0.0008722929997525759
          0.0000019547296575156068 2.1078185703046906e-8 0.0000029580204652520706 -0.000001280568905320166 0.000021984754792874346 4.891318265711233e-7
          9.904085090666718e-7 -6.124910905087104e-7 -9.620408548588979e-8 0.00001272747069469367 -8.366159158296268e-8 -0.0000017021227550828504
          6.155789212662905e-8 5.825365500744933e-8 -5.934337730780271e-8 -0.0000012036668661355965 6.554204652873337e-9 -3.7782639524132015e-7
          0.0000027095284775313454 -0.000015299178961834606 8.272663582688554e-8 -1.452488199766208e-7 -0.0000010901933970759613 -0.000005436792297024182
          -3.494607679504399e-7 0.000015345196637128716 2.2756562162682854e-7 -1.4147339261355348e-7 2.9417231039701065e-7 0.000005046255133912568
          -0.0004543245872194614 -0.000020428321390044327 0.00006360291132102145 -0.00011607384093484358 0.0003990958292538962 0.00024736746496021065
          -8.073512207954812e-7 -2.891145823864415e-7 -0.0002944453939300679 0.000014975301949096507 -0.0005186294762733257 5.248783998762631e-7
          -0.000006659428109358199 3.0334566367661195e-7 0.00029458087779215484 0.000014991680440980246 -0.0005145314995924908 -4.2069995491417253e-7
          0.000001329181486727068 -0.000004308704835312208 -1.4058710746339998e-7 0.0000035314549109300978 -7.515673442254243e-7 -0.0000017122773687297407
          -4.40896151084033e-7 4.471535498118364e-7 -3.6451630466408113e-8 -0.000001044484743661646 -4.5139669261163746e-7 -0.0000015957446600973383
          0.0000038554160471846225 -2.8475354918297534e-8 -1.798576841037646e-7 -6.216952097865439e-7 0.0000012913465076596647 -1.4897939891051265e-7
          3.070688477863749e-7 0.000004325105845431103 -1.1397165187046352e-7 0.000003546977093773174 5.554259707863664e-7 0.0000017177486408498632
          -8.196990004499875e-7 -0.000005043842156651116 2.8052303622912727e-9 4.1759103261821685e-7 0.0000043530031916909255 -0.0017448872734520564
          0.0034854108378374786 -0.000007702426442131087 -0.000017876740797499667 1.782985390715348e-8 0.000013191827013844782 0.0000028026762972703744
          -0.0009517205086912338 0.0000021492231959284676 0.000012267580214700199 0.0000017636505048920004 0.0003768106506102551 0.000020469344877141724
          0.0000029001905981302506 -2.2467741507764274e-7 0.00011242298665445656 0.000004454143504588433 0.0002484762221318 -7.703472803894665e-7
          -0.000004432946401448757 -0.0000408436644258077 -2.4988103582752023e-7 0.00022716115260693683 -0.0000034618262609418723 0.0004731095298115023
          -0.000006658127065735832 3.0579563391312337e-7 0.00029458222196626974 -0.00001499436644119112 -0.0005145360584441564 4.179802118228691e-7
          0.000003855488624877812 -2.847599707300567e-8 -1.7987042550564573e-7 6.216648622210603e-7 0.0000012913871006261291 1.4901725492290654e-7
          -0.000001275222906822671 0.000005029843915189523 4.954610554205678e-7 -3.92975972891972e-7 -3.680757629087254e-7 -0.001743713897644111
          0.003485410736021884 -0.000007702427116630961 -0.000017876694414742068 -1.7805433880664323e-8 0.000013191793409344436 -0.000002802801285013632
          -7.69566148858588e-8 4.812443208117462e-8 9.271262319283682e-8 -0.0000024857245891337058 1.565224506658928e-7 8.591038940722391e-7
          -4.882833494756853e-7 -4.433155508518174e-7 5.93299107373644e-8 0.0000010470224051235162 5.364358269387645e-8 -0.0000015616985081409237
          -1.286540692422794e-7 -4.4765609811580565e-8 1.0920779612021947e-7 -0.0000024966786813489194 -3.874487836330798e-8 -8.824012784461724e-7
          -0.0009517206282725912 0.00000214925405883341 0.000012267606370682474 -0.0000017636542906933064 0.00037681650088673945 -0.000020466279705965173
          -8.337339127015456e-7 -2.4515586628283638e-8 -0.000003818584248758752 -0.0000012889330354069827 0.000021126233163313934 -4.963418880231546e-7
          8.741861164042187e-7 5.886471910602932e-7 5.0916806447106e-8 0.000012724211020605462 9.085397537893354e-7 0.0000017657886177112885
          -0.000004844970325975555 0.000040885822367047824 -4.754591867483661e-7 -0.00022710703917705314 0.0000015676258320302807 0.00047308602697460284
          7.207412228678496e-7 2.2186516520534752e-7 -0.00011246893792761877 -0.000004460720844382066 0.00024655120324845313 -7.847989650240837e-7
          0.000002900203399879026 -2.246456205488505e-7 0.00011242284299110254 -0.000004451103139910038 0.00024848207457024186 7.703388362854134e-7
          -8.376142708653797e-7 -2.4495919548649945e-8 -0.000003818626597631731 0.0000012888994409667455 0.000021125738890979006 4.940923000193965e-7
          9.903961826211132e-7 -6.075535501346094e-7 -9.622660984430381e-8 -0.000012725317422688954 -8.361012422602496e-8 0.000001704283100405462
          7.207204127413646e-7 2.218845907692605e-7 -0.00011247282705305453 0.0000044584579456736665 0.0002465507092766429 7.84780059654989e-7
          3.435314086390434e-8 -5.905545670696873e-8 -4.711518867664728e-8 0.0000011977260597613007 -9.04781197458351e-8 -3.673765297418922e-7
          6.15591710467204e-8 5.825476034484411e-8 -5.9344031623962346e-8 0.0000012037104689980846 6.575905005298827e-9 3.7783157476635145e-7
          -3.4944990543037063e-7 0.00001534519614671476 2.2757254595393847e-7 1.4148624997907705e-7 2.9420940094184937e-7 -0.0000050461894276429835
          -4.4090176587800665e-7 4.4722036777514506e-7 -3.64297748395883e-8 0.0000010445425595146306 -4.514514057888883e-7 0.0000015957843940456783
          -0.000004187831942921908 2.9751651413688786e-8 6.339882202040316e-7 6.239112645090798e-7 0.0000017224823514137515 -1.4938796761740425e-7
          0.0000013292013359264103 -0.000004308635815842255 -1.4059667666064063e-7 -0.000003531420702684992 -7.516171426045762e-7 0.0000017123293567545368
          -4.882837805385718e-7 -4.4333244298971745e-7 5.937292482079944e-8 -0.0000010470483656285885 5.363644904206311e-8 0.0000015617028608352435
          -0.000004187833950960279 2.9751468127200264e-8 6.339898072432524e-7 -6.23903348183894e-7 0.0000017225080629211532 1.4939077004134127e-7
          -7.69159253232412e-8 4.8107660651710664e-8 9.271723063677774e-8 0.0000024857316532616884 1.5651569444145607e-7 -8.591324892361463e-7
          3.4351866877103814e-8 -5.9054987843557215e-8 -4.711738518246775e-8 -0.0000011977121275667426 -9.046413490778392e-8 3.6739131498979327e-7
          <InformationKey name="L2_NORM_RANGE" location="vtkDataArray" length="2">
            <Value index="0">
              1.2587938945e-06
            </Value>
            <Value index="1">
              0.0034992436128
            </Value>
          </InformationKey>
        </DataArray>
      </PointData>
      <CellData>
        <DataArray type="UInt8" Name="vtkGhostType" format="ascii" RangeMin="0" RangeMax="0">
          0 0 0 0 0 0
          0 0 0 0 0 0
          0 0 0 0 0 0
          0 0 0 0 0 0
          0 0 0
        </DataArray>
        <DataArray type="Float64" Name="NN-Viscosity" format="ascii" RangeMin="0.0000013052429830512188" RangeMax="0.00017794246997210938">
          0.0000013052808044705072 0.00006154746882967583 0.00006323524417795345 0.000002224001239549451 0.0001158857480418596 0.0001141350104441273
          0.0000013052429830512188 0.00006154789101486694 0.00006323532689751131 0.000001746895727990691 0.00008812585372151496 0.0001074412311174934
          0.0000031591459231990627 0.00008343202318128172 0.00017794246997210938 0.0000017470058674595592 0.00008812698211071155 0.00010744188614254121
          0.000001314747175740012 0.00006112691047061621 0.00006322823915777251 0.0000022480657814725165 0.00011642218300000949 0.00011407875928210742
          0.0000013149615279405797 0.00006112862923330617 0.0000632288483782487
        </DataArray>
      </CellData>
      <Points>
        <DataArray type="Float32" Name="Points" NumberOfComponents="3" format="ascii" RangeMin="0" RangeMax="1.7320508075688772">
          1 0 1 1 0 0.6666666865348816
          1 0.3333333134651184 1 0.6666666865348816 0 1
          1 0.3333333134651184 0.6666666865348816 0.6666666865348816 0 0.6666666865348816
          0.6666666865348816 0.3333333134651184 1 0.6666666865348816 0.3333333134651184 0.6666666865348816
          1 0 0.3333333134651184 1 0.6666666865348816 1
          0.3333333134651184 0 1 1 0.3333333134651184 0.3333333134651184
          0.6666666865348816 0 0.3333333134651184 0.3333333134651184 0 0.6666666865348816
          0.6666666865348816 0.6666666865348816 1 1 0.6666666865348816 0.6666666865348816
          0.3333333134651184 0.3333333134651184 1 0.6666666865348816 0.3333333134651184 0.3333333134651184
          0.6666666865348816 0.6666666865348816 0.6666666865348816 0.3333333134651184 0.3333333134651184 0.6666666865348816
          0.3333333134651184 0.6666666865348816 1 1 0.6666666865348816 0.3333333134651184
          0.3333333134651184 0 0.3333333134651184 1 0 0
          1 1 1 0 0 1
          0.3333333134651184 0.6666666865348816 0.6666666865348816 0.6666666865348816 0.6666666865348816 0.3333333134651184
          0.3333333134651184 0.3333333134651184 0.3333333134651184 0 0 0.6666666865348816
          0.6666666865348816 0 0 1 0.3333333134651184 0
          1 1 0.6666666865348816 0.6666666865348816 1 1
          0 0.3333333134651184 1 0 0.3333333134651184 0.6666666865348816
          0.6666666865348816 0.3333333134651184 0 0.6666666865348816 1 0.6666666865348816
          0.3333333134651184 0.6666666865348816 0.3333333134651184 1 0.6666666865348816 0
          0.3333333134651184 1 1 0 0.6666666865348816 1
          0 0 0.3333333134651184 0.3333333134651184 0 0
          1 1 0.3333333134651184 0 0.6666666865348816 0.6666666865348816
          0 0.3333333134651184 0.3333333134651184 0.6666666865348816 1 0.3333333134651184
          0.3333333134651184 1 0.6666666865348816 0.3333333134651184 0.3333333134651184 0
          0.6666666865348816 0.6666666865348816 0 0 0.6666666865348816 0.3333333134651184
          0.3333333134651184 1 0.3333333134651184 0.3333333134651184 0.6666666865348816 0
          0 0 0 1 1 0
          0 1 1 0.6666666865348816 1 0
          0 0.3333333134651184 0 0 1 0.6666666865348816
          0.3333333134651184 1 0 0 0.6666666865348816 0
          0 1 0.3333333134651184 0 1 0
          <InformationKey name="L2_NORM_RANGE" location="vtkDataArray" length="2">
            <Value index="0">
              0
            </Value>
            <Value index="1">
              1.7320508076
            </Value>
          </InformationKey>
        </DataArray>
      </Points>
      <Cells>
        <DataArray type="Int64" Name="connectivity" format="ascii" RangeMin="0" RangeMax="63">
          28 49 43 22 46 58
          54 42 19 28 22 13
          35 46 42 29 16 19
          13 10 34 35 29 25
          38 53 49 28 51 61
          58 46 26 38 28 19
          45 51 46 35 20 26
          19 16 41 45 35 34
          52 60 53 38 62 63
          61 51 48 52 38 26
          59 62 51 45 40 48
          26 20 56 59 45 41
          17 36 30 12 28 49
          43 22 7 17 12 5
          19 28 22 13 6 7
          5 3 16 19 13 10
          27 50 36 17 38 53
          49 28 18 27 17 7
          26 38 28 19 14 18
          7 6 20 26 19 16
          47 57 50 27 52 60
          53 38 37 47 27 18
          48 52 38 26 33 37
          18 14 40 48 26 20
          11 31 23 8 17 36
          30 12 4 11 8 1
          7 17 12 5 2 4
          1 0 6 7 5 3
          21 39 31 11 27 50
          36 17 15 21 11 4
          18 27 17 7 9 15
          4 2 14 18 7 6
          44 55 39 21 47 57
          50 27 32 44 21 15
          37 47 27 18 24 32
          15 9 33 37 18 14
        </DataArray>
        <DataArray type="Int64" Name="offsets" format="ascii" RangeMin="8" RangeMax="216">
          8 16 24 32 40 48
          56 64 72 80 88 96
          104 112 120 128 136 144
          152 160 168 176 184 192
          200 208 216
        </DataArray>
        <DataArray type="UInt8" Name="types" format="ascii" RangeMin="12" RangeMax="12">
          12 12 12 12 12 12
          12 12 12 12 12 12
          12 12 12 12 12 12
          12 12 12 12 12 12
          12 12 12
        </DataArray>
      </Cells>
    </Piece>
  </UnstructuredGrid>
</VTKFile>
