<?xml version="1.0"?>
<VTKFile type="UnstructuredGrid" version="0.1" byte_order="LittleEndian" header_type="UInt32" compressor="vtkZLibDataCompressor">
  <UnstructuredGrid>
    <Piece NumberOfPoints="24" NumberOfCells="15">
      <PointData>
        <DataArray type="Float64" Name="Velocity" NumberOfComponents="3" format="ascii" RangeMin="0" RangeMax="0.2725417071790382">
          0 0 0 -7.329227219899187e-17 -1.4395562914700204e-17 0
          0.11346605443216928 0.08813250982316602 0 -0.0867202727701791 0.12379006878734362 0
          0.11239700090663327 -0.10993498201783083 0 -0.12789245056697396 -0.041628139444477734 0
          5.4689512456957995e-18 9.907659156314092e-17 0 0 0 0
          -0.20101249808817975 -0.024927473361781152 0 -0.06098788021507061 -0.24847702671249033 0
          0 0 0 2.4453406996171268e-17 1.6591832889491892e-16 0
          0 0 0 -0.2170485572318572 0.16482993039989371 0
          0 0 0 5.947511230415033e-18 4.1884059988776213e-19 0
          0 0 0 -0.1514001434222214 -0.12101692716230854 0
          0 0 0 0.015618951321076172 -0.2118189797522953 0
          -2.414480009543309e-18 -5.341356329856148e-17 0 6.98979601487632e-17 -1.9768283498171914e-17 0
          0 0 0 -1.5968009184695406e-17 -4.560839257216492e-17 0
          <InformationKey name="L2_NORM_RANGE" location="vtkDataArray" length="2">
            <Value index="0">
              0
            </Value>
            <Value index="1">
              0.27254170718
            </Value>
          </InformationKey>
        </DataArray>
        <DataArray type="Float64" Name="Pressure" format="ascii" RangeMin="70.97553894969207" RangeMax="72.95530671804386">
          71.42932171933296 71.42315676888819 71.36479068096557 71.17393507437649 71.31475965174045 71.8577662284104
          71.08749249472564 71.4742030126623 72.07458002655883 72.07101318841933 71.24468221588309 71.97242725898789
          71.87304893895693 71.11775427140525 71.35237760706397 72.8938047363556 71.19822297638665 72.3215999215886
          71.23866635861832 71.38560054890223 71.66029126005152 70.97553894969207 72.95530671804386 72.4996736186697
        </DataArray>
        <DataArray type="Float64" Name="Temperature" format="ascii" RangeMin="240.23144442769865" RangeMax="960.4962157883401">
          959.8497539947849 847.3963881063784 608.3663332980153 487.36651538669196 634.7063138966707 540.6421847475272
          705.8861126386348 959.4983782228118 392.3438566321822 550.7659950231259 240.23144442769865 240.64712867025193
          242.21633543669864 385.6473196977471 959.596491049462 313.080690911312 960.4962157883401 415.6734875490861
          959.2897217614869 672.7575164615666 240.47853325728283 781.2297176322468 275.6605319170839 240.5568543695788
        </DataArray>
        <DataArray type="Float64" Name="Density" format="ascii" RangeMin="0.3146978034765815" RangeMax="1.258228497423579">
          0.31490975342564037 0.356699714087304 0.49684874525772077 0.6202027423166975 0.4762297817717436 0.5590870595814006
          0.4282079558503777 0.31502507582766126 0.7704110673498582 0.5488102970908135 1.258228497423579 1.2560550837502034
          1.2479176881740668 0.783788798514305 0.31499286645534336 0.9654573345814667 0.3146978034765815 0.7271718269509918
          0.3150935973765319 0.44929419881617505 1.2569356826239924 0.3869105879283088 1.0965155122281998 1.2565264463085044
        </DataArray>
      </PointData>
      <CellData>
        <DataArray type="UInt8" Name="vtkGhostType" format="ascii" RangeMin="0" RangeMax="0">
          0 0 0 0 0 0
          0 0 0 0 0 0
          0 0 0
        </DataArray>
      </CellData>
      <Points>
        <DataArray type="Float32" Name="Points" NumberOfComponents="3" format="ascii" RangeMin="0" RangeMax="1.4142135623730951">
          0 1 0 0.25 1 0
          0.25 0.75 0 0.25 0.5 0
          0.5 0.75 0 0.5 0.5 0
          0.75 1 0 0 0.25 0
          0.5 0.25 0 0.75 0.5 0
          1 1 0 1 0.5 0
          0.25 0 0 0.25 0.25 0
          0 0 0 0.5 0 0
          0 0.5 0 0.75 0.25 0
          0 0.75 0 0.75 0.75 0
          1 0.75 0 0.5 1 0
          0.75 0 0 1 0.25 0
          <InformationKey name="L2_NORM_RANGE" location="vtkDataArray" length="2">
            <Value index="0">
              0
            </Value>
            <Value index="1">
              1.4142135624
            </Value>
          </InformationKey>
        </DataArray>
      </Points>
      <Cells>
        <DataArray type="Int64" Name="connectivity" format="ascii" RangeMin="0" RangeMax="23">
          12 13 7 14 15 8
          13 12 13 3 16 7
          8 5 3 13 17 9
          5 8 3 2 18 16
          5 4 2 3 9 19
          4 5 11 20 19 9
          2 1 0 18 4 21
          1 2 19 6 21 4
          20 10 6 19 22 17
          8 15 23 11 9 17
        </DataArray>
        <DataArray type="Int64" Name="offsets" format="ascii" RangeMin="4" RangeMax="60">
          4 8 12 16 20 24
          28 32 36 40 44 48
          52 56 60
        </DataArray>
        <DataArray type="UInt8" Name="types" format="ascii" RangeMin="9" RangeMax="9">
          9 9 9 9 9 9
          9 9 9 9 9 9
          9 9 9
        </DataArray>
      </Cells>
    </Piece>
  </UnstructuredGrid>
</VTKFile>
