<?xml version="1.0"?>
<VTKFile type="UnstructuredGrid" version="0.1" byte_order="LittleEndian" header_type="UInt32" compressor="vtkZLibDataCompressor">
  <UnstructuredGrid>
    <Piece NumberOfPoints="25" NumberOfCells="15">
      <PointData>
        <DataArray type="Float64" Name="Velocity" NumberOfComponents="3" format="ascii" RangeMin="0" RangeMax="0.23482355061153345">
          0 0 0 7.69035383257149e-17 -2.2529231139033604e-17 0
          0 0 0 -0.19700150516347215 0.12779869672705532 0
          0.04862646630036706 -0.1806012506511196 0 0 0 0
          0 0 0 2.870514315704519e-18 -4.5339315094654287e-17 0
          -0.14554467231005097 -0.12440948503394994 0 5.7039110371864025e-18 8.472535991329572e-19 0
          0 0 0 -1.5119200614600282e-17 -4.5796981447396394e-17 0
          0 0 0 0 0 0
          -0.1895539433291972 -0.03523797681010435 0 -0.08038667097890007 0.12781147887296007 0
          -0.11212963625942429 -0.04210101902057615 0 -0.046560338388448544 -0.2221806481221668 0
          0.1218835319552618 0.09765392660320749 0 0.13368798975909763 -0.10625326820848305 0
          1.769031416652394e-17 1.5318484097751802e-16 0 -7.911566086888798e-17 -1.8710685804865186e-17 0
          0 0 0 -1.4064006689206882e-17 7.965227952772338e-17 0
          0 0 0
          <InformationKey name="L2_NORM_RANGE" location="vtkDataArray" length="2">
            <Value index="0">
              0
            </Value>
            <Value index="1">
              0.23482355061
            </Value>
          </InformationKey>
        </DataArray>
        <DataArray type="Float64" Name="Pressure" format="ascii" RangeMin="64.29845193229251" RangeMax="66.68246227455646">
          64.74296863701758 64.31157180949342 64.62020887093581 64.56913441769031 64.63165825059319 64.75045066095493
          65.21598104689153 64.80602138044658 65.74274473316288 66.26678771490991 66.36473411340057 65.87442879926418
          66.68246227455646 64.80269699038065 65.43615519492295 64.64906174211507 65.1632982202623 65.34934190938608
          64.70970597685968 64.67135699967943 65.2175868268719 64.76916427152246 64.82790513999558 64.29845193229251
          64.37901357357953
        </DataArray>
        <DataArray type="Float64" Name="Temperature" format="ascii" RangeMin="238.73005427612227" RangeMax="959.1332035885998">
          958.236185855885 778.5794075142184 959.1332035885998 392.11266424865255 669.7648172955257 958.6340840353622
          238.73005427612227 239.8207715203543 415.3953764286376 311.71384510919165 274.28531060710225 239.8879394149824
          239.52200895193482 958.3239971110826 391.81470385595003 490.6698334966662 539.4779205651232 550.8430989629112
          608.4754336494193 633.9570920086086 239.96753111521858 844.2202974439435 959.0057856526319 714.2965075903335
          239.78488054098074
        </DataArray>
        <DataArray type="Float64" Name="Density" format="ascii" RangeMin="0.31502629589814685" RangeMax="1.2656646073140065">
          0.3153211962346852 0.38808139219110016 0.31502629589814685 0.7705749085620819 0.451131759383113 0.31519031654657287
          1.2656646073140065 1.2599082993684525 0.7273845534757599 0.9693255052357316 1.1015981123110716 1.2595555288702796
          1.26147981858349 0.31529230334447766 0.7711609018903116 0.6157953062779693 0.5600825703541752 0.5485267601033955
          0.49657252156794307 0.4766129825002996 1.2591377633266716 0.3579067943690406 0.3150681517461506 0.4230066606635734
          1.2600968823294931
        </DataArray>
      </PointData>
      <CellData>
        <DataArray type="UInt8" Name="vtkGhostType" format="ascii" RangeMin="0" RangeMax="1">
          1 1 1 1 1 1
          1 1 1 1 1 1
          1 0 1
        </DataArray>
      </CellData>
      <Points>
        <DataArray type="Float32" Name="Points" NumberOfComponents="3" format="ascii" RangeMin="0" RangeMax="1.4142135623730951">
          0 0.75 0 0.5 1 0
          0 0.5 0 0.25 0.25 0
          0.75 0.75 0 0 0 0
          0.25 0 0 1 0.75 0
          0.75 0.25 0 0.5 0 0
          0.75 0 0 1 0.25 0
          1 0 0 0 0.25 0
          0.5 0.25 0 0.25 0.5 0
          0.5 0.5 0 0.75 0.5 0
          0.25 0.75 0 0.5 0.75 0
          1 0.5 0 0.25 1 0
          0 1 0 0.75 1 0
          1 1 0
          <InformationKey name="L2_NORM_RANGE" location="vtkDataArray" length="2">
            <Value index="0">
              0
            </Value>
            <Value index="1">
              1.4142135624
            </Value>
          </InformationKey>
        </DataArray>
      </Points>
      <Cells>
        <DataArray type="Int64" Name="connectivity" format="ascii" RangeMin="0" RangeMax="24">
          6 3 13 5 9 14
          3 6 3 15 2 13
          14 16 15 3 8 17
          16 14 15 18 0 2
          17 4 19 16 20 7
          4 17 18 21 22 0
          19 1 21 18 4 23
          1 19 7 24 23 4
          10 8 14 9 12 11
          8 10 11 20 17 8
        </DataArray>
        <DataArray type="Int64" Name="offsets" format="ascii" RangeMin="4" RangeMax="60">
          4 8 12 16 20 24
          28 32 36 40 44 48
          52 56 60
        </DataArray>
        <DataArray type="UInt8" Name="types" format="ascii" RangeMin="9" RangeMax="9">
          9 9 9 9 9 9
          9 9 9 9 9 9
          9 9 9
        </DataArray>
      </Cells>
    </Piece>
  </UnstructuredGrid>
</VTKFile>
