<?xml version="1.0"?>
<VTKFile type="UnstructuredGrid" version="0.1" byte_order="LittleEndian" header_type="UInt32" compressor="vtkZLibDataCompressor">
  <UnstructuredGrid>
    <Piece NumberOfPoints="162" NumberOfCells="295">
      <PointData>
        <DataArray type="Float64" Name="Velocity" NumberOfComponents="3" format="ascii" RangeMin="0" RangeMax="2.5092805470042263">
          2.5092805470042263 0 0 2.419943889172444 -0.006719952311573907 0
          2.423987683355752 -0.0030978139231009755 0 2.338197082657697 0 0
          2.49253561605901 -0.00445082342264759 0 2.3504035201336597 -0.006612246458824014 0
          2.3803046110033232 -0.0020454986802268434 0 2.28075952553041 -0.0027651304849540675 0
          2.4105724354310314 -0.001364237762681443 0 2.310361698104788 -0.0015931099440919007 0
          2.259583704537402 -0.0046108136171729985 0 2.33977463463593 -0.0011658251651531486 0
          2.4376223451142525 0.001482689555890107 0 2.2400174202684573 -0.0014259219339657087 0
          2.2110268862432974 -0.006213290518387381 0 2.3686493894489433 0.0007478438805067263 0
          2.2692920773670604 -0.00048727125891420003 0 2.1797684442462004 0 0
          2.491149968018524 0.003667434728667096 0 2.298316172947877 0.0011991182673887794 0
          2.1681846270871565 -0.0016684958205979844 0 2.396628244501197 0.0009366788980338485 0
          2.1986143222473937 -0.0004329874372213452 0 2.1379313585996362 -0.0024593345585043475 0
          2.3266232388247263 0.0015362019638732877 0 2.227035824576627 0.0007503852974161535 0
          2.1117652253766224 -0.0042313781952939 0 2.2565429167714903 0.0020587345183181657 0
          2.4321380400925015 0.006272631695783459 0 2.128730047059144 -0.001190548136945302 0
          2.097461281568451 -0.0018443914659991428 0 2.3545088768716496 0.006985931223882563 0
          2.1571012998499213 0.00054746992368538 0 2.073047615494964 -0.0064827795316150655 0
          2.284133207302554 0.003948307317970828 0 2.1859302259628857 0.0008103434978131083 0
          2.0233238565722327 0 0 2.0588713340109273 -0.0005823649773389963 0
          2.216050148724495 0.007391576420452919 0 2.0867829233856767 0.00041223245235150197 0
          2.0263125484951017 -0.0017880967009690774 0 2.505231554193754 0 0
          2.116693161887481 0.0016067724491022409 0 2.001378354958399 -0.0040023468799818 0
          2.2618520661285855 0.004483951374111207 0 2.343302474346615 0 0
          2.143859385846759 0.002521574445962349 0 2.01688243832616 0.000287183808908284 0
          1.989241312289574 -0.0012873003595479937 0 2.046645996967306 0.0010976750191873733 0
          1.9555874352455582 -0.0013207718945992264 0 1.9550490623679349 -0.005758752117617005 0
          2.0751109078523235 0.0026922852406342374 0 2.175473056566077 0 0
          2.1066916041738972 0.00537667118836449 0 1.9468579930025722 0.00011581615648182872 0
          1.9768648790718961 0.001539597413925212 0 1.9191159437759566 -0.0010781607141924707 0
          2.0046046686843626 0.0010599402099615782 0 1.8877203389122208 -0.006649659617730286 0
          1.8660263147841234 0 0 2.03086758169574 0.00638334608002027 0
          1.9063975959025161 0.0010996331764280068 0 1.8766369129954206 -0.00010376990527178123 0
          1.9355099869005645 0.0021262874650512242 0 1.8484591549017595 -0.0014789903787103403 0
          2.02550305504691 0 0 1.9636604180787098 0.002891104743789785 0
          1.8167888838458108 -0.0031639578446428507 0 1.7932124041372481 -0.004189601983636548 0
          1.9469922750121182 0.0030806339096849378 0 1.8369726795500338 0.0014349383937762722 0
          1.865086304837236 0.0009104933321462984 0 1.806593008763362 -0.0002950833367169198 0
          1.8944207468507717 0.007670934682108173 0 1.7786974654977736 -0.0009020301153787359 0
          1.7486990817066803 -0.006578994174703978 0 1.7663188353838413 0.000807060956911132 0
          1.7953246644696397 0.001820312862982898 0 1.71087204114334 0 0
          1.8237785451159763 0.0027495888324616247 0 1.7364449347227313 -0.0007141031743384957 0
          1.8644071059285219 0 0 1.708611192243262 -0.0023738080070477563 0
          1.6795691486732962 -0.0038338040688492467 0 1.797517328691177 0.0023986243808656327 0
          1.7253637548690286 0.0020634557645085594 0 1.7574492220908073 0.007361537284910888 0
          1.696042441443924 0.00196423839330237 0 1.6653495324969514 -0.0011443185340856699 0
          1.647900193295844 -0.007845971642632787 0 1.6382919461823846 -0.0020215253058555836 0
          1.6114738332809866 -0.011120465380033626 0 1.6857772745953512 0.004759918964002428 0
          1.6543917593536928 0.003727783662799536 0 1.6234721016594547 0.0016969344159489252 0
          1.7126865225128332 0 0 1.5954034021890995 -0.003622550019052935 0
          1.5640944007238884 -0.008059751420549224 0 1.559620876892445 0 0
          1.651535724221732 0.006635597656341474 0 1.53300616707975 -0.007141997819711643 0
          1.6232572310436537 0.011864824467927276 0 1.5840081860187951 0.008039617211766381 0
          1.5455065709709472 0.003978503055189042 0 1.5171282026173705 -0.00755894292012807 0
          1.4846055099396829 -0.0064455165735301245 0 1.5501469324316486 0.012911914046058542 0
          1.507755160797991 0.013494489173165591 0 1.443451466496703 -0.008569531779656525 0
          1.4585752961645542 -0.0013888612564282726 0 1.5424925593000498 0 0
          1.4582473745057989 -0.011315117892833971 0 1.487291636422313 0.009346959293205559 0
          1.4603344725991885 -0.03570120031046707 0 1.4318518391050479 0.02081455787571391 0
          1.5030591551354768 0 0 1.4865947168655533 0.008084114712791801 0
          1.3917466029194043 0.010539456446485112 0 1.343504210072305 -0.04412217605242841 0
          1.3494419555922748 -0.1684629760130376 0 1.412814725141341 0.012410292423814202 0
          1.47083974156813 0.03833657898315411 0 1.6280104695711335 -0.19829142008253695 0
          1.3927900635998118 0.20492587319079647 0 1.3955627837787252 -0.04358131018878714 0
          0.9540055728504462 0.07150221118394515 0 1.3948549458525699 -0.08776761087332441 0
          1.1208228739328732 -0.3670087351576077 0 1.5118014957770813 0 0
          1.6715741629144096 0.16410519312957467 0 1.3523775196533188 0.06033951673181326 0
          1.1566995599394172 0.36564545216604405 0 1.8563472746591472 -0.010903738076039782 0
          0 0 0 0 0 0
          1.3010258652335056 0 0 1.4164684578917557 0.04501549502585278 0
          1.297560765083442 0.07537984598816388 0 1.8782552195473547 -0.08837712038814977 0
          0 0 0 1.351491918591795 0.08584873715623137 0
          1.4447371708517516 0.5202824032487705 0 0 0 0
          0 0 0 1.4300848285433267 -0.548842387314807 0
          1.1010948219012082 0.14933967961042086 0 1.2142741230542677 0.12775753918188248 0
          1.26479639587917 -0.10197904255948595 0 1.131889367297532 0.33828080537910943 0
          1.2830601613096717 0 0 0.6783722370195933 -0.0028293759315528508 0
          1.1327792997610922 0.10598602885107886 0 1.0840187712942941 -0.26688961983181925 0
          1.0774544487106905 -0.12642250369952596 0 0.9532286614535757 0.03554548332031775 0
          1.2064442941588134 -0.13069326770285172 0 1 0 0
          1 0 0 1.1186357755236147 -0.09403353536256809 0
          1 0 0 1 0 0
          <InformationKey name="L2_NORM_RANGE" location="vtkDataArray" length="2">
            <Value index="0">
              0
            </Value>
            <Value index="1">
              2.509280547
            </Value>
          </InformationKey>
        </DataArray>
        <DataArray type="Float64" Name="Pressure" format="ascii" RangeMin="-0.01589334318751945" RangeMax="17.354961903601144">
          0.09039645347751524 1.6178899699808729 1.4613924445172004 3.092592238090229 0.009892948684001368 2.793485269928219
          2.2512066341483563 4.061268992468037 1.6836379214174944 3.5412458364616075 4.550235214287704 3.010411838653093
          1.1154200179940288 4.77306927436039 5.261339075561712 2.470360621265364 4.269484927559309 5.799863523008345
          -0.01589334318751945 3.757990940533371 5.956923858278612 1.9265453860079886 5.470789903505569 6.441105769948463
          3.2399414066137973 4.987823147034913 6.976409074720085 4.48844945639275 1.3683381591322066 6.59687377517717
          7.059787078189396 2.7108075569961807 6.142424482235144 7.4857237221853765 3.983577224744213 5.666586125796421
          8.190552776332384 7.657380407096753 5.185017197758743 7.229712562900552 8.093453287642097 0.07989387504988699
          6.779789178298126 8.505327352696664 4.511650744799611 3.0864999391643133 6.334349476819021 8.255241133050287
          8.65435129026686 7.829676566906268 9.067840868067888 9.198156962627252 7.409942592449547 5.8140539348436
          6.957775738760713 9.21342601568894 8.814545560422733 9.587655992044095 8.423221554792171 9.967150681936637
          10.272015897788592 8.005893963043269 9.737468406260906 10.110984935013908 9.373182603836808 10.45458339729879
          8.186482536360534 8.976446680904967 10.81664280318577 11.171228580304241 9.32385361625796 10.591611114297447
          10.25487721433237 10.939903450389467 9.883160502049359 11.257439213550652 11.589422336355446 11.38583486965965
          11.078135942605254 12.012789077234771 10.736726271552818 11.707804414466931 10.26361982525441 11.996361828663975
          12.284257893550963 11.126553515941044 11.829949035836929 11.506200091568394 12.110049294015052 12.407273080540437
          12.672501546018665 12.675137794366627 12.924092043468262 12.240537101942092 12.526674260089521 12.772411750162519
          12.007292992354405 13.041085561205222 13.314620069470664 13.47970752540383 12.651181813147476 13.538524401163706
          12.876823751895786 13.143833312409635 13.360955269431491 13.616924173601658 13.958839207969103 13.49060192491213
          13.706687291286809 14.108170622300864 13.8771186056581 13.508570806555714 14.115713744483399 14.020010832227053
          14.437950949611654 14.169934876945794 14.5029960061567 13.994874236244288 14.194508480868432 14.710509601277373
          14.466039983594612 14.37475405644578 14.52015606138846 14.719587291331969 14.459949018156507 15.008401520704352
          14.443466657724043 15.0866734448685 14.310842513876416 14.523778916773933 14.78463062931635 14.815842399446167
          14.289014031075975 14.921961394851694 14.426389075826378 15.043736046233194 15.83328832448 15.140431147668679
          15.799648219796854 15.05603870239602 15.140218043601344 15.397085328617827 15.899031137838481 17.316674092824638
          17.354961903601144 16.13592046266318 16.27507386634564 16.11299234179404 15.954670390680349 16.690858433553718
          15.936917109446673 16.99973520019032 16.30644157036351 16.823016561080014 16.386664096718718 16.90914543268426
          16.159005914301776 16.366847823109108 16.781250609743044 16.39456755217265 16.86146016596416 16.470793603457818
        </DataArray>
        <DataArray type="Float64" Name="Temperature" format="ascii" RangeMin="267.43100064837205" RangeMax="600">
          300.00000000000006 296.3169839168547 295.39712047735446 300 295.4795520604952 295.26152124616306
          296.26465252132607 295.16605657461713 296.054126377428 296.36225524520154 296.73672273267556 296.07945587582293
          296.0905291997675 296.3622089272467 295.305737106525 296.14616607725486 296.07999102064923 300
          295.40288538050504 296.1231768836294 296.3536439717012 296.10228151249373 296.08074749954017 295.2458241565424
          296.26226707762356 296.110410352517 296.63215071342063 296.3293270335514 295.70627696111933 296.08503395085836
          296.3364496971502 295.4863799986022 296.1107710611973 295.39820476281034 295.1222247907388 296.29889063472865
          299.99999999999994 296.11196449935153 295.350961194205 296.1100161309584 296.2523731583302 300
          296.2830463344286 295.5963817749065 296.3933387154667 300 295.22844468731853 296.1202548556716
          296.1767995140276 296.16065708848686 295.97351323375767 295.8182635773164 296.05222419488143 300.00000000000006
          295.7831136844106 296.11551520515263 296.1162982835173 296.25615016646 296.2440232013211 295.3374903695023
          300 295.66253724156854 296.1030510719574 296.095626673615 296.31778593258633 296.3741362577181
          299.99999999999994 295.2593895763828 295.13656719152993 296.59712341110094 296.30154834429067 296.0995505660671
          296.3287964143834 296.0898991255791 295.4375361174172 296.36787776955066 295.24959649590187 296.09768938914823
          296.341672335038 299.99999999999994 295.2050900077328 296.0901049484271 300 296.3738278619389
          295.26286778480016 296.2138790533464 296.3579438901079 295.3609441925226 296.0938338542379 296.094092572452
          296.5064259666409 296.3564460747826 295.10631246902534 295.1685558141626 296.34786396963244 296.10604877147006
          300.00000000000006 295.9472229916197 296.7681157777976 300 296.20850455431565 295.55032809689334
          295.3307350822553 296.2086624751238 296.53547328674387 295.8052493281164 296.0768654258256 295.5118988614301
          296.0535253272021 297.43571571949866 295.920516530739 300.00000000000006 293.45447545947917 296.5728540160545
          285.80387427888763 293.06502674851214 300 295.8092220747933 303.2445517914441 297.90400946282716
          314.20306583678865 298.3367551351432 286.1029750710373 275.32595906352344 307.2437527264251 297.0855970551856
          390.5477749713437 296.7945520733633 440.2471798564207 300 270.8168626252576 300.19777312754485
          437.9125599073909 294.5120076199499 600 600 300 296.6643425236266
          294.2953895555926 284.18988064766324 599.9999999999999 298.3037034735689 322.01532259312035 600
          600 313.35782987291594 296.24115890376174 295.82556251438956 295.20134750006247 267.43100064837205
          300.00000000000006 323.4941334241742 296.35099426856914 272.9895340031834 298.3425790186252 300.8502941649225
          295.5063824781624 299.99999999999994 300.00000000000006 296.5559319035617 300.00000000000006 300
        </DataArray>
        <DataArray type="Float64" Name="Density" format="ascii" RangeMin="0.5585250735981271" RangeMax="1.2530897440700886">
          1.117050147196254 1.1309343113890094 1.134456028607654 1.1170501471962542 1.134139543064781 1.1349770289894525
          1.1311340765998183 1.1353441112025702 1.131938433891818 1.1307615535642748 1.1293345868107298 1.1318415969374958
          1.1317992678272377 1.1307617302891102 1.1348070899076061 1.131586637091414 1.1318395512093373 1.1170501471962542
          1.1344338892533783 1.1316744865619548 1.130794410582231 1.1317543466639461 1.1318366593876446 1.1350373713708979
          1.1311431842620474 1.1317232776785 1.1297327122259053 1.1308872041576006 1.1332699718205121 1.131820273680215
          1.1308600224554115 1.1341133359867939 1.1317218990646507 1.1344518644856236 1.1355127333988315 1.1310033710926017
          1.1170501471962544 1.1317173378166896 1.134633328443867 1.1317247843810436 1.1311809609699772 1.1170501471962542
          1.1310638536523487 1.1336912926561558 1.130642967926421 1.1170501471962542 1.135104188601482 1.1316856535943838
          1.1314695975806992 1.1315312690528998 1.1322467355185424 1.1328409548022687 1.131945706775981 1.117050147196254
          1.132975577897362 1.1317037674527262 1.131700774666646 1.1311665393970125 1.1312128445242562 1.134685080920839
          1.1170501471962542 1.1334376254948841 1.1317514052816644 1.1317797831856267 1.1309312503945221 1.1307162237242936
          1.1170501471962544 1.1349852231276218 1.135457552236833 1.129866130543644 1.1309932264325728 1.1317647849117685
          1.1308892291731731 1.1318016762765202 1.1343008358480549 1.1307401013933587 1.1350228692472666 1.1317718988291368
          1.1308400925132183 1.1170501471962544 1.1351939905578796 1.1318008895205953 1.1170501471962542 1.1307174003062928
          1.1349718529562003 1.1313279621800705 1.1307780036533788 1.1345949786118 1.1317866360021798 1.1317856470806695
          1.1302117418412343 1.1307837187192928 1.1355739609739803 1.135334498061724 1.1308164657235942 1.1317399477290404
          1.117050147196254 1.1323473177795813 1.1292151223205882 1.1170501471962542 1.1313484893457078 1.1338679483685499
          1.134711035292484 1.131347886178109 1.1301010312342183 1.132890795278471 1.1318514997006095 1.134015399887558
          1.131940731962245 1.1266805781821831 1.1324495107255121 1.117050147196254 1.1419660362452018 1.1299585906832028
          1.1725349945112036 1.1434835738569669 1.1170501471962542 1.1328755804446986 1.1050983181038352 1.1249094792753782
          1.0665556151286895 1.123277767122837 1.1713091906005857 1.2171574569238428 1.0907139402677073 1.1280083837138237
          0.8580641489596635 1.1291145400675706 0.76119748062479 1.1170501471962542 1.23742310914587 1.1163142240115689
          0.76525561228421 1.1378654706375237 0.5585250735981271 0.5585250735981271 1.1170501471962542 1.1296101220259978
          1.1387030040291297 1.1791941479237598 0.5585250735981272 1.123402224835499 1.0406804293046263 0.5585250735981271
          0.5585250735981271 1.0694324896709428 1.131223781998987 1.1328130040911375 1.1352083823357388 1.2530897440700886
          1.117050147196254 1.0359230957658956 1.1308045211253013 1.2275746957938996 1.1232558398509902 1.1138930247319958
          1.1340365691886227 1.1170501471962544 1.117050147196254 1.1300230685247385 1.117050147196254 1.1170501471962542
        </DataArray>
        <DataArray type="Float64" Name="stream" format="ascii" RangeMin="-5.778399921952298" RangeMax="0.019004179062067805">
          0.019004179062067805 -0.5505648731176832 -1.1768685709208155 0.004024598941748914 -1.9151748823716173 -1.081185658603914
          -1.8375443424130034 -0.982261789036088 -2.62054790410417 -1.7346456410987925 -0.46695948320398084 -2.502584003228315
          -3.430286277680545 -1.6141614144474679 -0.8730525329437868 -3.2735496827151778 -2.370661911381312 -0.005745535365969756
          -3.8640756781690833 -3.1452553801083867 -1.4795721057238966 -4.062971023135019 -2.2061006670424037 -0.7781913416020387
          -3.8992087628151837 -2.942239790433115 -0.36935524601517267 -3.70534755147027 -4.8532223428997865 -2.077428454161375
          -1.3814142104789502 -4.688504793758068 -2.803849047113731 -0.6895033827081773 -4.511025537204318 -3.5645357787932777
          -0.011393433590659275 -1.9379077220334207 -4.347458296144806 -2.621342134212161 -1.2467703070787268 -5.778399921952298
          -3.3624963274054323 -0.5895817712055471 -4.988245905017266 -5.624046717469317 -4.154157605390979 -2.493696155669383
          -1.7984111258283557 -3.1790865772172516 -1.1456422259235375 -0.5599722070437212 -3.9576275690505134 -5.458072499014145
          -4.776788902397088 -2.309348079391189 -2.9873565132832423 -1.6821379891672033 -3.7497968753419646 -1.0339412749090828
          -0.022518737800987954 -4.584622275008296 -2.8105444703516578 -2.176593918815653 -3.5842040290681627 -1.555879228259134
          -5.283544945625872 -4.394739609929176 -0.9698001027593849 -0.4826345039493288 -4.813626737107142 -2.665365031424823
          -3.378779213893452 -2.0530734688216645 -4.2322580385864645 -1.4902936325664216 -0.9075602983725055 -2.5296129100987375
          -3.249904504331757 -0.041939247212614196 -4.0151912431771155 -1.9764124534580658 -5.06859337725678 -1.3835771771392789
          -0.8088140194389819 -4.524051237782462 -3.104845320628756 -3.8687398004156317 -2.418343962202308 -1.8470388616850621
          -0.4048684114361412 -1.2928911284362998 -0.7268702140505567 -3.676408277244233 -2.9047135367784507 -2.307083420908847
          -4.803734455014907 -1.7892498892809456 -1.213561909684256 -0.05867608049356565 -4.199467436662417 -0.6367159358085253
          -3.5131270965593546 -2.8219432878727315 -2.2503856905071618 -1.6579220348925248 -0.9993028508882941 -3.3379010564453027
          -2.617697191586125 -0.527477350661237 -1.9855591689238077 -4.479041741502954 -1.4170922930383252 -3.028219905786294
          -0.9434536426798882 -2.267563171159878 -0.051767700137556105 -3.80248748313027 -1.7998274865002513 -0.5603177003397992
          -1.342790125123206 -3.4239372429317667 -2.704676573535781 -1.034791520463982 -1.997034418495682 -0.3231681624818835
          -1.5792946727924078 -0.6001678278211545 -1.3674794832681376 -4.090136344468495 -2.343175215741041 -3.1732434682009703
          -1.6045597533737128 -1.0757473356663743 -1.4676947079781435 -1.3627487837973034 -0.06760723787970646 -3.56872252468922
          -0.6887288719402666 -2.075704176519768 -1.5016093224940417 -2.947588409591596 -1.1475800023523839 -1.3218313678365283
          -1.4591416781058313 -1.7910326924380868 -0.7241382000834395 -0.40897656130924415 -2.576401482085267 -1.0732096526467134
          -3.5905448699742797 -1.361597311768702 -0.4963760760027042 -1.6050029124119838 -2.2330729940021117 -1.3366564921869155
          -2.901478622990771 -0.06813719646523758 -0.919949141123347 -2.3663681730199584 -1.7349107103437924 -3.0246238734738626
        </DataArray>
      </PointData>
      <CellData>
        <DataArray type="UInt8" Name="vtkGhostType" format="ascii" RangeMin="0" RangeMax="0">
          0 0 0 0 0 0
          0 0 0 0 0 0
          0 0 0 0 0 0
          0 0 0 0 0 0
          0 0 0 0 0 0
          0 0 0 0 0 0
          0 0 0 0 0 0
          0 0 0 0 0 0
          0 0 0 0 0 0
          0 0 0 0 0 0
          0 0 0 0 0 0
          0 0 0 0 0 0
          0 0 0 0 0 0
          0 0 0 0 0 0
          0 0 0 0 0 0
          0 0 0 0 0 0
          0 0 0 0 0 0
          0 0 0 0 0 0
          0 0 0 0 0 0
          0 0 0 0 0 0
          0 0 0 0 0 0
          0 0 0 0 0 0
          0 0 0 0 0 0
          0 0 0 0 0 0
          0 0 0 0 0 0
          0 0 0 0 0 0
          0 0 0 0 0 0
          0 0 0 0 0 0
          0 0 0 0 0 0
          0 0 0 0 0 0
          0 0 0 0 0 0
          0 0 0 0 0 0
          0 0 0 0 0 0
          0 0 0 0 0 0
          0 0 0 0 0 0
          0 0 0 0 0 0
          0 0 0 0 0 0
          0 0 0 0 0 0
          0 0 0 0 0 0
          0 0 0 0 0 0
          0 0 0 0 0 0
          0 0 0 0 0 0
          0 0 0 0 0 0
          0 0 0 0 0 0
          0 0 0 0 0 0
          0 0 0 0 0 0
          0 0 0 0 0 0
          0 0 0 0 0 0
          0 0 0 0 0 0
          0
        </DataArray>
      </CellData>
      <Points>
        <DataArray type="Float32" Name="Points" NumberOfComponents="3" format="ascii" RangeMin="0.22994902639587697" RangeMax="7.102112369882704">
          7 1.2000000476837158 0 6.599672794342041 0.9660372734069824 0
          6.6399030685424805 0.7036619186401367 0 6.222221851348877 1.2000000476837158 0
          7 0.4000000059604645 0 6.291684150695801 0.7389311790466309 0
          6.435248851776123 0.4197305142879486 0 5.9434661865234375 0.7742003798484802 0
          6.57881498336792 0.10052960366010666 0 6.08703088760376 0.45499980449676514 0
          5.801344871520996 0.9959174990653992 0 6.23059606552124 0.1357990950345993 0
          6.722381114959717 -0.21868319809436798 0 5.7388129234313965 0.49026909470558167 0
          5.5952467918396 0.8094696998596191 0 6.3741607666015625 -0.18340149521827698 0
          5.882378101348877 0.17106840014457703 0 5.444444179534912 1.2000000476837158 0
          7 -0.4000000059604645 0 6.025942802429199 -0.14813220500946045 0
          5.384244918823242 0.5261802077293396 0 6.51772403717041 -0.5026149749755859 0
          5.531583786010742 0.20377269387245178 0 5.236144065856934 0.8432719111442566 0
          6.169507026672363 -0.4673318862915039 0 5.674856185913086 -0.1111351028084755 0
          5.060293197631836 1.0298899412155151 0 5.821293830871582 -0.43206480145454407 0
          6.6612749099731445 -0.8218216896057129 0 5.183467864990234 0.23962560296058655 0
          5.035661220550537 0.5564131140708923 0 6.313057899475098 -0.7865372896194458 0
          5.326355934143066 -0.07969167828559875 0 4.893916130065918 0.8762899041175842 0
          5.964842796325684 -0.7512490749359131 0 5.473134994506836 -0.3970530033111572 0
          4.6666669845581055 1.2000000476837158 0 4.836434841156006 0.26916739344596863 0
          5.616653919219971 -0.7159011960029602 0 4.978854179382324 -0.04412427172064781 0
          4.688116073608398 0.5933424234390259 0 7 -1.2000000476837158 0
          5.12586784362793 -0.3661642074584961 0 4.545888900756836 0.9131073951721191 0
          5.81204080581665 -0.966787576675415 0 6.222221851348877 -1.2000000476837158 0
          5.268884181976318 -0.6795946955680847 0 4.630309104919434 -0.01361996028572321 0
          4.488448143005371 0.30607008934020996 0 4.777815818786621 -0.33047690987586975 0
          4.339453220367432 0.6220952272415161 0 4.286639213562012 0.9191486239433289 0
          4.920590877532959 -0.6494935750961304 0 5.444444179534912 -1.2000000476837158 0
          5.067508220672607 -0.9653593897819519 0 4.283215045928955 0.02286371961236 0
          4.43105411529541 -0.300768107175827 0 4.142016887664795 0.33384108543395996 0
          4.573105812072754 -0.6119378209114075 0 3.992300033569336 0.6605401039123535 0
          3.8888890743255615 1.2000000476837158 0 4.721052169799805 -0.9289693236351013 0
          4.083156108856201 -0.26410868763923645 0 3.9346089363098145 0.05202680081129074 0
          4.2248640060424805 -0.583368182182312 0 3.794219970703125 0.37224650382995605 0
          4.6666669845581055 -1.2000000476837158 0 4.372566223144531 -0.8980712890625 0
          3.6435329914093018 0.6871886849403381 0 3.4845330715179443 0.9496920704841614 0
          4.238772869110107 -1.0396209955215454 0 3.7371129989624023 -0.2360759973526001 0
          3.8777899742126465 -0.544031023979187 0 3.5880980491638184 0.08982273191213608 0
          4.026970863342285 -0.8604139089584351 0 3.4486160278320312 0.3975287973880768 0
          3.294600009918213 0.7115796804428101 0 3.3894379138946533 -0.1980305016040802 0
          3.5296289920806885 -0.5176354050636292 0 3.1111109256744385 1.2000000476837158 0
          3.678446054458618 -0.8306925892829895 0 3.2394111156463623 0.11707709729671478 0
          3.8888890743255615 -1.2000000476837158 0 3.1010890007019043 0.43808528780937195 0
          2.961361885070801 0.7589535117149353 0 3.503129005432129 -1.0054839849472046 0
          3.18314790725708 -0.47578510642051697 0 3.3340699672698975 -0.7912443280220032 0
          3.044409990310669 -0.17236250638961792 0 2.893527030944824 0.1568426936864853 0
          2.7548489570617676 0.9893125891685486 0 2.7534260749816895 0.4774535000324249 0
          2.6135880947113037 0.7982968091964722 0 2.9854938983917236 -0.7631890773773193 0
          2.8351199626922607 -0.4524492025375366 0 2.697058916091919 -0.13238230347633362 0
          3.1111109256744385 -1.2000000476837158 0 2.544728994369507 0.1811445951461792 0
          2.388031005859375 0.49400800466537476 0 2.3333330154418945 1.2000000476837158 0
          2.7681961059570312 -0.9710931181907654 0 2.2573049068450928 0.8266525864601135 0
          2.6428470611572266 -0.721183180809021 0 2.489516019821167 -0.40704599022865295 0
          2.353508949279785 -0.11029759794473648 0 2.1956899166107178 0.20170240104198456 0
          1.9920220375061035 0.5723655819892883 0 2.2942399978637695 -0.6953821182250977 0
          2.141784906387329 -0.3882349133491516 0 1.8683220148086548 0.8697000741958618 0
          2.0066850185394287 -0.0679963231086731 0 2.3333330154418945 -1.2000000476837158 0
          1.8129379749298096 0.2728925049304962 0 1.954548954963684 -0.6485614776611328 0
          1.6430920362472534 0.5740132927894592 0 1.7980589866638184 -0.3366861045360565 0
          1.555556058883667 1.2000000476837158 0 1.9700770378112793 -0.9401506781578064 0
          1.6666820049285889 -0.05719396844506264 0 1.4286249876022339 0.8451691269874573 0
          1.4677189588546753 0.2914707064628601 0 1.6918359994888306 -0.8584386110305786 0
          1.606449007987976 -0.6244480013847351 0 1.3151990175247192 0.5185866951942444 0
          1.4524099826812744 -0.32973089814186096 0 1.2210429906845093 1.0129400491714478 0
          1.3220579624176025 -0.01946846954524517 0 1.1222139596939087 0.8065894842147827 0
          1.1284430027008057 0.23862800002098083 0 1.555556058883667 -1.2000000476837158 0
          1.2835420370101929 -0.5449687838554382 0 1.3725509643554688 -0.8790327906608582 0
          1.1284430027008057 -0.23862800002098083 0 0.9798405170440674 0.4904909133911133 0
          1 0 0 0.861803412437439 0.19021129608154297 0
          0.7777777910232544 1.2000000476837158 0 1.1798269748687744 -1.0302430391311646 0
          0.729131281375885 0.7251076102256775 0 0.9428092837333679 -0.5025230050086975 0
          0.861803412437439 -0.19021129608154297 0 1.0134249925613403 -0.8419373035430908 0
          0.6745458245277405 0.38610830903053284 0 0.638196587562561 0.1175571009516716 0
          0.638196587562561 -0.1175571009516716 0 0.6745458245277405 -0.38610830903053284 0
          0.4659998118877411 0.650235116481781 0 0.44361230731010437 0.9165406823158264 0
          0.6880131959915161 -0.7223715782165527 0 0.3890891969203949 0.32260850071907043 0
          0.7777777910232544 -1.2000000476837158 0 0.39402180910110474 4.742348735931046e-10 0
          0.24515259265899658 0.8073607087135315 0 0.366202712059021 -0.29110780358314514 0
          0.4311263859272003 -0.628279983997345 0 0.22986270487308502 0.006300130859017372 0
          0.4553210139274597 -0.959943413734436 0 0 1.2000000476837158 0
          0 0.4000000059604645 0 0.2216119021177292 -0.7970559000968933 0
          0 -0.4000000059604645 0 0 -1.2000000476837158 0
          <InformationKey name="L2_NORM_RANGE" location="vtkDataArray" length="2">
            <Value index="0">
              0.2299490264
            </Value>