<?xml version="1.0"?>
<VTKFile type="UnstructuredGrid" version="0.1" byte_order="LittleEndian" header_type="UInt32" compressor="vtkZLibDataCompressor">
  <UnstructuredGrid>
    <Piece NumberOfPoints="9" NumberOfCells="7">
      <PointData>
        <DataArray type="Float64" Name="Velocity" NumberOfComponents="3" format="ascii" RangeMin="0" RangeMax="0.19104965836477072">
          0 0 0 -0.05678698220234896 -0.15150020008439058 0
          0 0 0 -0.08479861201991556 0.050734297102357856 0
          0 0 0 0 0 0
          0 0 0 -0.015402989576386583 -0.1904277287408673 0
          0 0 0
          <InformationKey name="L2_NORM_RANGE" location="vtkDataArray" length="2">
            <Value index="0">
              0
            </Value>
            <Value index="1">
              0.19104965836
            </Value>
          </InformationKey>
        </DataArray>
        <DataArray type="Float64" Name="Pressure" format="ascii" RangeMin="0.8300003135428073" RangeMax="1.7267701297864653">
          1.6132303690658678 1.3341957326512042 1.3887520084174396 1.1124601764328435 1.7267701297864653 1.4079511954058546
          1.1157870374411785 1.0643486902698849 0.8300003135428073
        </DataArray>
        <DataArray type="Float64" Name="Temperature" format="ascii" RangeMin="240.00000000026412" RangeMax="613.5027894269472">
          537.7052223368693 548.6398457006092 613.5027894269472 601.5465338702961 240.00000000026418 240.00000000026412
          240.00000000026412 552.0673213577323 240.00000000026418
        </DataArray>
        <DataArray type="Float64" Name="Density" format="ascii" RangeMin="0.5717872748822524" RangeMax="1.461637867077952">
          0.6523892153670113 0.6393868233378752 0.5717872748822524 0.5831520395307134 1.4616378670779515 1.461637867077952
          1.461637867077952 0.6354172299790685 1.4616378670779515
        </DataArray>
        <DataArray type="Float64" Name="stream" format="ascii" RangeMin="-0.007760726953576538" RangeMax="0.012329273842830453">
          0.00621827666005533 0.000236756690829577 0.00022321647475281522 -0.007760726953576538 0.00621827666005533 0.008663210003845543
          0.010188350851657493 -0.0049353028358656795 0.012329273842830453
        </DataArray>
      </PointData>
      <CellData>
        <DataArray type="UInt8" Name="vtkGhostType" format="ascii" RangeMin="0" RangeMax="0">
          0 0 0 0 0 0
          0
        </DataArray>
        <DataArray type="Float64" Name="blocks" format="ascii" RangeMin="2.6666666666666665" RangeMax="3">
          3 2.666666666666667 3 3 3 2.666666666666667
          2.6666666666666665
        </DataArray>
      </CellData>
      <Points>
        <DataArray type="Float32" Name="Points" NumberOfComponents="3" format="ascii" RangeMin="0.6000000238418579" RangeMax="1.1661903912355949">
          0.800000011920929 0 0 0.800000011920929 0.20000000298023224 0
          0.6000000238418579 0 0 0.6000000238418579 0.20000000298023224 0
          1 0 0 1 0.20000000298023224 0
          1 0.4000000059604645 0 0.800000011920929 0.4000000059604645 0
          1 0.6000000238418579 0
          <InformationKey name="L2_NORM_RANGE" location="vtkDataArray" length="2">
            <Value index="0">
              0.60000002384
            </Value>
            <Value index="1">
              1.1661903912
            </Value>
          </InformationKey>
        </DataArray>
      </Points>
      <Cells>
        <DataArray type="Int64" Name="connectivity" format="ascii" RangeMin="0" RangeMax="8">
          0 1 2 1 3 2
          4 5 0 5 1 0
          5 6 1 6 7 1
          6 8 7
        </DataArray>
        <DataArray type="Int64" Name="offsets" format="ascii" RangeMin="3" RangeMax="21">
          3 6 9 12 15 18
          21
        </DataArray>
        <DataArray type="UInt8" Name="types" format="ascii" RangeMin="5" RangeMax="5">
          5 5 5 5 5 5
          5
        </DataArray>
      </Cells>
    </Piece>
  </UnstructuredGrid>
</VTKFile>
