<?xml version="1.0"?>
<VTKFile type="UnstructuredGrid" version="0.1" byte_order="LittleEndian" header_type="UInt32" compressor="vtkZLibDataCompressor">
  <UnstructuredGrid>
    <Piece NumberOfPoints="17" NumberOfCells="17">
      <PointData>
        <DataArray type="Float64" Name="Velocity" NumberOfComponents="3" format="ascii" RangeMin="0" RangeMax="0.19104965836477072">
          -0.008305434688857206 0.063152202296785 0 0 0 0
          0 0 0 0.017301842767254456 0.07938391878346761 0
          -0.023862269027875527 -0.02995101536023711 0 0.013690688450274682 -0.037053833424841365 0
          0.00809626818379778 0.02649947780661477 0 0.05911058662514705 0.011298396093386502 0
          -0.07029559255285059 -0.0037712826144792877 0 0 0 0
          0 0 0 -0.07848959404076694 -0.024147653838378386 0
          0 0 0 -0.08479861201991556 0.050734297102357856 0
          -0.026412544616066153 0.05119285537967369 0 -0.015402989576386583 -0.1904277287408673 0
          0.001110440600098253 -0.17354749413543874 0
          <InformationKey name="L2_NORM_RANGE" location="vtkDataArray" length="2">
            <Value index="0">
              0
            </Value>
            <Value index="1">
              0.19104965836
            </Value>
          </InformationKey>
        </DataArray>
        <DataArray type="Float64" Name="Pressure" format="ascii" RangeMin="0.19129450182387794" RangeMax="1.1520535348908758">
          0.44379406115634973 0.40966160294450005 0.6661168583849549 0.19129450182387794 0.6023591543061504 0.34472727261277175
          0.5795464088116131 0.30824003648638093 0.7053777495312843 0.897835128963611 1.1520535348908758 0.8705801421418471
          0.96887191360965 1.1124601764328435 0.8451027646897844 1.0643486902698849 0.7866562305458938
        </DataArray>
        <DataArray type="Float64" Name="Temperature" format="ascii" RangeMin="552.0673213577323" RangeMax="960.0000000010567">
          660.184707195317 960.0000000010567 960.0000000010566 663.4143308568758 597.6398460685002 594.3000404091783
          596.3408188362089 598.2123137244284 647.2121995251412 960.0000000010565 600.8624265720657 597.8105037889788
          651.322130097408 601.5465338702961 600.7300602874896 552.0673213577323 557.4135927219653
        </DataArray>
        <DataArray type="Float64" Name="Density" format="ascii" RangeMin="0.3654094667694879" RangeMax="0.6354172299790685">
          0.5313559739809479 0.3654094667694879 0.36540946676948793 0.5287692348249471 0.5869640225743705 0.5902626017955036
          0.5882426240479162 0.5864023191282725 0.5420062977126683 0.365409466769488 0.5838159828038797 0.5867964612126002
          0.5385861648008673 0.5831520395307134 0.5839446222005547 0.6354172299790685 0.6293228092736305
        </DataArray>
        <DataArray type="Float64" Name="stream" format="ascii" RangeMin="-0.016595657488264318" RangeMax="0.0014959200559599376">
          -0.011351524084870073 -0.004079038864715512 -0.004076011745907418 -0.010192707061338705 -0.013198447743318879 -0.014930408164272845
          -0.015064892662264592 -0.007012383547722528 -0.00649899867226499 -0.0017693476227337909 0.0014959200559599376 -0.0054624143550568
          0.00007190736978748835 -0.008637246948876976 -0.016595657488264318 -0.003680117048400596 -0.0038395122848027636
        </DataArray>
      </PointData>
      <CellData>
        <DataArray type="UInt8" Name="vtkGhostType" format="ascii" RangeMin="0" RangeMax="1">
          0 0 0 0 0 1
          0 0 0 0 0 0
          0 0 0 0 0
        </DataArray>
        <DataArray type="Float64" Name="blocks" format="ascii" RangeMin="0.6666666666666666" RangeMax="1.3333333333333335">
          1 0.6666666666666667 1 0.6666666666666667 1 0.6666666666666667
          1.3333333333333335 1.3333333333333333 0.6666666666666666 1 1.3333333333333335 1
          1.3333333333333333 0.6666666666666666 1.3333333333333335 0.6666666666666666 1
        </DataArray>
      </CellData>
      <Points>
        <DataArray type="Float32" Name="Points" NumberOfComponents="3" format="ascii" RangeMin="0" RangeMax="1.000000023841858">
          0.20000000298023224 0.4000000059604645 0 0 0.4000000059604645 0
          0 0.20000000298023224 0 0.20000000298023224 0.6000000238418579 0
          0.4000000059604645 0.4000000059604645 0 0.4000000059604645 0.6000000238418579 0
          0.6000000238418579 0.6000000238418579 0 0.6000000238418579 0.800000011920929 0
          0.20000000298023224 0.20000000298023224 0 0 0 0
          0.4000000059604645 0 0 0.4000000059604645 0.20000000298023224 0
          0.20000000298023224 0 0 0.6000000238418579 0.20000000298023224 0
          0.6000000238418579 0.4000000059604645 0 0.800000011920929 0.4000000059604645 0
          0.800000011920929 0.6000000238418579 0
          <InformationKey name="L2_NORM_RANGE" location="vtkDataArray" length="2">
            <Value index="0">
              0
            </Value>
            <Value index="1">
              1.0000000238
            </Value>
          </InformationKey>
        </DataArray>
      </Points>
      <Cells>
        <DataArray type="Int64" Name="connectivity" format="ascii" RangeMin="0" RangeMax="16">
          0 1 2 0 3 1
          4 5 0 5 3 0
          6 5 4 6 7 5
          8 2 9 10 11 12
          13 11 10 8 0 2
          11 4 8 4 0 8
          13 14 11 15 14 13
          14 6 4 15 16 14
          16 6 14
        </DataArray>
        <DataArray type="Int64" Name="offsets" format="ascii" RangeMin="3" RangeMax="51">
          3 6 9 12 15 18
          21 24 27 30 33 36
          39 42 45 48 51
        </DataArray>
        <DataArray type="UInt8" Name="types" format="ascii" RangeMin="5" RangeMax="5">
          5 5 5 5 5 5
          5 5 5 5 5 5
          5 5 5 5 5
        </DataArray>
      </Cells>
    </Piece>
  </UnstructuredGrid>
</VTKFile>
