<?xml version="1.0"?>
<VTKFile type="UnstructuredGrid" version="0.1" byte_order="LittleEndian" header_type="UInt32" compressor="vtkZLibDataCompressor">
  <UnstructuredGrid>
    <Piece NumberOfPoints="10" NumberOfCells="7">
      <PointData>
        <DataArray type="Float64" Name="Velocity" NumberOfComponents="3" format="ascii" RangeMin="0" RangeMax="0.173551046666439">
          0.017301842767254456 0.07938391878346761 0 0 0 0
          0 0 0 0.07575670470835778 0.06822549170156329 0
          0.013690688450274682 -0.037053833424841365 0 0.059240394596684474 -0.04298910516802472 0
          0.05911058662514705 0.011298396093386502 0 0.06413272517664012 -0.06701065350920944 0
          0.00809626818379778 0.02649947780661477 0 0.001110440600098253 -0.17354749413543874 0
          <InformationKey name="L2_NORM_RANGE" location="vtkDataArray" length="2">
            <Value index="0">
              0
            </Value>
            <Value index="1">
              0.17355104667
            </Value>
          </InformationKey>
        </DataArray>
        <DataArray type="Float64" Name="Pressure" format="ascii" RangeMin="-0.0484419404456001" RangeMax="0.7866562305458938">
          0.19129450182387794 0.16156572813977835 0.40966160294450005 -0.0484419404456001 0.34472727261277175 0.09297735167234879
          0.30824003648638093 0.4908190857706699 0.5795464088116131 0.7866562305458938
        </DataArray>
        <DataArray type="Float64" Name="Temperature" format="ascii" RangeMin="557.4135927219653" RangeMax="960.0000000010567">
          663.4143308568758 960.0000000010564 960.0000000010567 670.1238639820036 594.3000404091783 589.0897610128068
          598.2123137244284 576.528874263485 596.3408188362089 557.4135927219653
        </DataArray>
        <DataArray type="Float64" Name="Density" format="ascii" RangeMin="0.3654094667694879" RangeMax="0.6293228092736305">
          0.5287692348249471 0.36540946676948804 0.3654094667694879 0.5234749976140458 0.5902626017955036 0.5954832545315082
          0.5864023191282725 0.608457102078768 0.5882426240479162 0.6293228092736305
        </DataArray>
        <DataArray type="Float64" Name="stream" format="ascii" RangeMin="-0.015064892662264592" RangeMax="-0.0009267316051907275">
          -0.010192707061338705 -0.0020454140784931154 -0.004079038864715512 -0.0020604956008238133 -0.014930408164272845 -0.0074469555512078536
          -0.007012383547722528 -0.0009267316051907275 -0.015064892662264592 -0.0038395122848027636
        </DataArray>
      </PointData>
      <CellData>
        <DataArray type="UInt8" Name="vtkGhostType" format="ascii" RangeMin="1" RangeMax="1">
          1 1 1 1 1 1
          1
        </DataArray>
        <DataArray type="Float64" Name="blocks" format="ascii" RangeMin="0" RangeMax="0.3333333333333334">
          0.3333333333333333 0 0.3333333333333334 0 0.3333333333333333 0.3333333333333333
          0.3333333333333333
        </DataArray>
      </CellData>
      <Points>
        <DataArray type="Float32" Name="Points" NumberOfComponents="3" format="ascii" RangeMin="0.4000000059604645" RangeMax="1.1313708667572155">
          0.20000000298023224 0.6000000238418579 0 0 0.6000000238418579 0
          0 0.4000000059604645 0 0.20000000298023224 0.800000011920929 0
          0.4000000059604645 0.6000000238418579 0 0.4000000059604645 0.800000011920929 0
          0.6000000238418579 0.800000011920929 0 0.800000011920929 0.800000011920929 0
          0.6000000238418579 0.6000000238418579 0 0.800000011920929 0.6000000238418579 0
          <InformationKey name="L2_NORM_RANGE" location="vtkDataArray" length="2">
            <Value index="0">
              0.40000000596
            </Value>
            <Value index="1">
              1.1313708668
            </Value>
          </InformationKey>
        </DataArray>
      </Points>
      <Cells>
        <DataArray type="Int64" Name="connectivity" format="ascii" RangeMin="0" RangeMax="9">
          0 1 2 0 3 1
          4 5 0 5 3 0
          6 5 4 7 6 8
          9 7 8
        </DataArray>
        <DataArray type="Int64" Name="offsets" format="ascii" RangeMin="3" RangeMax="21">
          3 6 9 12 15 18
          21
        </DataArray>
        <DataArray type="UInt8" Name="types" format="ascii" RangeMin="5" RangeMax="5">
          5 5 5 5 5 5
          5
        </DataArray>
      </Cells>
    </Piece>
  </UnstructuredGrid>
</VTKFile>
