<?xml version="1.0"?>
<VTKFile type="UnstructuredGrid" version="0.1" byte_order="LittleEndian" header_type="UInt32" compressor="vtkZLibDataCompressor">
  <UnstructuredGrid>
    <Piece NumberOfPoints="8" NumberOfCells="4">
      <PointData>
        <DataArray type="Float64" Name="Velocity" NumberOfComponents="3" format="ascii" RangeMin="0" RangeMax="0.19104965836477072">
          0 0 0 0.001110440600098253 -0.17354749413543874 0
          -0.015402989576386583 -0.1904277287408673 0 0 0 0
          0 0 0 -0.08479861201991556 0.050734297102357856 0
          0 0 0 -0.05678698220234896 -0.15150020008439058 0
          <InformationKey name="L2_NORM_RANGE" location="vtkDataArray" length="2">
            <Value index="0">
              0
            </Value>
            <Value index="1">
              0.19104965836
            </Value>
          </InformationKey>
        </DataArray>
        <DataArray type="Float64" Name="Pressure" format="ascii" RangeMin="0.5203192997684952" RangeMax="1.3887520084174396">
          0.8300003135428073 0.7866562305458938 1.0643486902698849 0.5203192997684952 1.3887520084174396 1.1124601764328435
          1.1520535348908758 1.3341957326512042
        </DataArray>
        <DataArray type="Float64" Name="Temperature" format="ascii" RangeMin="240.00000000026412" RangeMax="613.5027894269472">
          240.00000000026418 557.4135927219653 552.0673213577323 240.00000000026412 613.5027894269472 601.5465338702961
          600.8624265720657 548.6398457006092
        </DataArray>
        <DataArray type="Float64" Name="Density" format="ascii" RangeMin="0.5717872748822524" RangeMax="1.461637867077952">
          1.4616378670779515 0.6293228092736305 0.6354172299790685 1.461637867077952 0.5717872748822524 0.5831520395307134
          0.5838159828038797 0.6393868233378752
        </DataArray>
        <DataArray type="Float64" Name="stream" format="ascii" RangeMin="-0.007760726953576538" RangeMax="0.012329273842830453">
          0.012329273842830453 -0.005044539846303112 -0.0049353028358656795 0.011307366721176552 0.00022321647475281522 -0.007760726953576538
          0.00271422654336893 0.000236756690829577
        </DataArray>
      </PointData>
      <CellData>
        <DataArray type="UInt8" Name="vtkGhostType" format="ascii" RangeMin="0" RangeMax="0">
          0 0 0 0
        </DataArray>
        <DataArray type="Float64" Name="blocks" format="ascii" RangeMin="2.3333333333333335" RangeMax="2.3333333333333335">
          2.3333333333333335 2.3333333333333335 2.3333333333333335 2.3333333333333335
        </DataArray>
      </CellData>
      <Points>
        <DataArray type="Float32" Name="Points" NumberOfComponents="3" format="ascii" RangeMin="0.4000000059604645" RangeMax="1.280624854933515">
          1 0.6000000238418579 0 0.800000011920929 0.6000000238418579 0
          0.800000011920929 0.4000000059604645 0 1 0.800000011920929 0
          0.6000000238418579 0 0 0.6000000238418579 0.20000000298023224 0
          0.4000000059604645 0 0 0.800000011920929 0.20000000298023224 0
          <InformationKey name="L2_NORM_RANGE" location="vtkDataArray" length="2">
            <Value index="0">
              0.40000000596
            </Value>
            <Value index="1">
              1.2806248549
            </Value>
          </InformationKey>
        </DataArray>
      </Points>
      <Cells>
        <DataArray type="Int64" Name="connectivity" format="ascii" RangeMin="0" RangeMax="7">
          0 1 2 0 3 1
          4 5 6 7 2 5
        </DataArray>
        <DataArray type="Int64" Name="offsets" format="ascii" RangeMin="3" RangeMax="12">
          3 6 9 12
        </DataArray>
        <DataArray type="UInt8" Name="types" format="ascii" RangeMin="5" RangeMax="5">
          5 5 5 5
        </DataArray>
      </Cells>
    </Piece>
  </UnstructuredGrid>
</VTKFile>
