<?xml version="1.0"?>
<VTKFile type="UnstructuredGrid" version="0.1" byte_order="LittleEndian" header_type="UInt32" compressor="vtkZLibDataCompressor">
  <UnstructuredGrid>
    <Piece NumberOfPoints="6" NumberOfCells="3">
      <PointData>
        <DataArray type="Float64" Name="Velocity" NumberOfComponents="3" format="ascii" RangeMin="0" RangeMax="0.08212018971350801">
          0 0 0 -0.07029559255285059 -0.0037712826144792877 0
          0 0 0 -0.07848959404076694 -0.024147653838378386 0
          -0.026412544616066153 0.05119285537967369 0 -0.023862269027875527 -0.02995101536023711 0
          <InformationKey name="L2_NORM_RANGE" location="vtkDataArray" length="2">
            <Value index="0">
              0
            </Value>
            <Value index="1">
              0.082120189714
            </Value>
          </InformationKey>
        </DataArray>
        <DataArray type="Float64" Name="Pressure" format="ascii" RangeMin="0.6023591543061504" RangeMax="0.96887191360965">
          0.96887191360965 0.7053777495312843 0.897835128963611 0.8705801421418471 0.8451027646897844 0.6023591543061504
        </DataArray>
        <DataArray type="Float64" Name="Temperature" format="ascii" RangeMin="597.6398460685002" RangeMax="960.0000000010565">
          651.322130097408 647.2121995251412 960.0000000010565 597.8105037889788 600.7300602874896 597.6398460685002
        </DataArray>
        <DataArray type="Float64" Name="Density" format="ascii" RangeMin="0.365409466769488" RangeMax="0.5869640225743705">
          0.5385861648008673 0.5420062977126683 0.365409466769488 0.5867964612126002 0.5839446222005547 0.5869640225743705
        </DataArray>
        <DataArray type="Float64" Name="stream" format="ascii" RangeMin="-0.016595657488264318" RangeMax="0.00007190736978748835">
          0.00007190736978748835 -0.00649899867226499 -0.0017693476227337909 -0.0054624143550568 -0.016595657488264318 -0.013198447743318879
        </DataArray>
      </PointData>
      <CellData>
        <DataArray type="UInt8" Name="vtkGhostType" format="ascii" RangeMin="0" RangeMax="0">
          0 0 0
        </DataArray>
        <DataArray type="Float64" Name="blocks" format="ascii" RangeMin="1.666666666666667" RangeMax="1.666666666666667">
          1.666666666666667 1.666666666666667 1.666666666666667
        </DataArray>
      </CellData>
      <Points>
        <DataArray type="Float32" Name="Points" NumberOfComponents="3" format="ascii" RangeMin="0" RangeMax="0.7211102782366936">
          0.20000000298023224 0 0 0.20000000298023224 0.20000000298023224 0
          0 0 0 0.4000000059604645 0.20000000298023224 0
          0.6000000238418579 0.4000000059604645 0 0.4000000059604645 0.4000000059604645 0
          <InformationKey name="L2_NORM_RANGE" location="vtkDataArray" length="2">
            <Value index="0">
              0
            </Value>
            <Value index="1">
              0.72111027824
            </Value>
          </InformationKey>
        </DataArray>
      </Points>
      <Cells>
        <DataArray type="Int64" Name="connectivity" format="ascii" RangeMin="0" RangeMax="5">
          0 1 2 3 1 0
          4 5 3
        </DataArray>
        <DataArray type="Int64" Name="offsets" format="ascii" RangeMin="3" RangeMax="9">
          3 6 9
        </DataArray>
        <DataArray type="UInt8" Name="types" format="ascii" RangeMin="5" RangeMax="5">
          5 5 5
        </DataArray>
      </Cells>
    </Piece>
  </UnstructuredGrid>
</VTKFile>
