<?xml version="1.0"?>
<VTKFile type="UnstructuredGrid" version="0.1" byte_order="LittleEndian" header_type="UInt32" compressor="vtkZLibDataCompressor">
  <UnstructuredGrid>
    <Piece NumberOfPoints="10" NumberOfCells="8">
      <PointData>
        <DataArray type="Float64" Name="Velocity" NumberOfComponents="3" format="ascii" RangeMin="0" RangeMax="0.09275469865356566">
          0.05911058662514705 0.011298396093386502 0 0.059240394596684474 -0.04298910516802472 0
          0.013690688450274682 -0.037053833424841365 0 0.06413272517664012 -0.06701065350920944 0
          0.00809626818379778 0.02649947780661477 0 0 0 0
          0 0 0 0 0 0
          0 0 0 0 0 0
          <InformationKey name="L2_NORM_RANGE" location="vtkDataArray" length="2">
            <Value index="0">
              0
            </Value>
            <Value index="1">
              0.092754698654
            </Value>
          </InformationKey>
        </DataArray>
        <DataArray type="Float64" Name="Pressure" format="ascii" RangeMin="-0.17601881137400457" RangeMax="0.5795464088116131">
          0.30824003648638093 0.09297735167234879 0.34472727261277175 0.4908190857706699 0.5795464088116131 0.022361331724784887
          -0.17601881137400457 0.17502287851957307 0.5203192997684952 0.13768677636856966
        </DataArray>
        <DataArray type="Float64" Name="Temperature" format="ascii" RangeMin="240.00000000026412" RangeMax="598.2123137244284">
          598.2123137244284 589.0897610128068 594.3000404091783 576.528874263485 596.3408188362089 592.5008262836502
          577.9281037549734 556.9816723366313 240.00000000026412 240.00000000026418
        </DataArray>
        <DataArray type="Float64" Name="Density" format="ascii" RangeMin="0.5864023191282725" RangeMax="1.461637867077952">
          0.5864023191282725 0.5954832545315082 0.5902626017955036 0.608457102078768 0.5882426240479162 0.5920550192298939
          0.6069839584195437 0.6298108277557121 1.461637867077952 1.4616378670779515
        </DataArray>
        <DataArray type="Float64" Name="stream" format="ascii" RangeMin="-0.015295293550318797" RangeMax="0.012984819342951585">
          -0.005575079887192442 -0.008374698740510212 -0.015295293550318797 0.001586918517037174 -0.013385565177519564 0.0006881748784394413
          -0.0019897266844550697 0.004965400174157339 0.011658332060532552 0.012984819342951585
        </DataArray>
      </PointData>
      <CellData>
        <DataArray type="UInt8" Name="vtkGhostType" format="ascii" RangeMin="0" RangeMax="0">
          0 0 0 0 0 0
          0 0
        </DataArray>
        <DataArray type="Float64" Name="blocks" format="ascii" RangeMin="0.6666666666666667" RangeMax="1.3333333333333335">
          0.6666666666666667 0.6666666666666667 1 0.6666666666666667 1 1
          1 1.3333333333333335
        </DataArray>
      </CellData>
      <Points>
        <DataArray type="Float32" Name="Points" NumberOfComponents="3" format="ascii" RangeMin="0.7211102782366936" RangeMax="1.4142135623730951">
          0.6000000238418579 0.800000011920929 0 0.4000000059604645 0.800000011920929 0
          0.4000000059604645 0.6000000238418579 0 0.800000011920929 0.800000011920929 0
          0.6000000238418579 0.6000000238418579 0 0.6000000238418579 1 0
          0.4000000059604645 1 0 0.800000011920929 1 0
          1 0.800000011920929 0 1 1 0
          <InformationKey name="L2_NORM_RANGE" location="vtkDataArray" length="2">
            <Value index="0">
              0.72111027824
            </Value>
            <Value index="1">
              1.4142135624
            </Value>
          </InformationKey>
        </DataArray>
      </Points>
      <Cells>
        <DataArray type="Int64" Name="connectivity" format="ascii" RangeMin="0" RangeMax="9">
          0 1 2 3 0 4
          0 5 1 5 6 1
          3 7 0 7 5 0
          8 9 3 9 7 3
        </DataArray>
        <DataArray type="Int64" Name="offsets" format="ascii" RangeMin="3" RangeMax="24">
          3 6 9 12 15 18
          21 24
        </DataArray>
        <DataArray type="UInt8" Name="types" format="ascii" RangeMin="5" RangeMax="5">
          5 5 5 5 5 5
          5 5
        </DataArray>
      </Cells>
    </Piece>
  </UnstructuredGrid>
</VTKFile>
