<?xml version="1.0"?>
<VTKFile type="UnstructuredGrid" version="0.1" byte_order="LittleEndian" header_type="UInt32" compressor="vtkZLibDataCompressor">
  <UnstructuredGrid>
    <Piece NumberOfPoints="32" NumberOfCells="40">
      <PointData>
        <DataArray type="Float64" Name="nsi_BC" NumberOfComponents="3" format="ascii" RangeMin="0" RangeMax="0">
          0 0 0 0 0 0
          0 0 0 0 0 0
          0 0 0 0 0 0
          0 0 0 0 0 0
          0 0 0 0 0 0
          0 0 0 0 0 0
          0 0 0 0 0 0
          0 0 0 0 0 0
          0 0 0 0 0 0
          0 0 0 0 0 0
          0 0 0 0 0 0
          0 0 0 0 0 0
          0 0 0 0 0 0
          0 0 0 0 0 0
          0 0 0 0 0 0
          0 0 0 0 0 0
          <InformationKey name="L2_NORM_RANGE" location="vtkDataArray" length="2">
            <Value index="0">
              0
            </Value>
            <Value index="1">
              0
            </Value>
          </InformationKey>
        </DataArray>
        <DataArray type="Float64" Name="nsi_FIXNO" NumberOfComponents="3" format="ascii" RangeMin="1.4142135623730951" RangeMax="1.4142135623730951">
          -1 -1 0 -1 -1 0
          -1 -1 0 -1 -1 0
          -1 -1 0 -1 -1 0
          -1 -1 0 -1 -1 0
          -1 -1 0 -1 -1 0
          1 1 0 -1 -1 0
          -1 -1 0 -1 -1 0
          1 1 0 -1 -1 0
          -1 -1 0 -1 -1 0
          -1 -1 0 -1 -1 0
          -1 -1 0 -1 -1 0
          -1 -1 0 1 1 0
          -1 -1 0 -1 -1 0
          -1 -1 0 -1 -1 0
          -1 -1 0 -1 -1 0
          -1 -1 0 -1 -1 0
          <InformationKey name="L2_NORM_RANGE" location="vtkDataArray" length="2">
            <Value index="0">
              1.4142135624
            </Value>
            <Value index="1">
              1.4142135624
            </Value>
          </InformationKey>
        </DataArray>
        <DataArray type="Float64" Name="Velocity" NumberOfComponents="3" format="ascii" RangeMin="0" RangeMax="0.251295095394029">
          -0.1524873325691971 -0.0008144536046589494 0 -0.204838240350039 0.00133353470909027 0
          -0.24699508852856358 -0.000888151281235877 0 -0.24150586800570947 -0.0004512594010399172 0
          -0.2478440461011542 0.006209632673531232 0 -0.218051909346295 -0.002184960614007838 0
          -0.2293979736059631 -0.00016235055305160962 0 -0.23520802119369255 -0.000873399429146425 0
          -0.25123073105454663 -0.005687243874864053 0 -0.24699508852856358 -0.000888151281235877 0
          0 0 0 -0.20156545925511798 -0.010911970360504892 0
          -0.23177797333858097 0.003491050861295557 0 -0.18393285413327928 0.011641408134179802 0
          0 0 0 0.0014355406326632628 0.0071038978210230756 0
          -0.07840271099207478 0.020766394305529325 0 -0.23177797333858097 0.003491050861295557 0
          -0.1524873325691971 -0.0008144536046589494 0 -0.06511307645283529 0.0023395760197753054 0
          -0.1449957767246977 0.001912148520258239 0 -0.049080685206003415 -0.0025288414049438254 0
          0.03213761008091876 -0.0073892967663569805 0 0 0 0
          0.0509239459545111 0.007680943772485508 0 -0.17095988939632067 -0.0068051789076626805 0
          -0.0534904557505521 -0.011214426182026956 0 0.10570260578863466 0.010673514466956757 0
          0.06503052312052092 -0.0020367887857135406 0 0.03213761008091876 -0.0073892967663569805 0
          -0.07840271099207478 0.020766394305529325 0 0.06503052312052092 -0.0020367887857135406 0
          <InformationKey name="L2_NORM_RANGE" location="vtkDataArray" length="2">
            <Value index="0">
              0
            </Value>
            <Value index="1">
              0.25129509539
            </Value>
          </InformationKey>
        </DataArray>
        <DataArray type="Float64" Name="Pressure" format="ascii" RangeMin="-0.5552190487489611" RangeMax="0.36791294400930996">
          0 0.0032186044696355665 0.022769733049734286 0.007973864346837514 -0.0033826308549285145 0.04367219584837084
          0.015793970930927298 -0.011707607850094032 0.013317111517589172 0.022769733049734286 -0.03100326810373813 -0.03448248115558955
          0.017483275498916095 0.03914192565710364 -0.0780537718288607 0.07654468782943533 0.3070864050026686 0.017483275498916095
          0 -0.09640254860045405 0.021094071633203038 -0.13219182625874565 -0.35413238641132 -0.04038114324459726
          -0.12259201922596649 0.018495220862793288 0.36791294400930996 -0.5552190487489611 0.15405572841810722 -0.35413238641132
          0.3070864050026686 0.15405572841810722
        </DataArray>
      </PointData>
      <CellData>
        <DataArray type="UInt8" Name="vtkGhostType" format="ascii" RangeMin="0" RangeMax="1">
          0 0 1 1 1 1
          1 0 0 1 1 0
          0 0 0 0 0 0
          0 0 0 0 0 0
          0 0 0 1 0 0
          0 0 0 0 0 0
          0 0 1 1
        </DataArray>
      </CellData>
      <Points>
        <DataArray type="Float32" Name="Points" NumberOfComponents="3" format="ascii" RangeMin="2" RangeMax="14.422205101855956">
          10 8 0 9.0526123046875 5.597301006317139 0
          8 8 0 8 3.464102029800415 0
          7.214476108551025 5.006220817565918 0 8.865592002868652 1.8541419506072998 0
          5.868243217468262 6.172163009643555 0 5.61288595199585 4.4169921875 0
          6.193554878234863 2.464600086212158 0 8 0 0
          4.5 4 0 4.723260879516602 3.0721371173858643 0
          6 0 0 4.8942999839782715 1.5862879753112793 0
          3.75 3.5669870376586914 0 3.5546820163726807 2.3947041034698486 0
          4 0 0 6 8 0
          10 0 0 11 1.7320510149002075 0
          10 3.464102029800415 0 11.101200103759766 5.649384021759033 0
          12 8 0 3.75 4.433012962341309 0
          2.864197015762329 3.831125020980835 0 4.574699878692627 4.995409965515137 0
          3.80739688873291 6.614357948303223 0 1.6611889600753784 2.800034999847412 0
          2 0 0 12 0 0
          4 8 0 2 8 0
          <InformationKey name="L2_NORM_RANGE" location="vtkDataArray" length="2">
            <Value index="0">
              2
            </Value>
            <Value index="1">
              14.422205102
            </Value>
          </InformationKey>
        </DataArray>
      </Points>
      <Cells>
        <DataArray type="Int64" Name="connectivity" format="ascii" RangeMin="0" RangeMax="31">
          6 4 2 2 17 6
          5 18 19 20 21 1
          1 21 0 20 1 3
          19 20 5 3 1 4
          4 1 2 5 20 3
          22 0 21 0 2 1
          10 14 11 14 23 24
          23 10 25 11 14 15
          25 10 7 10 11 7
          11 15 13 25 7 6
          6 7 4 11 13 8
          25 6 26 8 13 12
          26 6 17 4 7 3
          11 8 7 9 18 5
          9 5 8 3 7 8
          5 3 8 12 9 8
          14 24 15 13 15 16
          24 27 15 13 16 12
          28 16 15 15 27 28
          30 26 17 30 31 26
        </DataArray>
        <DataArray type="Int64" Name="offsets" format="ascii" RangeMin="3" RangeMax="120">
          3 6 9 12 15 18
          21 24 27 30 33 36
          39 42 45 48 51 54
          57 60 63 66 69 72
          75 78 81 84 87 90
          93 96 99 102 105 108
          111 114 117 120
        </DataArray>
        <DataArray type="UInt8" Name="types" format="ascii" RangeMin="5" RangeMax="5">
          5 5 5 5 5 5
          5 5 5 5 5 5
          5 5 5 5 5 5
          5 5 5 5 5 5
          5 5 5 5 5 5
          5 5 5 5 5 5
          5 5 5 5
        </DataArray>
      </Cells>
    </Piece>
  </UnstructuredGrid>
</VTKFile>
