<?xml version="1.0"?>
<VTKFile type="UnstructuredGrid" version="0.1" byte_order="LittleEndian" header_type="UInt32" compressor="vtkZLibDataCompressor">
  <UnstructuredGrid>
    <Piece NumberOfPoints="27" NumberOfCells="28">
      <PointData>
        <DataArray type="Float64" Name="nsi_BC" NumberOfComponents="3" format="ascii" RangeMin="0" RangeMax="0">
          0 0 0 0 0 0
          0 0 0 0 0 0
          0 0 0 0 0 0
          0 0 0 0 0 0
          0 0 0 0 0 0
          0 0 0 0 0 0
          0 0 0 0 0 0
          0 0 0 0 0 0
          0 0 0 0 0 0
          0 0 0 0 0 0
          0 0 0 0 0 0
          0 0 0 0 0 0
          0 0 0 0 0 0
          0 0 0
          <InformationKey name="L2_NORM_RANGE" location="vtkDataArray" length="2">
            <Value index="0">
              0
            </Value>
            <Value index="1">
              0
            </Value>
          </InformationKey>
        </DataArray>
        <DataArray type="Float64" Name="nsi_FIXNO" NumberOfComponents="3" format="ascii" RangeMin="1.4142135623730951" RangeMax="1.4142135623730951">
          -1 -1 0 -1 -1 0
          -1 -1 0 -1 -1 0
          -1 -1 0 -1 -1 0
          -1 -1 0 -1 -1 0
          -1 -1 0 -1 -1 0
          -1 -1 0 -1 -1 0
          -1 -1 0 -1 -1 0
          -1 -1 0 -1 -1 0
          -1 -1 0 -1 -1 0
          -1 -1 0 -1 -1 0
          -1 -1 0 -1 -1 0
          -1 -1 0 -1 -1 0
          -1 -1 0 -1 -1 0
          -1 -1 0
          <InformationKey name="L2_NORM_RANGE" location="vtkDataArray" length="2">
            <Value index="0">
              1.4142135624
            </Value>
            <Value index="1">
              1.4142135624
            </Value>
          </InformationKey>
        </DataArray>
        <DataArray type="Float64" Name="Velocity" NumberOfComponents="3" format="ascii" RangeMin="0.03297616849202564" RangeMax="0.4936443065989502">
          0.4936210344459727 -0.004793306796579467 0 0.4774923088881108 0.004065867057358761 0
          0.2440261963315538 0.01171688602414161 0 0.19223257429665153 -0.005366651000480123 0
          0.48661507858160896 -0.004301982053423845 0 0.03213761008091876 -0.0073892967663569805 0
          0.2405522366378281 -0.025369051993261754 0 -0.049080685206003415 -0.0025288414049438254 0
          0.4378917324025363 0.0035332544357298294 0 0.03545495428284242 0.006759991414597311 0
          0.18040839297285774 0.015121473669749596 0 -0.1449957767246977 0.001912148520258239 0
          0.4936210344459727 -0.004793306796579467 0 -0.06511307645283529 0.0023395760197753054 0
          0.2440261963315538 0.01171688602414161 0 0.03213761008091876 -0.0073892967663569805 0
          -0.1524873325691971 -0.0008144536046589494 0 -0.218051909346295 -0.002184960614007838 0
          -0.204838240350039 0.00133353470909027 0 -0.1524873325691971 -0.0008144536046589494 0
          -0.24150586800570947 -0.0004512594010399172 0 -0.24699508852856358 -0.000888151281235877 0
          0.4936210344459727 -0.004793306796579467 0 0.4774923088881108 0.004065867057358761 0
          0.48661507858160896 -0.004301982053423845 0 0.4378917324025363 0.0035332544357298294 0
          -0.24699508852856358 -0.000888151281235877 0
          <InformationKey name="L2_NORM_RANGE" location="vtkDataArray" length="2">
            <Value index="0">
              0.032976168492
            </Value>
            <Value index="1">
              0.4936443066
            </Value>
          </InformationKey>
        </DataArray>
        <DataArray type="Float64" Name="Pressure" format="ascii" RangeMin="-1.4126689272668274" RangeMax="0.04367219584837084">
          -1.0542578685046435 -1.2972331342283991 -0.8459593657937328 -0.7287659768940609 -1.4126689272668274 -0.35413238641132
          -0.8387265642790402 -0.13219182625874565 -1.2749157849587487 -0.3051758422676971 -0.6172154506230216 0.021094071633203038
          -1.0542578685046435 -0.09640254860045405 -0.8459593657937328 -0.35413238641132 0 0.04367219584837084
          0.0032186044696355665 0 0.007973864346837514 0.022769733049734286 -1.0542578685046435 -1.2972331342283991
          -1.4126689272668274 -1.2749157849587487 0.022769733049734286
        </DataArray>
      </PointData>
      <CellData>
        <DataArray type="UInt8" Name="vtkGhostType" format="ascii" RangeMin="0" RangeMax="1">
          0 0 0 0 0 0
          0 0 0 0 0 0
          0 0 0 0 0 0
          0 0 0 0 0 0
          0 0 0 1
        </DataArray>
      </CellData>
      <Points>
        <DataArray type="Float32" Name="Points" NumberOfComponents="3" format="ascii" RangeMin="0" RangeMax="17.88854381999832">
          16 8 0 16 6 0
          14 8 0 13.571430206298828 5.4463372230529785 0
          16 4 0 12 8 0
          14 3.464102029800415 0 11.101200103759766 5.649384021759033 0
          16 2 0 12 3.464102029800415 0
          13.166669845581055 1.776708960533142 0 10 3.464102029800415 0
          16 0 0 11 1.7320510149002075 0
          14 0 0 12 0 0
          10 0 0 8.865592002868652 1.8541419506072998 0
          9.0526123046875 5.597301006317139 0 10 8 0
          8 3.464102029800415 0 8 0 0
          0 0 0 0 6 0
          0 4 0 0 2 0
          8 8 0
          <InformationKey name="L2_NORM_RANGE" location="vtkDataArray" length="2">
            <Value index="0">
              0
            </Value>
            <Value index="1">
              17.88854382
            </Value>
          </InformationKey>
        </DataArray>
      </Points>
      <Cells>
        <DataArray type="Int64" Name="connectivity" format="ascii" RangeMin="0" RangeMax="26">
          12 8 14 17 16 13
          13 16 15 13 15 10
          10 15 14 13 10 9
          10 14 8 9 10 6
          6 10 8 9 6 3
          3 4 1 9 3 7
          7 3 5 9 7 11
          11 7 18 9 11 13
          18 7 19 11 18 20
          13 11 17 17 11 20
          0 2 1 4 3 6
          5 19 7 8 4 6
          2 5 3 1 2 3
          21 16 17 19 26 18
        </DataArray>
        <DataArray type="Int64" Name="offsets" format="ascii" RangeMin="3" RangeMax="84">
          3 6 9 12 15 18
          21 24 27 30 33 36
          39 42 45 48 51 54
          57 60 63 66 69 72
          75 78 81 84
        </DataArray>
        <DataArray type="UInt8" Name="types" format="ascii" RangeMin="5" RangeMax="5">
          5 5 5 5 5 5
          5 5 5 5 5 5
          5 5 5 5 5 5
          5 5 5 5 5 5
          5 5 5 5
        </DataArray>
      </Cells>
    </Piece>
  </UnstructuredGrid>
</VTKFile>
