<?xml version="1.0"?>
<VTKFile type="UnstructuredGrid" version="0.1" byte_order="LittleEndian" header_type="UInt32" compressor="vtkZLibDataCompressor">
  <UnstructuredGrid>
    <Piece NumberOfPoints="30" NumberOfCells="48">
      <PointData>
        <DataArray type="Float64" Name="Density" format="ascii" RangeMin="1.0000000003352902" RangeMax="2.7889058615246918">
          2.0877453161407047 1.7000000005699931 2.495928147563989 2.0984899122061407 1.7000000005699927 1.700000000569993
          2.283464766443263 1.7000000005699933 2.7889058615246918 1.9220574221759739 1.7000000005699931 2.404079685467492
          2.0718895341752503 1.7000000005699933 1.7000000005699933 1.7000000005699927 2.3594155264439083 1.700000000569993
          1.3183097413751719 1.529502436404007 1.7000000005699931 1.7000000005699925 1.601515250709933 1.7000000005699931
          1.0000000003352902 1.0000000003352902 1.0000000003352902 1.700000000569993 1.0000000003352902 1.0000000003352902
        </DataArray>
        <DataArray type="Float64" Name="Momentum" NumberOfComponents="3" format="ascii" RangeMin="2.6677841338407733" RangeMax="6.60815682095361">
          5.352531319345407 0 0.7887538055954861 4.452810001492982 -0.8607100002885879 0
          6.000760567999689 0 0.36459169718637346 5.4467807173815705 0 0.6736441519443664
          4.452810001492982 -0.8607100002885876 0 4.452810001492984 -0.8607100002885875 0
          5.680031912656177 0 0.18543735509640855 4.452810001492985 -0.8607100002885875 0
          6.597274546615231 0 0.3790845906898963 5.137235478888452 0 0.3583834006571896
          4.452810001492982 -0.8607100002885875 0 5.915350056676442 0 0.3108813519068466
          5.2273923091736165 0 0.024529689065760276 4.452810001492982 -0.8607100002885875 0
          4.4528100014930745 -0.8607100002885876 0 4.452810001492982 -0.8607100002885876 0
          5.63228022464084 0 0.28795239526239913 4.45281000149298 -0.8607100002885874 0
          3.9099908959940115 0 0.10223120786055617 4.284371669069834 0 0.035245067287438474
          4.452810001492984 -0.8607100002885875 0 4.452810001492982 -0.8607100002885876 0
          4.383835209635649 0 0.07204527479749995 4.452810001492982 -0.8607100002885876 0
          2.9000000009723412 0 0 2.6193000008782255 -0.5063000001697574 0
          2.9000000009723417 0 0 4.452810001492982 -0.8607100002885875 0
          2.9000000009723426 0 0 2.619300000878225 -0.5063000001697574 0
          <InformationKey name="L2_NORM_RANGE" location="vtkDataArray" length="2">
            <Value index="0">
              2.6677841338
            </Value>
            <Value index="1">
              6.608156821
            </Value>
          </InformationKey>
        </DataArray>
        <DataArray type="Float64" Name="Energy" format="ascii" RangeMin="5.7943880919428" RangeMax="17.283814768355235">
          12.502215028436941 9.85045975630276 14.999978791917632 12.510658890509674 9.85045975630276 9.85045975630276
          13.90712045292434 9.850459756302762 17.283814768355235 10.982883715205045 9.85045975630276 14.689390640275668
          12.128252614226312 9.85045975630276 9.85045975630276 9.850459756302763 13.757356413086603 9.85045975630276
          7.758541422306226 8.758954764230637 9.85045975630276 9.850459756302758 9.171777645145534 9.85045975630276
          5.978460002004518 5.794388091942801 5.9784600020045175 9.850459756302762 5.9784600020045175 5.7943880919428
        </DataArray>
      </PointData>
      <CellData>
        <DataArray type="UInt8" Name="vtkGhostType" format="ascii" RangeMin="0" RangeMax="0">
          0 0 0 0 0 0
          0 0 0 0 0 0
          0 0 0 0 0 0
          0 0 0 0 0 0
          0 0 0 0 0 0
          0 0 0 0 0 0
          0 0 0 0 0 0
          0 0 0 0 0 0
        </DataArray>
      </CellData>
      <Points>
        <DataArray type="Float32" Name="Points" NumberOfComponents="3" format="ascii" RangeMin="0" RangeMax="4.670117687809063">
          4.099999904632568 0 2 4.099999904632568 1 2
          4.099999904632568 0 1 3.075000047683716 0 2
          4.099999904632568 1 1 3.075000047683716 1 2
          3.075000047683716 0 1 3.075000047683716 1 1
          4.099999904632568 0 0 2.049999952316284 0 2
          4.099999904632568 1 0 3.075000047683716 0 0
          2.049999952316284 0 1 2.049999952316284 1 2
          3.075000047683716 1 0 2.049999952316284 1 1
          2.049999952316284 0 0 2.049999952316284 1 0
          1.024999976158142 0 2 1.024999976158142 0 1
          1.024999976158142 1 2 1.024999976158142 1 1
          1.024999976158142 0 0 1.024999976158142 1 0
          0 0 2 0 1 2
          0 0 1 0 1 1
          0 0 0 0 1 0
          <InformationKey name="L2_NORM_RANGE" location="vtkDataArray" length="2">
            <Value index="0">
              0
            </Value>
            <Value index="1">
              4.6701176878
            </Value>
          </InformationKey>
        </DataArray>
      </Points>
      <Cells>
        <DataArray type="Int64" Name="connectivity" format="ascii" RangeMin="0" RangeMax="29">
          22 19 21 28 28 22
          23 21 26 27 21 28
          28 29 27 21 28 26
          19 21 29 23 21 28
          22 23 21 17 17 15
          21 22 19 21 15 22
          22 19 12 15 22 16
          17 15 16 12 15 22
          16 17 15 14 14 7
          15 16 12 15 7 16
          16 12 6 7 16 11
          14 7 11 6 7 16
          8 2 4 6 6 7
          4 8 10 4 7 8
          8 10 14 7 8 11
          6 7 11 14 7 8
          24 18 19 20 20 21
          19 24 26 19 21 24
          24 26 27 21 24 25
          20 21 25 27 21 24
          20 18 19 9 20 21
          15 19 19 12 15 20
          9 12 19 20 20 13
          9 12 13 15 12 20
          13 9 12 3 13 15
          7 12 12 6 7 13
          3 6 12 13 13 5
          3 6 5 7 6 13
          2 0 1 6 6 2
          4 1 3 5 1 6
          6 7 5 1 6 3
          0 1 7 4 1 6
        </DataArray>
        <DataArray type="Int64" Name="offsets" format="ascii" RangeMin="4" RangeMax="192">
          4 8 12 16 20 24
          28 32 36 40 44 48
          52 56 60 64 68 72
          76 80 84 88 92 96
          100 104 108 112 116 120
          124 128 132 136 140 144
          148 152 156 160 164 168
          172 176 180 184 188 192
        </DataArray>
        <DataArray type="UInt8" Name="types" format="ascii" RangeMin="10" RangeMax="10">
          10 10 10 10 10 10
          10 10 10 10 10 10
          10 10 10 10 10 10
          10 10 10 10 10 10
          10 10 10 10 10 10
          10 10 10 10 10 10
          10 10 10 10 10 10
          10 10 10 10 10 10
        </DataArray>
      </Cells>
    </Piece>
  </UnstructuredGrid>
</VTKFile>
