<?xml version="1.0"?>
<VTKFile type="UnstructuredGrid" version="0.1" byte_order="LittleEndian" header_type="UInt32" compressor="vtkZLibDataCompressor">
  <UnstructuredGrid>
    <Piece NumberOfPoints="30" NumberOfCells="48">
      <PointData>
        <DataArray type="Float64" Name="Density" format="ascii" RangeMin="1.0000000000083062" RangeMax="3.332377372450418">
          2.2807991136252572 1.7000000000141202 2.8828658457945204 2.225929068300128 1.7000000000141202 1.7000000000141204
          2.4773153969223562 1.7000000000141204 3.332377372450418 1.9742075387612417 1.7000000000141204 2.6570045144558256
          2.204514415496879 1.7000000000141202 1.7000000000141207 1.70000000001412 2.6549589859502256 1.7000000000141202
          1.2922582809440577 1.519011147195958 1.7000000000141204 1.7000000000141204 1.538785021518333 1.7000000000141202
          1.0000000000083062 1.0000000000083062 1.0000000000083062 1.7000000000141204 1.0000000000083062 1.0000000000083062
        </DataArray>
        <DataArray type="Float64" Name="Momentum" NumberOfComponents="3" format="ascii" RangeMin="2.6677841329684524" RangeMax="7.1288661548407095">
          5.506759719951045 0 1.2565419772780473 4.452810000036986 -0.8607100000071493 0
          6.301390701599468 0 0.7098107500525898 5.640449434558258 0 0.9993360013454262
          4.452810000036986 -0.8607100000071493 0 4.452810000036986 -0.8607100000071493 0
          5.8680749178379 0 0.3646513004006696 4.4528100000369895 -0.860710000007149 0
          7.098922319801181 0 0.6527132226805098 5.285341845352367 0 0.47242819222393906
          4.452810000036988 -0.8607100000071493 0 6.2387991808330865 0 0.43958260303604196
          5.3977151183651015 0 0.043168331981105854 4.452810000036986 -0.860710000007149 0
          4.452810000037 -0.8607100000071493 0 4.452810000036986 -0.8607100000071495 0
          5.983115868308547 0 0.3997519276265275 4.452810000036987 -0.8607100000071493 0
          3.8889180675927357 0 0.11788257254949985 4.302412992211171 0 0.030877033957905455
          4.452810000036985 -0.8607100000071493 0 4.452810000036986 -0.8607100000071494 0
          4.370685756914216 0 0.033873371635037335 4.452810000036986 -0.8607100000071493 0
          2.9000000000240886 0 0 2.6193000000217572 -0.5063000000042054 0
          2.900000000024089 0 0 4.452810000036986 -0.8607100000071493 0
          2.9000000000240873 0 0 2.6193000000217572 -0.5063000000042054 0
          <InformationKey name="L2_NORM_RANGE" location="vtkDataArray" length="2">
            <Value index="0">
              2.667784133
            </Value>
            <Value index="1">
              7.1288661548
            </Value>
          </InformationKey>
        </DataArray>
        <DataArray type="Float64" Name="Energy" format="ascii" RangeMin="5.7943880900481295" RangeMax="20.04118089983841">
          13.389425456149006 9.850459753081822 16.714602166938953 13.18741880689916 9.850459753081822 9.850459753081822
          14.872791116898977 9.850459753081825 20.04118089983841 11.261208938187982 9.850459753081823 16.085132128572386
          12.745841396330732 9.850459753081822 9.850459753081823 9.850459753081818 15.20726795749922 9.850459753081822
          7.645252367246343 8.788268226750137 9.850459753081823 9.850459753081822 8.952633422000398 9.850459753081822
          5.97846000004966 5.794388090048131 5.978460000049659 9.850459753081823 5.978460000049659 5.7943880900481295
        </DataArray>
      </PointData>
      <CellData>
        <DataArray type="UInt8" Name="vtkGhostType" format="ascii" RangeMin="0" RangeMax="0">
          0 0 0 0 0 0
          0 0 0 0 0 0
          0 0 0 0 0 0
          0 0 0 0 0 0
          0 0 0 0 0 0
          0 0 0 0 0 0
          0 0 0 0 0 0
          0 0 0 0 0 0
        </DataArray>
      </CellData>
      <Points>
        <DataArray type="Float32" Name="Points" NumberOfComponents="3" format="ascii" RangeMin="0" RangeMax="4.670117687809063">
          4.099999904632568 0 2 4.099999904632568 1 2
          4.099999904632568 0 1 3.075000047683716 0 2
          4.099999904632568 1 1 3.075000047683716 1 2
          3.075000047683716 0 1 3.075000047683716 1 1
          4.099999904632568 0 0 2.049999952316284 0 2
          4.099999904632568 1 0 3.075000047683716 0 0
          2.049999952316284 0 1 2.049999952316284 1 2
          3.075000047683716 1 0 2.049999952316284 1 1
          2.049999952316284 0 0 2.049999952316284 1 0
          1.024999976158142 0 2 1.024999976158142 0 1
          1.024999976158142 1 2 1.024999976158142 1 1
          1.024999976158142 0 0 1.024999976158142 1 0
          0 0 2 0 1 2
          0 0 1 0 1 1
          0 0 0 0 1 0
          <InformationKey name="L2_NORM_RANGE" location="vtkDataArray" length="2">
            <Value index="0">
              0
            </Value>
            <Value index="1">
              4.6701176878
            </Value>
          </InformationKey>
        </DataArray>
      </Points>
      <Cells>
        <DataArray type="Int64" Name="connectivity" format="ascii" RangeMin="0" RangeMax="29">
          22 19 21 28 28 22
          23 21 26 27 21 28
          28 29 27 21 28 26
          19 21 29 23 21 28
          22 23 21 17 17 15
          21 22 19 21 15 22
          22 19 12 15 22 16
          17 15 16 12 15 22
          16 17 15 14 14 7
          15 16 12 15 7 16
          16 12 6 7 16 11
          14 7 11 6 7 16
          8 2 4 6 6 7
          4 8 10 4 7 8
          8 10 14 7 8 11
          6 7 11 14 7 8
          24 18 19 20 20 21
          19 24 26 19 21 24
          24 26 27 21 24 25
          20 21 25 27 21 24
          20 18 19 9 20 21
          15 19 19 12 15 20
          9 12 19 20 20 13
          9 12 13 15 12 20
          13 9 12 3 13 15
          7 12 12 6 7 13
          3 6 12 13 13 5
          3 6 5 7 6 13
          2 0 1 6 6 2
          4 1 3 5 1 6
          6 7 5 1 6 3
          0 1 7 4 1 6
        </DataArray>
        <DataArray type="Int64" Name="offsets" format="ascii" RangeMin="4" RangeMax="192">
          4 8 12 16 20 24
          28 32 36 40 44 48
          52 56 60 64 68 72
          76 80 84 88 92 96
          100 104 108 112 116 120
          124 128 132 136 140 144
          148 152 156 160 164 168
          172 176 180 184 188 192
        </DataArray>
        <DataArray type="UInt8" Name="types" format="ascii" RangeMin="10" RangeMax="10">
          10 10 10 10 10 10
          10 10 10 10 10 10
          10 10 10 10 10 10
          10 10 10 10 10 10
          10 10 10 10 10 10
          10 10 10 10 10 10
          10 10 10 10 10 10
          10 10 10 10 10 10
        </DataArray>
      </Cells>
    </Piece>
  </UnstructuredGrid>
</VTKFile>
