<?xml version="1.0"?>
<VTKFile type="UnstructuredGrid" version="0.1" byte_order="LittleEndian" header_type="UInt32" compressor="vtkZLibDataCompressor">
  <UnstructuredGrid>
    <Piece NumberOfPoints="30" NumberOfCells="48">
      <PointData>
        <DataArray type="Float64" Name="Density" format="ascii" RangeMin="1.0000000000078362" RangeMax="3.1364720530239083">
          2.2218228915546376 1.700000000013322 2.735054185402429 2.1922212519832676 1.7000000000133213 1.7000000000133213
          2.4298447201728464 1.7000000000133217 3.1364720530239083 1.9744508542649564 1.7000000000133215 2.599519870471244
          2.1757284232031653 1.700000000013321 1.7000000000133213 1.7000000000133215 2.557177126664922 1.7000000000133213
          1.305798680685609 1.532713937798525 1.7000000000133213 1.7000000000133213 1.5839209452701861 1.700000000013321
          1.0000000000078362 1.0000000000078362 1.0000000000078362 1.7000000000133213 1.0000000000078362 1.0000000000078362
        </DataArray>
        <DataArray type="Float64" Name="Momentum" NumberOfComponents="3" format="ascii" RangeMin="2.667784132967197" RangeMax="7.001715737784169">
          5.476753219366802 0 1.0804408777362227 4.452810000034892 -0.8607100000067446 0
          6.23358816446752 0 0.5600753939479491 5.606245094482531 0 0.8847826737466578
          4.452810000034892 -0.8607100000067448 0 4.4528100000348925 -0.8607100000067445 0
          5.835241447827692 0 0.2952267436381234 4.452810000034887 -0.8607100000067448 0
          6.980617612618629 0 0.543139962747259 5.251642203826777 0 0.43203252353309457
          4.4528100000348925 -0.8607100000067447 0 6.1714527528494685 0 0.3996237095691993
          5.360853731777246 0 0.037223201967700494 4.4528100000348925 -0.8607100000067444 0
          4.452810000035001 -0.8607100000067444 0 4.452810000034892 -0.8607100000067447 0
          5.879110410668635 0 0.36315176736622157 4.452810000034893 -0.8607100000067445 0
          3.905748923927227 0 0.11239607649384376 4.310275626534409 0 0.03632624950587647
          4.45281000003489 -0.8607100000067447 0 4.452810000034892 -0.8607100000067448 0
          4.402219433816193 0 0.0627720364511183 4.452810000034891 -0.8607100000067446 0
          2.9000000000227244 0 0 2.619300000020525 -0.5063000000039674 0
          2.900000000022724 0 0 4.452810000034892 -0.8607100000067447 0
          2.900000000022724 0 0 2.6193000000205253 -0.5063000000039672 0
          <InformationKey name="L2_NORM_RANGE" location="vtkDataArray" length="2">
            <Value index="0">
              2.667784133
            </Value>
            <Value index="1">
              7.0017157378
            </Value>
          </InformationKey>
        </DataArray>
        <DataArray type="Float64" Name="Energy" format="ascii" RangeMin="5.794388090045406" RangeMax="19.129335977265274">
          13.14168734700845 9.850459753077187 16.147348324491354 13.051427656010144 9.850459753077189 9.850459753077189
          14.653221246814873 9.850459753077189 19.129335977265274 11.269235380658982 9.850459753077187 15.758346826383569
          12.62656592229805 9.850459753077187 9.850459753077187 9.850459753077189 14.762087524265338 9.850459753077189
          7.704619585884457 8.815295475337377 9.850459753077189 9.850459753077187 9.147163835297476 9.850459753077189
          5.978460000046848 5.794388090045407 5.97846000004685 9.850459753077189 5.978460000046848 5.794388090045406
        </DataArray>
      </PointData>
      <CellData>
        <DataArray type="UInt8" Name="vtkGhostType" format="ascii" RangeMin="0" RangeMax="0">
          0 0 0 0 0 0
          0 0 0 0 0 0
          0 0 0 0 0 0
          0 0 0 0 0 0
          0 0 0 0 0 0
          0 0 0 0 0 0
          0 0 0 0 0 0
          0 0 0 0 0 0
        </DataArray>
      </CellData>
      <Points>
        <DataArray type="Float32" Name="Points" NumberOfComponents="3" format="ascii" RangeMin="0" RangeMax="4.670117687809063">
          4.099999904632568 0 2 4.099999904632568 1 2
          4.099999904632568 0 1 3.075000047683716 0 2
          4.099999904632568 1 1 3.075000047683716 1 2
          3.075000047683716 0 1 3.075000047683716 1 1
          4.099999904632568 0 0 2.049999952316284 0 2
          4.099999904632568 1 0 3.075000047683716 0 0
          2.049999952316284 0 1 2.049999952316284 1 2
          3.075000047683716 1 0 2.049999952316284 1 1
          2.049999952316284 0 0 2.049999952316284 1 0
          1.024999976158142 0 2 1.024999976158142 0 1
          1.024999976158142 1 2 1.024999976158142 1 1
          1.024999976158142 0 0 1.024999976158142 1 0
          0 0 2 0 1 2
          0 0 1 0 1 1
          0 0 0 0 1 0
          <InformationKey name="L2_NORM_RANGE" location="vtkDataArray" length="2">
            <Value index="0">
              0
            </Value>
            <Value index="1">
              4.6701176878
            </Value>
          </InformationKey>
        </DataArray>
      </Points>
      <Cells>
        <DataArray type="Int64" Name="connectivity" format="ascii" RangeMin="0" RangeMax="29">
          22 19 21 28 28 22
          23 21 26 27 21 28
          28 29 27 21 28 26
          19 21 29 23 21 28
          22 23 21 17 17 15
          21 22 19 21 15 22
          22 19 12 15 22 16
          17 15 16 12 15 22
          16 17 15 14 14 7
          15 16 12 15 7 16
          16 12 6 7 16 11
          14 7 11 6 7 16
          8 2 4 6 6 7
          4 8 10 4 7 8
          8 10 14 7 8 11
          6 7 11 14 7 8
          24 18 19 20 20 21
          19 24 26 19 21 24
          24 26 27 21 24 25
          20 21 25 27 21 24
          20 18 19 9 20 21
          15 19 19 12 15 20
          9 12 19 20 20 13
          9 12 13 15 12 20
          13 9 12 3 13 15
          7 12 12 6 7 13
          3 6 12 13 13 5
          3 6 5 7 6 13
          2 0 1 6 6 2
          4 1 3 5 1 6
          6 7 5 1 6 3
          0 1 7 4 1 6
        </DataArray>
        <DataArray type="Int64" Name="offsets" format="ascii" RangeMin="4" RangeMax="192">
          4 8 12 16 20 24
          28 32 36 40 44 48
          52 56 60 64 68 72
          76 80 84 88 92 96
          100 104 108 112 116 120
          124 128 132 136 140 144
          148 152 156 160 164 168
          172 176 180 184 188 192
        </DataArray>
        <DataArray type="UInt8" Name="types" format="ascii" RangeMin="10" RangeMax="10">
          10 10 10 10 10 10
          10 10 10 10 10 10
          10 10 10 10 10 10
          10 10 10 10 10 10
          10 10 10 10 10 10
          10 10 10 10 10 10
          10 10 10 10 10 10
          10 10 10 10 10 10
        </DataArray>
      </Cells>
    </Piece>
  </UnstructuredGrid>
</VTKFile>
