<?xml version="1.0"?>
<VTKFile type="UnstructuredGrid" version="0.1" byte_order="LittleEndian" header_type="UInt32" compressor="vtkZLibDataCompressor">
  <UnstructuredGrid>
    <Piece NumberOfPoints="97" NumberOfCells="154">
      <PointData>
        <DataArray type="Float64" Name="Velocity" NumberOfComponents="3" format="ascii" RangeMin="0" RangeMax="4.93971972012965">
          0.6616126348425625 0.5264351243449163 0 1.1502633205246244 0 0
          0.8597841195423331 -0.00829795588026241 0 0.9556514775072781 0.030464656829489834 0
          1.0565227530203318 0.05701740279214676 0 0.995479855207927 0 0
          0.7391401607699865 -0.4789122645725499 0 1.0635764369378808 0 0
          1.0006406845750702 -0.04216130705167864 0 1.0035653613372468 0.004026452564384793 0
          0.9991037709671987 0 0 0.9620075630117572 0 0
          1.0092082066677732 0 0 0.9977464947333612 0 0
          0.9966370489474392 0.002505692182566142 0 0.9979356214589097 0.0024584366315904952 0
          1.0036283644741664 0 0 0.9931076024150808 0 0
          1.0028863314847218 0.004194277590545134 0 0.9960181518247245 -0.0006909159174871648 0
          0.9996680406197708 -0.001001517784920046 0 1.0135164661331526 0 0
          0.9913240198907712 0 0 1.0016995122593633 0.012373883444759462 0
          0.9978909774906917 -0.019721435660243106 0 0.9999763286610958 -0.008936915303410889 0
          1.0280612120880765 0 0 1.0300716060161486 0 0
          0.976722063696911 -0.00696441729661276 0 1.0194555426336311 -0.06617428697293704 0
          0.9725047884345748 -0.04248933732229635 0 1.0175974360960902 -0.03949194033158318 0
          1.0889649712331022 0 0 1.0515592787778518 0 0
          1.0442263978035957 -0.16180053096813676 0 0.9416481141600596 -0.18237633146231857 0
          0.9256622120221144 -0.000053389734107075516 0 1.013033086466518 0 0
          1.2485853924972214 -0.19397405434969162 0 1.043631270064631 -0.3798679311935399 0
          0.7610969880042021 -0.3445073578111968 0 1.2356687577012562 -0.5829178569046383 0
          0.8165871472577162 -0.07269507960051848 0 1.0380791486665444 -0.7642903542251995 0
          1.050414987767135 -0.5057016541155614 0 0.6209126052991849 -0.39999666106208953 0
          1.180236705627111 0 0 1.2332087988126907 -0.651123036265834 0
          0.5287878179409009 -0.20706094980471607 0 1.6793727936270628 -0.6501471982135104 0
          0.9029732189013709 -1.0408636925355068 0 0.7279653794936471 0.03913386375210051 0
          0.46577768511574996 -0.7732108703774067 0 1.6123693173024407 -1.1662666988372903 0
          0.6623524400841552 -0.302315420075179 0 0.6671334521357586 -1.1346270339012905 0
          1.3183738109254455 -0.7576297788656376 0 0.2849712752796999 -0.5895460015123297 0
          1.0390493058216146 -1.654043460091634 0 1.3949774623104403 0 0
          0.2540403451027522 -1.1692246171573886 0 0.4104777277024977 -0.252347666395698 0
          1.3773632512570206 -1.42960884581908 0 -0.11456961434659052 -0.5891119390193665 0
          0.297017150959278 -1.6156471822818879 0 2.5219690245435373 -1.3252429609210077 0
          0.15011330814346824 -0.7126722935160115 0 1.2527798581037182 -2.9159609405815887 0
          -0.5679185199633996 -1.1322895160233928 0 3.5679865023855264 -3.416182552533229 0
          0.8954530983269005 -0.3714274784606169 0 -1.014920893070678 -2.8215256153792128 0
          0.923572683957386 0 0 -0.007714059655477994 -0.3864107376409577 0
          1.4693164316436622 -1.3481015853703755 0 -0.6192562730445579 -0.9512127557783162 0
          -1.0188496192257777 0.025696689992236205 0 -1.674904008278388 0.9344748843587494 0
          0.11433193631151732 0 0 0.21369274593695928 -0.3609080097845119 0
          -0.37943152445402306 -0.09515223575876647 0 -0.011947543093906074 -0.6230522552292451 0
          0 0 0 0.19376557767590208 0 0
          0 0 0 0 0 0
          0 0 0 0 0 0
          1.326221886651224 -0.10445287234447537 0 1.5373574945081392 -0.33877955972286006 0
          1.077564502613623 0 0 2.2670274776105512 0.509852484673851 0
          2.221752035293732 -1.5951471787415765 0 2.8117788370998045 -1.1768826958396508 0
          1.1789429104121676 -0.9011896598461494 0 1.3189647107460283 3.6716627620545426 0
          0 0 0
          <InformationKey name="L2_NORM_RANGE" location="vtkDataArray" length="2">
            <Value index="0">
              0
            </Value>
            <Value index="1">
              4.9397197201
            </Value>
          </InformationKey>
        </DataArray>
        <DataArray type="Float64" Name="Pressure" format="ascii" RangeMin="-20.69046734624491" RangeMax="0.27252573832113036">
          0.0766277862327398 -0.18370389342638957 0.11957648775991966 -0.14523924987255366 -0.15325147871401387 -0.0842856959328793
          0.06148534238228174 -0.3072869394920677 -0.1215532570227017 -0.13364176035501452 -0.11045922728098091 -0.09662516559132725
          -0.14125930003984638 -0.11203500705786168 -0.1306254943429472 -0.11804668488757342 -0.12723310146516634 -0.10916743586319859
          -0.13514293000606845 -0.11586973327271007 -0.11913370522453148 -0.1404331801857651 -0.08509178311931606 -0.14946519197955585
          -0.12252871161830445 -0.1011003375462917 -0.09939616636179002 -0.10668514900965984 -0.15384617503048703 -0.13274788912212038
          -0.09993205969529959 -0.01575009567178628 -0.22177136788291338 -0.11603041522534578 -0.07037787762670306 -0.12389305060197549
          -0.1601256894065271 -0.08238002380468448 -0.19658405719529845 -0.19542516041508612 -0.16205620648053062 -0.2729064496461646
          -0.24088163461102485 -0.4744037336590207 -0.1039382379727033 -0.13816377668900073 -0.2351600490636488 -0.6604440727211928
          -0.18095725061714077 -1.2199786442381877 -0.4944958805706432 -0.2729846753518415 -0.433740361881713 -2.0063932881872444
          -0.5187564334135861 -0.659358343043143 -0.26671469382648294 -0.37026275209974424 -2.5470136707219075 -0.7451906130082803
          -1.064206910463354 -0.19335114572149478 -0.8743847391238624 -0.6039462131832759 -2.143822745485304 -4.34684098303854
          -1.2187757279548288 -4.7405738864659765 -2.5126427336303205 -13.573194807075685 -0.9141182197859341 -10.643332493510512
          -0.46263804781331097 -0.9222117880626993 -20.69046734624491 -2.197608663269931 -4.411782928911399 -13.658513632826331
          0.11108096574838977 -0.7785980856510734 -1.5477185260855872 -0.5704235752615706 -1.7905368582252044 0.27252573832113036
          -0.8564535760879096 -0.7455671921341427 -0.21396495694913842 0.08599938984209832 -0.18759168940649176 -0.016042362123641796
          0.2089459457580691 -9.619576674809819 -0.3538326306535815 -4.273917428279938 -0.5239845004436802 -16.24219661809535
          -5.345102934981232
        </DataArray>
        <DataArray type="Float64" Name="BTraction" NumberOfComponents="3" format="ascii" RangeMin="0" RangeMax="5.240275101977424">
          -0.05883811189721233 0.021955842172015953 0 0.007237105046111777 0.13134700780493422 0
          -0.11934880624433189 0.0014359519246904737 0 0 0 0
          0 0 0 0.0022521162838797823 0.10413927835864449 0
          -0.04742925783995463 -0.038529842402436544 0 0.006254914874898349 -0.21481124436996935 0
          0 0 0 0 0 0
          0.00012893200938033045 0.10579798895808043 0 -0.002786408229208751 -0.13755871081775106 0
          -0.0005964413083394277 -0.13078908942459305 0 -0.00011095498803198485 0.11129871477460261 0
          0 0 0 0 0 0
          0.00040105412330950207 -0.1322157501030141 0 -0.00020051445335339638 0.10637867312586821 0
          0 0 0 0 0 0
          0 0 0 0.0008926313097202895 -0.1334348295666733 0
          -0.00013058488227083695 0.09346080434437314 0 0 0 0
          0 0 0 0 0 0
          0.0030426766034074475 -0.12706270359845026 0 0.00042354735634009776 0.10532932329490659 0
          0 0 0 0 0 0
          0 0 0 0 0 0
          0.008664898933151042 -0.18042102209341768 0 -0.004160981898013731 0.06959115496044038 0
          0 0 0 0 0 0
          0 0 0 0.011937137319698508 -0.13717891810961028 0
          0 0 0 0 0 0
          0 0 0 0 0 0
          0 0 0 0 0 0
          0 0 0 0 0 0
          0.04337951181038907 -0.2796913681841194 0 0 0 0
          0 0 0 0 0 0
          0 0 0 0 0 0
          0 0 0 0 0 0
          0 0 0 0 0 0
          0 0 0 0 0 0
          0 0 0 0.06459723511584631 -0.5657505203336232 0
          0 0 0 0 0 0
          0 0 0 0 0 0
          0 0 0 0 0 0
          0 0 0 0 0 0
          0 0 0 0 0 0
          0 0 0 0 0 0
          0.019802758887133228 -0.3628170777572926 0 0 0 0
          0 0 0 0 0 0
          0 0 0 0 0 0
          -0.0353104094222865 0.12687089824781064 0 0 0 0
          0 0 0 0 0 0
          -1.9061810040855298 -0.22896433722146517 0 0.0007485842104010303 0.2721751953173848 0
          -0.9579585399456353 0.08151417357974668 0 -0.7018997160891199 0.06531244408895102 0
          -0.2646577589925123 0.026814284858653444 0 0.012622939123001203 0.10364275752616699 0
          0 0 0 0 0 0
          -0.005527772195793955 -0.011225196336284894 0 0 0 0
          0 0 0 0 0 0
          0 0 0 0 0 0
          -5.207472898785553 -0.585413659576282 0
          <InformationKey name="L2_NORM_RANGE" location="vtkDataArray" length="2">
            <Value index="0">
              0
            </Value>
            <Value index="1">
              5.240275102
            </Value>
          </InformationKey>
        </DataArray>
        <DataArray type="Float64" Name="Sigma" NumberOfComponents="6" format="ascii" RangeMin="0.00011783671639239984" RangeMax="1.0272190373539476">
          -0.03834067271492393 0.038543549651423724 0 0.012929578013457425 0 0
          -0.002453910691189254 0.0022931064157128045 0 0.007217697678954174 0 0
          -0.010393220759207573 0.01040574402492774 0 0.0015424953461385146 0 0
          0.0027768225801269603 -0.0026052331722208315 0 0.0006476989869995464 0 0
          -0.0022218480452592723 0.0021079405322464665 0 -0.003683942277725127 0 0
          0.0020096641897820633 -0.002107411890367511 0 0.001622261547396543 0 0
          -0.019760202059536904 0.01961769396906379 0 -0.010483847849868642 0 0
          -0.001378375061165667 0.0019399723744903644 0 -0.008370843789428099 0 0
          -0.000917832102311176 0.0008854569980773009 0 -0.00024304983465775422 0 0
          -0.0014025868957394548 0.0013850901241397678 0 -0.00043445579518083024 0 0
          0.0003880507378425664 -0.0003336931412634236 0 -0.0001940461652616509 0 0
          0.002567005903784502 -0.0027976984245256576 0 0.006437733758190943 0 0
          0.0005580779176731764 -0.0004438156671042922 0 -0.0006616418680831815 0 0
          -0.00005808879550650423 0.00007250608923922125 0 -0.00007248483006795624 0 0
          0.00019220901085816126 -0.0002517571455433552 0 0.00018745424332993502 0 0
          0.00013947193160000973 -0.00012043833941261488 0 -0.00022211746097974453 0 0
          -0.0004416936773766247 0.00041203042462203976 0 -0.00021251843582164846 0 0
          0.00003098904051801949 -0.00004162695376619072 0 -0.00018020964788234068 0 0
          0.00021974187250738993 -0.00016762516259195392 0 -0.00040885585852093687 0 0
          -0.0001979892905172636 0.0002458003090488227 0 0.00024811334903348815 0 0
          0.00024239675226247188 -0.0003144874483818489 0 0.0002885181062377917 0 0
          -0.001652638794105069 0.0016021706264757627 0 -0.0009240498187629054 0 0
          -0.0010408500363359172 0.0011816291747447345 0 -0.0004606697777550195 0 0
          0.001421118971064274 -0.0015103310377884195 0 -0.00024624315044595376 0 0
          -0.00007517970814143893 0.00014040433923097613 0 0.001435955784792017 0 0
          -0.002102727355911322 0.002050389668047261 0 0.0003382750958378666 0 0
          -0.0015363298260767629 0.001759317399105543 0 -0.0016454275701192295 0 0
          0.00025159941296022865 -0.0003933512647860225 0 0.0013788771542106975 0 0
          0.0006617744083070438 -0.0007227870090327906 0 -0.0007161882047405961 0 0
          -0.0005680677253533554 0.00023496714683821863 0 0.006972692975195395 0 0
          0.004323447423728606 -0.0040381615032197855 0 0.0037474334656665605 0 0
          -0.007368566837579168 0.007912612863263526 0 0.0024322640562430523 0 0
          -0.0011068954595442077 0.0010722407235788706 0 -0.011700427215971563 0 0
          -0.0074832333489187886 0.006927247393131322 0 -0.002658694149347776 0 0
          -0.008715890897848442 0.008991904739407539 0 0.005887634045183386 0 0
          0.00532550572858615 -0.005431579533559162 0 0.016786961507683842 0 0
          0.010145881793481122 -0.010288781564336283 0 0.002251777761237767 0 0
          -0.007144360119287842 0.00674008041958758 0 -0.0036911765611392024 0 0
          -0.02049147974120493 0.019904195984321065 0 0.01142537841185496 0 0
          -0.013166199410289991 0.013229492765815924 0 0.03737105203129869 0 0
          0.024038647167189148 -0.023806136582817352 0 0.019279695518968836 0 0
          -0.03845098828242962 0.03964026272370357 0 0.028139531777650988 0 0
          0.02414267469270843 -0.023809782065997407 0 -0.013847928671889755 0 0
          0.022634336101132555 -0.024458303217537877 0 0.017738195722984847 0 0
          -0.014096049828777017 0.013573994088534437 0 0.057667705533737366 0 0
          0.04947823483780858 -0.05126926203296132 0 0.1151313551247145 0 0
          -0.007952288022270548 0.009663678860397257 0 -0.046876886178124445 0 0
          -0.1610324541888956 0.16982531613872343 0 0.08456279007226077 0 0
          0.04132186144481485 -0.03941571517183067 0 0.023677983088511684 0 0
          0.10048880359176157 -0.10847370678869483 0 0.02793321982134349 0 0
          -0.02555734106687661 0.03237580269014611 0 0.1410786009730356 0 0
          -0.004591123783457955 0.004905525351825503 0 -0.005025802183376171 0 0
          0.03775844033086375 -0.03867203215143718 0 0.07332521851906068 0 0
          -0.023469273035840697 0.014027852333054341 0 0.013997582420418828 0 0
          0.08984472726742297 -0.09620948371245726 0 0.014020752261956652 0 0
          0.03355457928541532 -0.031105340166062777 0 0.04555227040225275 0 0
          0.0521390493893884 -0.05479396109625409 0 -0.08226514563987208 0 0
          0.061746219870554196 -0.06005045036105411 0 0.02298404508827065 0 0
          -0.016851457405541614 0.010987102442122532 0 0.16529954506302874 0 0
          0.05318456599293722 -0.05706573994267136 0 -0.0789240688858483 0 0
          0.06864586769354271 -0.06891334097353508 0 0.026103221959930686 0 0
          0.012261729770038877 -0.007350409166766988 0 -0.028471758978605804 0 0
          -0.37493136837380514 0.38219632346434323 0 0.34192489844746843 0 0
          0.025645552493252063 -0.024228772995009317 0 -0.011671973921943598 0 0
          0.31540307698540115 -0.32148787448295835 0 0.34367794384927564 0 0
          -0.35280270610692027 0.35664257927564313 0 0.20731360386438158 0 0
          0.12815649537551843 -0.12932327244271122 0 0.02741505410226811 0 0
          0.033844684906644065 -0.019040979329995544 0 0.4398305674195838 0 0
          0.24450840589393047 -0.24059564082333584 0 -0.06384442857502087 0 0
          -0.12889062221061584 0.11286357832842125 0 -0.22443501348164832 0 0
          0.05715789909111797 -0.05634647405484452 0 -0.025934271414218446 0 0
          0.31226621023708184 -0.31028123244588196 0 0.10973088004325049 0 0
          0.0483230399064683 -0.04961731433951368 0 -0.022736722997886843 0 0
          0.0034313239439051984 -0.0023678181574253833 0 -0.05577765475528711 0 0
          -0.010787869898011178 0.003930925474401492 0 -0.20474005148299948 0 0
          0.02950813904795656 -0.03415369451556102 0 -0.09223190110361093 0 0
          -0.029309787814126152 0.02707293730283627 0 -0.5020321827526406 0 0
          -0.14016227120556202 0.13080216011192852 0 -0.3858936503316283 0 0
          0.11144059434427085 -0.11383130965042484 0 0.060459260025525735 0 0
          -0.027518965188974003 0.03338474528841893 0 -0.04017229144825039 0 0
          -0.04050768113615108 0.03885943275894474 0 -0.06334951782469361 0 0
          0.042619892494205315 -0.046986687226545885 0 -0.039544858898055445 0 0
          -0.332395105146125 0.3536597055357076 0 0.22616259389442162 0 0
          0.0674871506347737 -0.05513092559849393 0 -0.006041899450228191 0 0
          0.021328416767825167 -0.02718240530866312 0 -0.16756280347386254 0 0
          0.02162491490668215 -0.027158951062360995 0 -0.049500473093521465 0 0
          0.007758653815334483 -0.004674368529823626 0 -0.016371829378557027 0 0
          -0.013386069067182177 -0.005257477397447173 0 -0.04575419602025306 0 0
          -0.021344551473864118 0.021435015310941923 0 0.0017072644339975814 0 0
          -0.04445116323076178 0.042656051407707264 0 -0.013949558365309504 0 0
          -0.015724865573106823 0.017577170816018284 0 -0.01635295312180941 0 0
          0.6539935460017565 -0.6401726693117187 0 -0.4665301125937403 0 0
          -0.26455000305418064 0.2691149649522142 0 -0.22400787415313614 0 0
          0.08585140876699232 -0.09026168465048034 0 0.04477913717102255 0 0
          -0.31446715467343384 0.32290236692307994 0 0.05354225343137181 0 0
          0.048410561022718145 -0.05363364168168934 0 0.45398697212678546 0 0
          -0.32596790692471506 0.32141543483424206 0 0.6977966941877104 0 0
          <InformationKey name="L2_NORM_RANGE" location="vtkDataArray" length="2">
            <Value index="0">
              0.00011783671639
            </Value>
            <Value index="1">
              1.0272190374
            </Value>
          </InformationKey>
        </DataArray>
        <DataArray type="Float64" Name="ALEdispl" NumberOfComponents="3" format="ascii" RangeMin="0" RangeMax="0">
          0 0 0 0 0 0
          0 0 0 0 0 0
          0 0 0 0 0 0
          0 0 0 0 0 0
          0 0 0 0 0 0
          0 0 0 0 0 0
          0 0 0 0 0 0
          0 0 0 0 0 0
          0 0 0 0 0 0
          0 0 0 0 0 0
          0 0 0 0 0 0
          0 0 0 0 0 0
          0 0 0 0 0 0
          0 0 0 0 0 0
          0 0 0 0 0 0
          0 0 0 0 0 0
          0 0 0 0 0 0
          0 0 0 0 0 0
          0 0 0 0 0 0
          0 0 0 0 0 0
          0 0 0 0 0 0
          0 0 0 0 0 0
          0 0 0 0 0 0
          0 0 0 0 0 0
          0 0 0 0 0 0
          0 0 0 0 0 0
          0 0 0 0 0 0
          0 0 0 0 0 0
          0 0 0 0 0 0
          0 0 0 0 0 0
          0 0 0 0 0 0
          0 0 0 0 0 0
          0 0 0 0 0 0
          0 0 0 0 0 0
          0 0 0 0 0 0
          0 0 0 0 0 0
          0 0 0 0 0 0
          0 0 0 0 0 0
          0 0 0 0 0 0
          0 0 0 0 0 0
          0 0 0 0 0 0
          0 0 0 0 0 0
          0 0 0 0 0 0
          0 0 0 0 0 0
          0 0 0 0 0 0
          0 0 0 0 0 0
          0 0 0 0 0 0
          0 0 0 0 0 0
          0 0 0
          <InformationKey name="L2_NORM_RANGE" location="vtkDataArray" length="2">
            <Value index="0">
              0
            </Value>
            <Value index="1">
              0
            </Value>
          </InformationKey>
        </DataArray>
        <DataArray type="Float64" Name="ALEveloc" NumberOfComponents="3" format="ascii" RangeMin="0" RangeMax="0">
          0 0 0 0 0 0
          0 0 0 0 0 0
          0 0 0 0 0 0
          0 0 0 0 0 0
          0 0 0 0 0 0
          0 0 0 0 0 0
          0 0 0 0 0 0
          0 0 0 0 0 0
          0 0 0 0 0 0
          0 0 0 0 0 0
          0 0 0 0 0 0
          0 0 0 0 0 0
          0 0 0 0 0 0
          0 0 0 0 0 0
          0 0 0 0 0 0
          0 0 0 0 0 0
          0 0 0 0 0 0
          0 0 0 0 0 0
          0 0 0 0 0 0
          0 0 0 0 0 0
          0 0 0 0 0 0
          0 0 0 0 0 0
          0 0 0 0 0 0
          0 0 0 0 0 0
          0 0 0 0 0 0
          0 0 0 0 0 0
          0 0 0 0 0 0
          0 0 0 0 0 0
          0 0 0 0 0 0
          0 0 0 0 0 0
          0 0 0 0 0 0
          0 0 0 0 0 0
          0 0 0 0 0 0
          0 0 0 0 0 0
          0 0 0 0 0 0
          0 0 0 0 0 0
          0 0 0 0 0 0
          0 0 0 0 0 0
          0 0 0 0 0 0
          0 0 0 0 0 0
          0 0 0 0 0 0
          0 0 0 0 0 0
          0 0 0 0 0 0
          0 0 0 0 0 0
          0 0 0 0 0 0
          0 0 0 0 0 0
          0 0 0 0 0 0
          0 0 0 0 0 0
          0 0 0
          <InformationKey name="L2_NORM_RANGE" location="vtkDataArray" length="2">
            <Value index="0">
              0
            </Value>
            <Value index="1">
              0
            </Value>
          </InformationKey>
        </DataArray>
      </PointData>
      <CellData>
        <DataArray type="UInt8" Name="vtkGhostType" format="ascii" RangeMin="0" RangeMax="0">
          0 0 0 0 0 0
          0 0 0 0 0 0
          0 0 0 0 0 0
          0 0 0 0 0 0
          0 0 0 0 0 0
          0 0 0 0 0 0
          0 0 0 0 0 0
          0 0 0 0 0 0
          0 0 0 0 0 0
          0 0 0 0 0 0
          0 0 0 0 0 0
          0 0 0 0 0 0
          0 0 0 0 0 0
          0 0 0 0 0 0
          0 0 0 0 0 0
          0 0 0 0 0 0
          0 0 0 0 0 0
          0 0 0 0 0 0
          0 0 0 0 0 0
          0 0 0 0 0 0
          0 0 0 0 0 0
          0 0 0 0 0 0
          0 0 0 0 0 0
          0 0 0 0 0 0
          0 0 0 0 0 0
          0 0 0 0
        </DataArray>
        <DataArray type="Float64" Name="PStrain" NumberOfComponents="6" format="ascii" RangeMin="0.1732050807568877" RangeMax="0.1732050807568877">
          0.09999999999999999 0.09999999999999999 0 0.09999999999999999 0 0
          0.09999999999999999 0.09999999999999999 0 0.09999999999999999 0 0
          0.09999999999999999 0.09999999999999999 0 0.09999999999999999 0 0
          0.09999999999999999 0.09999999999999999 0 0.09999999999999999 0 0
          0.09999999999999999 0.09999999999999999 0 0.09999999999999999 0 0
          0.09999999999999999 0.09999999999999999 0 0.09999999999999999 0 0
          0.09999999999999999 0.09999999999999999 0 0.09999999999999999 0 0
          0.09999999999999999 0.09999999999999999 0 0.09999999999999999 0 0
          0.09999999999999999 0.09999999999999999 0 0.09999999999999999 0 0
          0.09999999999999999 0.09999999999999999 0 0.09999999999999999 0 0
          0.09999999999999999 0.09999999999999999 0 0.09999999999999999 0 0
          0.09999999999999999 0.09999999999999999 0 0.09999999999999999 0 0
          0.09999999999999999 0.09999999999999999 0 0.09999999999999999 0 0
          0.09999999999999999 0.09999999999999999 0 0.09999999999999999 0 0
          0.09999999999999999 0.09999999999999999 0 0.09999999999999999 0 0
          0.09999999999999999 0.09999999999999999 0 0.09999999999999999 0 0
          0.09999999999999999 0.09999999999999999 0 0.09999999999999999 0 0
          0.09999999999999999 0.09999999999999999 0 0.09999999999999999 0 0
          0.09999999999999999 0.09999999999999999 0 0.09999999999999999 0 0
          0.09999999999999999 0.09999999999999999 0 0.09999999999999999 0 0
          0.09999999999999999 0.09999999999999999 0 0.09999999999999999 0 0
          0.09999999999999999 0.09999999999999999 0 0.09999999999999999 0 0
          0.09999999999999999 0.09999999999999999 0 0.09999999999999999 0 0
          0.09999999999999999 0.09999999999999999 0 0.09999999999999999 0 0
          0.09999999999999999 0.09999999999999999 0 0.09999999999999999 0 0
          0.09999999999999999 0.09999999999999999 0 0.09999999999999999 0 0
          0.09999999999999999 0.09999999999999999 0 0.09999999999999999 0 0
          0.09999999999999999 0.09999999999999999 0 0.09999999999999999 0 0
          0.09999999999999999 0.09999999999999999 0 0.09999999999999999 0 0
          0.09999999999999999 0.09999999999999999 0 0.09999999999999999 0 0
          0.09999999999999999 0.09999999999999999 0 0.09999999999999999 0 0
          0.09999999999999999 0.09999999999999999 0 0.09999999999999999 0 0
          0.09999999999999999 0.09999999999999999 0 0.09999999999999999 0 0
          0.09999999999999999 0.09999999999999999 0 0.09999999999999999 0 0
          0.09999999999999999 0.09999999999999999 0 0.09999999999999999 0 0
          0.09999999999999999 0.09999999999999999 0 0.09999999999999999 0 0
          0.09999999999999999 0.09999999999999999 0 0.09999999999999999 0 0
          0.09999999999999999 0.09999999999999999 0 0.09999999999999999 0 0
          0.09999999999999999 0.09999999999999999 0 0.09999999999999999 0 0
          0.09999999999999999 0.09999999999999999 0 0.09999999999999999 0 0
          0.09999999999999999 0.09999999999999999 0 0.09999999999999999 0 0
          0.09999999999999999 0.09999999999999999 0 0.09999999999999999 0 0
          0.09999999999999999 0.09999999999999999 0 0.09999999999999999 0 0
          0.09999999999999999 0.09999999999999999 0 0.09999999999999999 0 0
          0.09999999999999999 0.09999999999999999 0 0.09999999999999999 0 0
          0.09999999999999999 0.09999999999999999 0 0.09999999999999999 0 0
          0.09999999999999999 0.09999999999999999 0 0.09999999999999999 0 0
          0.09999999999999999 0.09999999999999999 0 0.09999999999999999 0 0
          0.09999999999999999 0.09999999999999999 0 0.09999999999999999 0 0
          0.09999999999999999 0.09999999999999999 0 0.09999999999999999 0 0
          0.09999999999999999 0.09999999999999999 0 0.09999999999999999 0 0
          0.09999999999999999 0.09999999999999999 0 0.09999999999999999 0 0
          0.09999999999999999 0.09999999999999999 0 0.09999999999999999 0 0
          0.09999999999999999 0.09999999999999999 0 0.09999999999999999 0 0
          0.09999999999999999 0.09999999999999999 0 0.09999999999999999 0 0
          0.09999999999999999 0.09999999999999999 0 0.09999999999999999 0 0
          0.09999999999999999 0.09999999999999999 0 0.09999999999999999 0 0
          0.09999999999999999 0.09999999999999999 0 0.09999999999999999 0 0
          0.09999999999999999 0.09999999999999999 0 0.09999999999999999 0 0
          0.09999999999999999 0.09999999999999999 0 0.09999999999999999 0 0
          0.09999999999999999 0.09999999999999999 0 0.09999999999999999 0 0
          0.09999999999999999 0.09999999999999999 0 0.09999999999999999 0 0
          0.09999999999999999 0.09999999999999999 0 0.09999999999999999 0 0
          0.09999999999999999 0.09999999999999999 0 0.09999999999999999 0 0
          0.09999999999999999 0.09999999999999999 0 0.09999999999999999 0 0
          0.09999999999999999 0.09999999999999999 0 0.09999999999999999 0 0
          0.09999999999999999 0.09999999999999999 0 0.09999999999999999 0 0
          0.09999999999999999 0.09999999999999999 0 0.09999999999999999 0 0
          0.09999999999999999 0.09999999999999999 0 0.09999999999999999 0 0
          0.09999999999999999 0.09999999999999999 0 0.09999999999999999 0 0
          0.09999999999999999 0.09999999999999999 0 0.09999999999999999 0 0
          0.09999999999999999 0.09999999999999999 0 0.09999999999999999 0 0
          0.09999999999999999 0.09999999999999999 0 0.09999999999999999 0 0
          0.09999999999999999 0.09999999999999999 0 0.09999999999999999 0 0
          0.09999999999999999 0.09999999999999999 0 0.09999999999999999 0 0
          0.09999999999999999 0.09999999999999999 0 0.09999999999999999 0 0
          0.09999999999999999 0.09999999999999999 0 0.09999999999999999 0 0
          0.09999999999999999 0.09999999999999999 0 0.09999999999999999 0 0
          0.09999999999999999 0.09999999999999999 0 0.09999999999999999 0 0
          0.09999999999999999 0.09999999999999999 0 0.09999999999999999 0 0
          0.09999999999999999 0.09999999999999999 0 0.09999999999999999 0 0
          0.09999999999999999 0.09999999999999999 0 0.09999999999999999 0 0
          0.09999999999999999 0.09999999999999999 0 0.09999999999999999 0 0
          0.09999999999999999 0.09999999999999999 0 0.09999999999999999 0 0
          0.09999999999999999 0.09999999999999999 0 0.09999999999999999 0 0
          0.09999999999999999 0.09999999999999999 0 0.09999999999999999 0 0
          0.09999999999999999 0.09999999999999999 0 0.09999999999999999 0 0
          0.09999999999999999 0.09999999999999999 0 0.09999999999999999 0 0
          0.09999999999999999 0.09999999999999999 0 0.09999999999999999 0 0
          0.09999999999999999 0.09999999999999999 0 0.09999999999999999 0 0
          0.09999999999999999 0.09999999999999999 0 0.09999999999999999 0 0
          0.09999999999999999 0.09999999999999999 0 0.09999999999999999 0 0
          0.09999999999999999 0.09999999999999999 0 0.09999999999999999 0 0
          0.09999999999999999 0.09999999999999999 0 0.09999999999999999 0 0
          0.09999999999999999 0.09999999999999999 0 0.09999999999999999 0 0
          0.09999999999999999 0.09999999999999999 0 0.09999999999999999 0 0
          0.09999999999999999 0.09999999999999999 0 0.09999999999999999 0 0
          0.09999999999999999 0.09999999999999999 0 0.09999999999999999 0 0
          0.09999999999999999 0.09999999999999999 0 0.09999999999999999 0 0
          0.09999999999999999 0.09999999999999999 0 0.09999999999999999 0 0
          0.09999999999999999 0.09999999999999999 0 0.09999999999999999 0 0
          0.09999999999999999 0.09999999999999999 0 0.09999999999999999 0 0
          0.09999999999999999 0.09999999999999999 0 0.09999999999999999 0 0
          0.09999999999999999 0.09999999999999999 0 0.09999999999999999 0 0
          0.09999999999999999 0.09999999999999999 0 0.09999999999999999 0 0
          0.09999999999999999 0.09999999999999999 0 0.09999999999999999 0 0
          0.09999999999999999 0.09999999999999999 0 0.09999999999999999 0 0
          0.09999999999999999 0.09999999999999999 0 0.09999999999999999 0 0
          0.09999999999999999 0.09999999999999999 0 0.09999999999999999 0 0
          0.09999999999999999 0.09999999999999999 0 0.09999999999999999 0 0
          0.09999999999999999 0.09999999999999999 0 0.09999999999999999 0 0
          0.09999999999999999 0.09999999999999999 0 0.09999999999999999 0 0