<?xml version="1.0"?>
<VTKFile type="UnstructuredGrid" version="0.1" byte_order="LittleEndian" header_type="UInt32" compressor="vtkZLibDataCompressor">
  <UnstructuredGrid>
    <Piece NumberOfPoints="94" NumberOfCells="150">
      <PointData>
        <DataArray type="Float64" Name="Velocity" NumberOfComponents="3" format="ascii" RangeMin="0" RangeMax="4.93971972012965">
          1.077564502613623 0 0 1.326221886651224 -0.10445287234447537 0
          1.5373574945081392 -0.33877955972286006 0 1.5650725587438412 0 0
          1.1789429104121676 -0.9011896598461494 0 1.2962346913746667 -0.3563936145887581 0
          2.335614818336428 -0.13051512816710245 0 2.8117788370998045 -1.1768826958396508 0
          2.221752035293732 -1.5951471787415765 0 1.667293987366661 0 0
          2.31441498753641 -1.2800678202045963 0 1.81635219132974 -0.15614165044871975 0
          1.7503583878976214 0.06359755864435201 0 2.2670274776105512 0.509852484673851 0
          4.4074829412308345 0.19954399986742188 0 3.389779467851542 1.214786539621119 0
          1.3189647107460283 3.6716627620545426 0 1.9751412603135614 -0.3867702212521835 0
          0.9012175808135585 0.38778744926425124 0 2.3583881034787755 1.1882763174729178 0
          0 0 0 3.02324384342105 0.5320319185941023 0
          1.7316308561153528 0.1894007475487505 0 0 0 0
          3.409213897662078 1.6643576890015028 0 1.9697354596378058 0.15301625745529485 0
          2.1015542473767432 -0.02389365720140152 0 0 0 0
          0 0 0 2.0369619303414668 0.3424201222677203 0
          2.2713999067678614 1.6677236278377434 0 1.7811455143153154 0 0
          0 0 0 0 0 0
          2.4403796911777995 1.2314393834891932 0 -0.005092700453474264 2.3778570780194213 0
          1.7091082529671142 0.3836633926551594 0 0 0 0
          1.9651388167153412 0.4855995596868954 0 1.4352632843028816 0.5144308061853646 0
          0 0 0 1.0989865969620767 1.3047026482884505 0
          0.28863046496101064 -0.6333424001562011 0 0 0 0
          1.1404947866192416 1.3301851722365468 0 2.2404367444682585 0.9838729869885493 0
          0.7495217635292314 0.4123853380591009 0 2.1470357592474616 0.6894762919600855 0
          1.5705477479464367 0.1587839818126314 0 -0.31888301239764805 -0.21212553064921275 0
          1.3495903589733909 1.4185462467563585 0 0.6607481804559319 1.2960295758057403 0
          1.5083349628363008 0.8950191924075815 0 0.8114907536088626 1.6138447876815807 0
          0.49290752237453583 0 0 0.7585947216985023 0.997199500160204 0
          0.9130813568392213 1.0499366779704276 0 -0.040365586489131015 0.01644247273570804 0
          0.7995557253113695 1.289682295762924 0 -0.4872883392151881 0.14710308240006734 0
          1.245052261217854 0.8572910413006758 0 1.6321870564490921 1.4433989752422596 0
          1.1417647099735733 0 0 1.381822000514131 1.3817153804226765 0
          0.4601506438976065 0 0 0.9954648471715936 0.6461573920754107 0
          0.5586747066430785 0.5671557314974062 0 1.051035314848595 0.24950753996904684 0
          0.1550491205831155 -0.023247050748521906 0 -0.7825378371632961 0 0
          1.0335750244492226 0.24457518226457198 0 0.9736315264785178 0.5355870655620614 0
          1.1198907301208534 0.9923733638732345 0 1.0466509380122493 1.0168997628215006 0
          0.6726289644526859 0.8887180256414046 0 0.4369954091404898 0 0
          1 0 0 1 0 0
          1 0 0 0.7803189933035767 0 0
          1 0 0 1 0 0
          1 0 0 1 0 0
          1.2485853924972214 -0.19397405434969162 0 1.0515592787778518 0 0
          1.4693164316436622 -1.3481015853703755 0 3.5679865023855264 -3.416182552533229 0
          2.5219690245435373 -1.3252429609210077 0 1.3183738109254455 -0.7576297788656376 0
          1.6793727936270628 -0.6501471982135104 0 1.2356687577012562 -0.5829178569046383 0
          -1.674904008278388 0.9344748843587494 0 0 0 0
          <InformationKey name="L2_NORM_RANGE" location="vtkDataArray" length="2">
            <Value index="0">
              0
            </Value>
            <Value index="1">
              4.9397197201
            </Value>
          </InformationKey>
        </DataArray>
        <DataArray type="Float64" Name="Pressure" format="ascii" RangeMin="-20.69046734624491" RangeMax="4.373531143102521">
          0.2089459457580691 -0.18759168940649176 -0.016042362123641796 -0.5435817230715988 -0.5239845004436802 0.37504353069114027
          -1.099127992312154 -4.273917428279938 -0.3538326306535815 0.19851870614058048 -1.1826367233391513 -0.883741803546045
          2.0114673088884745 -9.619576674809819 -12.76110257281051 -2.597363310573408 -16.24219661809535 -0.532554014689465
          -6.691389273833785 -3.1373443004326673 -9.728469078259 -3.43766534372819 0.19342981017754102 -5.345102934981232
          -9.512261475126232 -0.7230136555460279 -1.3505373811305303 -4.081598418393175 2.8077102717625437 0.3200774339298482
          -3.921081447993546 0.3362684519923652 2.80162793304785 2.5040373749802165 -3.060069777466723 0.24112152903327094
          0.45311455373108706 2.6019410590108514 0.7986930075957458 1.879234788609784 3.148145619609656 1.2045194021255015
          2.2332128670558666 3.608266730102694 1.1504518226034257 -0.5323040624859489 2.3220576066309233 0.18211237020104398
          1.1124629054409434 2.41076312930217 0.006958658879696378 1.9686238635879525 1.886709034922705 1.6251981634636699
          3.4659564829754523 2.8787254721419555 2.4307139003077873 3.2948706204100615 2.5280175852781026 3.1614682012670787
          1.5321945077916452 0.9840282370858771 1.6322854782663554 1.605353038543094 3.238283269197037 2.835282713076773
          3.644792356838051 1.7149544525394411 3.7019483320783935 3.706233292395665 1.8349487171792158 2.564523547808295
          2.922213071167435 3.4728590905182095 3.7506948652190415 4.362120791540895 1.780030609987422 1.8103409219358229
          2.1752080012914945 4.373531143102521 2.6336249340422264 3.29038250136678 3.9410095421717486 4.071545137941243
          -0.19658405719529845 -0.11603041522534578 -20.69046734624491 -13.573194807075685 -4.34684098303854 -0.26671469382648294
          -1.2199786442381877 -0.2729064496461646 -13.658513632826331 -1.7905368582252044
        </DataArray>
        <DataArray type="Float64" Name="BTraction" NumberOfComponents="3" format="ascii" RangeMin="0" RangeMax="6.127701696854598">
          -0.005527772195793955 -0.011225196336284894 0 0 0 0
          0 0 0 0.02255122718395261 0.31699682356158576 0
          0 0 0 0 0 0
          0 0 0 0 0 0
          0 0 0 0.013548990365224254 -0.0896437691913966 0
          0 0 0 0 0 0
          0 0 0 0 0 0
          0 0 0 0 0 0
          0 0 0 0 0 0
          0 0 0 0 0 0
          -5.111538355589437 -3.3794827599756667 0 0 0 0
          0 0 0 -5.207472898785553 -0.585413659576282 0
          0 0 0 0 0 0
          0 0 0 1.0686525841549206 -2.656142195345642 0
          -1.8880019293713473 -0.3105559042998992 0 0 0 0
          0 0 0 -0.005157354448079297 -0.5469546134091868 0
          -2.9229337052010016 0.027097642693246157 0 -2.5389595133676766 0.14686276172590984 0
          0 0 0 0 0 0
          0 0 0 -2.584706629630532 0.021335602666602806 0
          0 0 0 0 0 0
          -3.157000132929291 -0.06557683513644093 0 0 0 0
          0 0 0 -1.7058442679062897 1.7402676467676925 0
          0 0 0 0 0 0
          0 0 0 0 0 0
          0 0 0 0 0 0
          0 0 0 0 0 0
          0 0 0 0 0 0
          0.031167884786173307 3.4579638111356585 0 0 0 0
          0 0 0 0 0 0
          0 0 0 0 0 0
          0 0 0 0 0 0
          -0.01311332786015213 -1.4778236414223935 0 0 0 0
          -0.03549207459319088 3.4519741994404107 0 0 0 0
          0 0 0 0 0 0
          0 0 0 -0.16518219414210492 3.7711146849848944 0
          0 0 0 0 0 0
          0 0 0 0 0 0
          0 0 0 -0.02795368851195444 4.10870732155659 0
          0.8896188995627256 -0.8790283297931959 0 1.8612936126105226 -0.008169923601359097 0
          2.1902951057551925 -0.028802010546506083 0 -0.011914070465127 4.220562106984018 0
          2.6508537073037575 -0.053860426505317506 0 3.2703214884380416 -0.08467799392958049 0
          3.8532016837664 -0.060953660343570054 0 2.3183072136368024 1.729574414426161 0
          0 0 0 -0.004160981898013731 0.06959115496044038 0
          0 0 0 0 0 0
          0 0 0 0 0 0
          0 0 0 0 0 0
          0 0 0 -1.9061810040855298 -0.22896433722146517 0
          <InformationKey name="L2_NORM_RANGE" location="vtkDataArray" length="2">
            <Value index="0">
              0
            </Value>
            <Value index="1">
              6.1277016969
            </Value>
          </InformationKey>
        </DataArray>
        <DataArray type="Float64" Name="Sigma" NumberOfComponents="6" format="ascii" RangeMin="0.0032404668961109663" RangeMax="1.0272190373539476">
          -0.015724865573106823 0.017577170816018284 0 -0.01635295312180941 0 0
          -0.021344551473864118 0.021435015310941923 0 0.0017072644339975814 0 0
          -0.04445116323076178 0.042656051407707264 0 -0.013949558365309504 0 0
          -0.030571884115130513 0.026063481224942807 0 0.03444526874457079 0 0
          -0.31446715467343384 0.32290236692307994 0 0.05354225343137181 0 0
          -0.03992054973755725 0.0444845211317407 0 -0.013807657227344887 0 0
          0.0025127308302137965 -0.005679833618565146 0 -0.015940828077153697 0 0
          0.08585140876699232 -0.09026168465048034 0 0.04477913717102255 0 0
          -0.26455000305418064 0.2691149649522142 0 -0.22400787415313614 0 0
          -0.012499163627135167 0.013185714237445367 0 0.013377359044762484 0 0
          -0.3793794004461025 0.3659685913213534 0 -0.46230048727772577 0 0
          -0.055191205420772355 0.05374619192591707 0 -0.08483144321627656 0 0
          -0.2192382215788008 0.2255297274973983 0 -0.1871997598221521 0 0
          0.6539935460017565 -0.6401726693117187 0 -0.4665301125937403 0 0
          0.15117657680874017 -0.1518517904249013 0 0.031305306336578825 0 0
          0.2557572394828332 -0.2329914883070478 0 -0.34205022778040184 0 0
          0.048410561022718145 -0.05363364168168934 0 0.45398697212678546 0 0
          0.07355450569828778 -0.07157751456295822 0 -0.034084257893322235 0 0
          -0.27603786916044915 0.29946253987786176 0 0.3275302801924222 0 0
          0.09479071246935206 -0.12985559051155407 0 0.06253088713465071 0 0
          0.38484383640579456 -0.4018764537184919 0 0.5082732870779308 0 0
          0.12890896648506403 -0.14032409750385738 0 0.3153978527542975 0 0
          0.009454234015625639 -0.011717852710216884 0 0.004272515057976406 0 0
          -0.32596790692471506 0.32141543483424206 0 0.6977966941877104 0 0
          -0.269712814395801 0.2937940210429282 0 0.7013952553667772 0 0
          0.15115850413362988 -0.1478280602672949 0 -0.29931466872597834 0 0
          0.23114271812925455 -0.20540064583864326 0 -0.5349147782964152 0 0
          -0.12660799044657223 0.06672872123495208 0 -0.580306392969478 0 0
          -0.18656012430648267 0.1882105254641202 0 -0.3435135257468685 0 0
          0.018747575879385307 -0.028554229913522945 0 0.011728697853011075 0 0
          0.38582407285431247 -0.3979209935200446 0 0.3584628135344742 0 0
          0.012196751709838864 -0.010158500883864392 0 -0.00579329041285266 0 0
          -0.23602602385391294 0.2398161357000521 0 0.06622160942301106 0 0
          0.07421862923049836 -0.06984012520114236 0 0.20514812022085227 0 0
          0.1358270768247133 -0.1416923943816647 0 -0.002746772401506583 0 0
          -0.3992570582325807 0.4396905573391493 0 0.29684226921694756 0 0
          -0.038594219802493765 0.0376402012199321 0 -0.06736418652823348 0 0
          0.11609691269386813 -0.12195775955538175 0 -0.004482290781318149 0 0
          0.14711197299948287 -0.13017033644120282 0 -0.05783778728422807 0 0
          0.056286313899338525 -0.05797887887703792 0 0.07316563212491498 0 0
          -0.04047352191147287 0.04142184867078096 0 -0.0792877855917194 0 0
          -0.16860426937550768 0.15912375826820574 0 0.029230355747564607 0 0
          -0.04569754749166965 0.0515818980683839 0 -0.08093780391332754 0 0
          -0.1528137940246845 0.16195341667910182 0 -0.07511777454224049 0 0
          -0.01597518539284072 0.008569848863061693 0 0.12987560312962973 0 0
          0.23135823927507718 -0.22277014102442474 0 0.10593817169248036 0 0
          -0.01488974461012314 0.0062298411283011855 0 -0.17227939746262474 0 0
          0.21426011234554104 -0.22225736536698942 0 0.027807500008901774 0 0
          0.08489331387791808 -0.08421530339133128 0 -0.00613837386176587 0 0
          -0.06839461212515155 0.06450718604842386 0 -0.05007984948344757 0 0
          0.005254420961739111 -0.017907907166773897 0 -0.10741854093618818 0 0
          -0.016436094279235237 0.011150487532783353 0 -0.03686850907639004 0 0
          0.09496224149217704 -0.07500638792554527 0 -0.037730826999643224 0 0
          -0.16610862801950865 0.1649329327008652 0 0.04864028791908695 0 0
          0.022435828391851133 -0.02097506113893168 0 -0.026262270950135464 0 0
          -0.08952745951429823 0.08511868955589567 0 0.002267938783432774 0 0
          -0.03852702109185963 0.02890595198018224 0 -0.15306212645838405 0 0
          -0.03514675941335324 0.035013403370667495 0 -0.019160796034234658 0 0
          -0.05388130140297021 0.06521151370360338 0 0.07950939343556739 0 0
          -0.03724566347038723 0.043144940099691415 0 -0.009047580724334819 0 0
          0.07320239192448691 -0.0702637050107104 0 0.0006751932475265506 0 0
          0.04431438754849978 -0.04004134626515704 0 0.08584435276020602 0 0
          0.03638986939695422 -0.039105003712088984 0 -0.020258868266117953 0 0
          -0.03669646075021606 0.03873407048206865 0 0.043043045665372794 0 0
          0.10731749184707264 -0.11649260738755626 0 -0.007601996898968665 0 0
          -0.0018455885595392305 -0.0022209462931462227 0 -0.02105409539505801 0 0
          -0.12362796000465007 0.12481493505761669 0 0.0355475480644324 0 0
          0.01494489518778463 -0.014427766775064986 0 0.029403054301126278 0 0
          -0.07852919298699128 0.07983567474435832 0 -0.08719850638999821 0 0
          0.08564881364060176 -0.08503152844728704 0 0.25612621173872135 0 0
          0.02756031868870977 -0.02993463012643291 0 0.044859113937447334 0 0
          0.0521329549872535 -0.055480003614742826 0 0.054926556667151474 0 0
          0.023229584771171676 -0.024100089506914335 0 0.06002783801673175 0 0
          -0.023046641644610438 0.027476494296017808 0 0.04755926287298206 0 0
          -0.0666797677229572 0.06279378532316053 0 0.04680540205498121 0 0
          -0.21016478762091764 0.21745922404101506 0 -0.02672502692541717 0 0
          0.01098052800308876 -0.0093324972967987 0 0.0077217847746842705 0 0
          0.00021576417620797016 -0.0010947813131679332 0 0.003042289499931693 0 0
          -0.011065441016642618 0.013992305441149724 0 0.030672249067220082 0 0
          -0.09735579073540311 0.09279694908181227 0 0.019269618815316917 0 0
          0.00004787748163737667 0.0033388692220203187 0 0.04974802951191832 0 0
          0.009126528048390432 -0.012627362224063481 0 0.09958497557412103 0 0
          -0.00877770773213284 0.009064305701444179 0 0.060699406253173854 0 0
          -0.003709384147641763 0.013058748763269484 0 0.019670812330734366 0 0
          -0.02049147974120493 0.019904195984321065 0 0.01142537841185496 0 0
          -0.0074832333489187886 0.006927247393131322 0 -0.002658694149347776 0 0
          -0.010787869898011178 0.003930925474401492 0 -0.20474005148299948 0 0
          -0.12889062221061584 0.11286357832842125 0 -0.22443501348164832 0 0
          -0.35280270610692027 0.35664257927564313 0 0.20731360386438158 0 0
          0.0521390493893884 -0.05479396109625409 0 -0.08226514563987208 0 0
          0.10048880359176157 -0.10847370678869483 0 0.02793321982134349 0 0
          -0.03845098828242962 0.03964026272370357 0 0.028139531777650988 0 0
          -0.14016227120556202 0.13080216011192852 0 -0.3858936503316283 0 0
          -0.332395105146125 0.3536597055357076 0 0.22616259389442162 0 0
          <InformationKey name="L2_NORM_RANGE" location="vtkDataArray" length="2">
            <Value index="0">
              0.0032404668961
            </Value>
            <Value index="1">
              1.0272190374
            </Value>
          </InformationKey>
        </DataArray>
        <DataArray type="Float64" Name="ALEdispl" NumberOfComponents="3" format="ascii" RangeMin="0" RangeMax="0">
          0 0 0 0 0 0
          0 0 0 0 0 0
          0 0 0 0 0 0
          0 0 0 0 0 0
          0 0 0 0 0 0
          0 0 0 0 0 0
          0 0 0 0 0 0
          0 0 0 0 0 0
          0 0 0 0 0 0
          0 0 0 0 0 0
          0 0 0 0 0 0
          0 0 0 0 0 0
          0 0 0 0 0 0
          0 0 0 0 0 0
          0 0 0 0 0 0
          0 0 0 0 0 0
          0 0 0 0 0 0
          0 0 0 0 0 0
          0 0 0 0 0 0
          0 0 0 0 0 0
          0 0 0 0 0 0
          0 0 0 0 0 0
          0 0 0 0 0 0
          0 0 0 0 0 0
          0 0 0 0 0 0
          0 0 0 0 0 0
          0 0 0 0 0 0
          0 0 0 0 0 0
          0 0 0 0 0 0
          0 0 0 0 0 0
          0 0 0 0 0 0
          0 0 0 0 0 0
          0 0 0 0 0 0
          0 0 0 0 0 0
          0 0 0 0 0 0
          0 0 0 0 0 0
          0 0 0 0 0 0
          0 0 0 0 0 0
          0 0 0 0 0 0
          0 0 0 0 0 0
          0 0 0 0 0 0
          0 0 0 0 0 0
          0 0 0 0 0 0
          0 0 0 0 0 0
          0 0 0 0 0 0
          0 0 0 0 0 0
          0 0 0 0 0 0
          <InformationKey name="L2_NORM_RANGE" location="vtkDataArray" length="2">
            <Value index="0">
              0
            </Value>
            <Value index="1">
              0
            </Value>
          </InformationKey>
        </DataArray>
        <DataArray type="Float64" Name="ALEveloc" NumberOfComponents="3" format="ascii" RangeMin="0" RangeMax="0">
          0 0 0 0 0 0
          0 0 0 0 0 0
          0 0 0 0 0 0
          0 0 0 0 0 0
          0 0 0 0 0 0
          0 0 0 0 0 0
          0 0 0 0 0 0
          0 0 0 0 0 0
          0 0 0 0 0 0
          0 0 0 0 0 0
          0 0 0 0 0 0
          0 0 0 0 0 0
          0 0 0 0 0 0
          0 0 0 0 0 0
          0 0 0 0 0 0
          0 0 0 0 0 0
          0 0 0 0 0 0
          0 0 0 0 0 0
          0 0 0 0 0 0
          0 0 0 0 0 0
          0 0 0 0 0 0
          0 0 0 0 0 0
          0 0 0 0 0 0
          0 0 0 0 0 0
          0 0 0 0 0 0
          0 0 0 0 0 0
          0 0 0 0 0 0
          0 0 0 0 0 0
          0 0 0 0 0 0
          0 0 0 0 0 0
          0 0 0 0 0 0
          0 0 0 0 0 0
          0 0 0 0 0 0
          0 0 0 0 0 0
          0 0 0 0 0 0
          0 0 0 0 0 0
          0 0 0 0 0 0
          0 0 0 0 0 0
          0 0 0 0 0 0
          0 0 0 0 0 0
          0 0 0 0 0 0
          0 0 0 0 0 0
          0 0 0 0 0 0
          0 0 0 0 0 0
          0 0 0 0 0 0
          0 0 0 0 0 0
          0 0 0 0 0 0
          <InformationKey name="L2_NORM_RANGE" location="vtkDataArray" length="2">
            <Value index="0">
              0
            </Value>
            <Value index="1">
              0
            </Value>
          </InformationKey>
        </DataArray>
      </PointData>
      <CellData>
        <DataArray type="UInt8" Name="vtkGhostType" format="ascii" RangeMin="0" RangeMax="1">
          0 0 0 0 0 0
          0 0 1 0 0 1
          0 1 0 0 1 1
          1 0 0 0 0 0
          1 1 0 1 1 0
          1 1 0 1 0 0
          0 0 0 0 0 0
          0 0 0 0 0 0
          0 0 0 0 0 0
          0 0 0 0 0 0
          0 0 0 0 0 0
          0 0 0 0 0 0
          0 0 0 0 0 0
          0 0 0 0 0 0
          0 1 0 0 0 0
          0 0 0 1 0 0
          0 0 0 0 0 1
          0 0 0 0 0 0
          0 0 0 0 0 0
          0 0 0 0 0 0
          0 0 0 0 0 0
          0 0 0 0 0 0
          0 1 0 0 0 0
          0 0 0 0 0 0
          0 0 0 0 0 0
        </DataArray>
        <DataArray type="Float64" Name="PStrain" NumberOfComponents="6" format="ascii" RangeMin="0.1732050807568877" RangeMax="0.1732050807568877">
          0.09999999999999999 0.09999999999999999 0 0.09999999999999999 0 0
          0.09999999999999999 0.09999999999999999 0 0.09999999999999999 0 0
          0.09999999999999999 0.09999999999999999 0 0.09999999999999999 0 0
          0.09999999999999999 0.09999999999999999 0 0.09999999999999999 0 0
          0.09999999999999999 0.09999999999999999 0 0.09999999999999999 0 0
          0.09999999999999999 0.09999999999999999 0 0.09999999999999999 0 0
          0.09999999999999999 0.09999999999999999 0 0.09999999999999999 0 0
          0.09999999999999999 0.09999999999999999 0 0.09999999999999999 0 0
          0.09999999999999999 0.09999999999999999 0 0.09999999999999999 0 0
          0.09999999999999999 0.09999999999999999 0 0.09999999999999999 0 0
          0.09999999999999999 0.09999999999999999 0 0.09999999999999999 0 0
          0.09999999999999999 0.09999999999999999 0 0.09999999999999999 0 0
          0.09999999999999999 0.09999999999999999 0 0.09999999999999999 0 0
          0.09999999999999999 0.09999999999999999 0 0.09999999999999999 0 0
          0.09999999999999999 0.09999999999999999 0 0.09999999999999999 0 0
          0.09999999999999999 0.09999999999999999 0 0.09999999999999999 0 0
          0.09999999999999999 0.09999999999999999 0 0.09999999999999999 0 0
          0.09999999999999999 0.09999999999999999 0 0.09999999999999999 0 0
          0.09999999999999999 0.09999999999999999 0 0.09999999999999999 0 0
          0.09999999999999999 0.09999999999999999 0 0.09999999999999999 0 0
          0.09999999999999999 0.09999999999999999 0 0.09999999999999999 0 0
          0.09999999999999999 0.09999999999999999 0 0.09999999999999999 0 0
          0.09999999999999999 0.09999999999999999 0 0.09999999999999999 0 0
          0.09999999999999999 0.09999999999999999 0 0.09999999999999999 0 0
          0.09999999999999999 0.09999999999999999 0 0.09999999999999999 0 0
          0.09999999999999999 0.09999999999999999 0 0.09999999999999999 0 0
          0.09999999999999999 0.09999999999999999 0 0.09999999999999999 0 0
          0.09999999999999999 0.09999999999999999 0 0.09999999999999999 0 0
          0.09999999999999999 0.09999999999999999 0 0.09999999999999999 0 0
          0.09999999999999999 0.09999999999999999 0 0.09999999999999999 0 0
          0.09999999999999999 0.09999999999999999 0 0.09999999999999999 0 0
          0.09999999999999999 0.09999999999999999 0 0.09999999999999999 0 0
          0.09999999999999999 0.09999999999999999 0 0.09999999999999999 0 0
          0.09999999999999999 0.09999999999999999 0 0.09999999999999999 0 0
          0.09999999999999999 0.09999999999999999 0 0.09999999999999999 0 0
          0.09999999999999999 0.09999999999999999 0 0.09999999999999999 0 0
          0.09999999999999999 0.09999999999999999 0 0.09999999999999999 0 0
          0.09999999999999999 0.09999999999999999 0 0.09999999999999999 0 0
          0.09999999999999999 0.09999999999999999 0 0.09999999999999999 0 0
          0.09999999999999999 0.09999999999999999 0 0.09999999999999999 0 0
          0.09999999999999999 0.09999999999999999 0 0.09999999999999999 0 0
          0.09999999999999999 0.09999999999999999 0 0.09999999999999999 0 0
          0.09999999999999999 0.09999999999999999 0 0.09999999999999999 0 0
          0.09999999999999999 0.09999999999999999 0 0.09999999999999999 0 0
          0.09999999999999999 0.09999999999999999 0 0.09999999999999999 0 0
          0.09999999999999999 0.09999999999999999 0 0.09999999999999999 0 0
          0.09999999999999999 0.09999999999999999 0 0.09999999999999999 0 0
          0.09999999999999999 0.09999999999999999 0 0.09999999999999999 0 0
          0.09999999999999999 0.09999999999999999 0 0.09999999999999999 0 0
          0.09999999999999999 0.09999999999999999 0 0.09999999999999999 0 0
          0.09999999999999999 0.09999999999999999 0 0.09999999999999999 0 0
          0.09999999999999999 0.09999999999999999 0 0.09999999999999999 0 0
          0.09999999999999999 0.09999999999999999 0 0.09999999999999999 0 0
          0.09999999999999999 0.09999999999999999 0 0.09999999999999999 0 0
          0.09999999999999999 0.09999999999999999 0 0.09999999999999999 0 0
          0.09999999999999999 0.09999999999999999 0 0.09999999999999999 0 0
          0.09999999999999999 0.09999999999999999 0 0.09999999999999999 0 0
          0.09999999999999999 0.09999999999999999 0 0.09999999999999999 0 0
          0.09999999999999999 0.09999999999999999 0 0.09999999999999999 0 0
          0.09999999999999999 0.09999999999999999 0 0.09999999999999999 0 0
          0.09999999999999999 0.09999999999999999 0 0.09999999999999999 0 0
          0.09999999999999999 0.09999999999999999 0 0.09999999999999999 0 0
          0.09999999999999999 0.09999999999999999 0 0.09999999999999999 0 0
          0.09999999999999999 0.09999999999999999 0 0.09999999999999999 0 0
          0.09999999999999999 0.09999999999999999 0 0.09999999999999999 0 0
          0.09999999999999999 0.09999999999999999 0 0.09999999999999999 0 0
          0.09999999999999999 0.09999999999999999 0 0.09999999999999999 0 0
          0.09999999999999999 0.09999999999999999 0 0.09999999999999999 0 0
          0.09999999999999999 0.09999999999999999 0 0.09999999999999999 0 0
          0.09999999999999999 0.09999999999999999 0 0.09999999999999999 0 0
          0.09999999999999999 0.09999999999999999 0 0.09999999999999999 0 0
          0.09999999999999999 0.09999999999999999 0 0.09999999999999999 0 0
          0.09999999999999999 0.09999999999999999 0 0.09999999999999999 0 0
          0.09999999999999999 0.09999999999999999 0 0.09999999999999999 0 0
          0.09999999999999999 0.09999999999999999 0 0.09999999999999999 0 0
          0.09999999999999999 0.09999999999999999 0 0.09999999999999999 0 0
          0.09999999999999999 0.09999999999999999 0 0.09999999999999999 0 0
          0.09999999999999999 0.09999999999999999 0 0.09999999999999999 0 0
          0.09999999999999999 0.09999999999999999 0 0.09999999999999999 0 0
          0.09999999999999999 0.09999999999999999 0 0.09999999999999999 0 0
          0.09999999999999999 0.09999999999999999 0 0.09999999999999999 0 0
          0.09999999999999999 0.09999999999999999 0 0.09999999999999999 0 0
          0.09999999999999999 0.09999999999999999 0 0.09999999999999999 0 0
          0.09999999999999999 0.09999999999999999 0 0.09999999999999999 0 0
          0.09999999999999999 0.09999999999999999 0 0.09999999999999999 0 0
          0.09999999999999999 0.09999999999999999 0 0.09999999999999999 0 0
          0.09999999999999999 0.09999999999999999 0 0.09999999999999999 0 0
          0.09999999999999999 0.09999999999999999 0 0.09999999999999999 0 0
          0.09999999999999999 0.09999999999999999 0 0.09999999999999999 0 0
          0.09999999999999999 0.09999999999999999 0 0.09999999999999999 0 0
          0.09999999999999999 0.09999999999999999 0 0.09999999999999999 0 0
          0.09999999999999999 0.09999999999999999 0 0.09999999999999999 0 0
          0.09999999999999999 0.09999999999999999 0 0.09999999999999999 0 0
          0.09999999999999999 0.09999999999999999 0 0.09999999999999999 0 0
          0.09999999999999999 0.09999999999999999 0 0.09999999999999999 0 0
          0.09999999999999999 0.09999999999999999 0 0.09999999999999999 0 0
          0.09999999999999999 0.09999999999999999 0 0.09999999999999999 0 0
          0.09999999999999999 0.09999999999999999 0 0.09999999999999999 0 0
          0.09999999999999999 0.09999999999999999 0 0.09999999999999999 0 0
          0.09999999999999999 0.09999999999999999 0 0.09999999999999999 0 0
          0.09999999999999999 0.09999999999999999 0 0.09999999999999999 0 0
          0.09999999999999999 0.09999999999999999 0 0.09999999999999999 0 0
          0.09999999999999999 0.09999999999999999 0 0.09999999999999999 0 0
          0.09999999999999999 0.09999999999999999 0 0.09999999999999999 0 0
          0.09999999999999999 0.09999999999999999 0 0.09999999999999999 0 0
          0.09999999999999999 0.09999999999999999 0 0.09999999999999999 0 0
          0.09999999999999999 0.09999999999999999 0 0.09999999999999999 0 0
          0.09999999999999999 0.09999999999999999 0 0.09999999999999999 0 0
          0.09999999999999999 0.09999999999999999 0 0.09999999999999999 0 0
          0.09999999999999999 0.09999999999999999 0 0.09999999999999999 0 0
          0.09999999999999999 0.09999999999999999 0 0.09999999999999999 0 0
          0.09999999999999999 0.09999999999999999 0 0.09999999999999999 0 0
          0.09999999999999999 0.09999999999999999 0 0.09999999999999999 0 0
          0.09999999999999999 0.09999999999999999 0 0.09999999999999999 0 0
          0.09999999999999999 0.09999999999999999 0 0.09999999999999999 0 0
          0.09999999999999999 0.09999999999999999 0 0.09999999999999999 0 0
          0.09999999999999999 0.09999999999999999 0 0.09999999999999999 0 0
          0.09999999999999999 0.09999999999999999 0 0.09999999999999999 0 0
          0.09999999999999999 0.09999999999999999 0 0.09999999999999999 0 0
          0.09999999999999999 0.09999999999999999 0 0.09999999999999999 0 0
          0.09999999999999999 0.09999999999999999 0 0.09999999999999999 0 0
          0.09999999999999999 0.09999999999999999 0 0.09999999999999999 0 0
          0.09999999999999999 0.09999999999999999 0 0.09999999999999999 0 0
          0.09999999999999999 0.09999999999999999 0 0.09999999999999999 0 0
          0.09999999999999999 0.09999999999999999 0 0.09999999999999999 0 0
          0.09999999999999999 0.09999999999999999 0 0.09999999999999999 0 0
          0.09999999999999999 0.09999999999999999 0 0.09999999999999999 0 0
          0.09999999999999999 0.09999999999999999 0 0.09999999999999999 0 0
          0.09999999999999999 0.09999999999999999 0 0.09999999999999999 0 0