<?xml version="1.0"?>
<VTKFile type="UnstructuredGrid" version="0.1" byte_order="LittleEndian" header_type="UInt32" compressor="vtkZLibDataCompressor">
  <UnstructuredGrid>
    <Piece NumberOfPoints="94" NumberOfCells="150">
      <PointData>
        <DataArray type="Float64" Name="Velocity" NumberOfComponents="3" format="ascii" RangeMin="0" RangeMax="3.8783068709381485">
          1.0913374231003548 0 0 1.3535777074937123 -0.12060446121835286 0
          1.644165534309887 -0.3666248631958418 0 1.6440980865117296 0 0
          1.6318838324231142 -1.0046146508875187 0 1.3505585815411463 -0.3462598972589868 0
          2.2403725562726082 -0.17714351438681789 0 2.7256516066988556 -1.1163153759047864 0
          2.830523499974058 -0.5371378905167431 0 1.7071068935344342 0 0
          2.9688190812674176 -0.28531034938473065 0 1.8782014418579316 -0.12450169167928492 0
          2.201473786004749 0.23046099822165592 0 1.96587693447128 0.8719873770903839 0
          3.3190555191150652 0.6652492487057509 0 2.7989422027698265 0.4200404855874582 0
          0.6471221295582207 2.3343678930659078 0 1.9117444247509696 -0.33519271483826224 0
          1.5977606535241375 0.35690237776067785 0 2.9739223893437243 0.3273585489565678 0
          0 0 0 2.7510480380781654 0.31901517428098203 0
          1.783233594465949 0.18795267015241043 0 0 0 0
          2.7256771912049325 0.8954649295028123 0 2.086330889721571 0.3007597254008179 0
          2.1230138647258032 0.7449066053572141 0 0 0 0
          0 0 0 2.115888032652255 0.4117885954256676 0
          1.6751670714811242 2.22232324455101 0 1.7783616113571477 0 0
          0 0 0 0 0 0
          2.3275219648477736 0.9256491463746703 0 0.8857588794969526 1.8805096252067957 0
          1.8337368919084616 0.43456044349144285 0 0 0 0
          1.7453282939952932 0.8429598541215139 0 1.4425412540568823 0.8511924178349997 0
          0 0 0 0.8516115304970686 1.4113053909148052 0
          0.21366631467205327 -0.4149237126884219 0 0 0 0
          1.3490845056403595 1.314315618672718 0 1.6436715473032995 1.2423096157569187 0
          0.8034666124471102 0.7687910825396111 0 1.7937618214422666 1.0764042182890323 0
          1.4817297724566456 0.2357678278813617 0 -0.2715581492170357 -0.13007904501418763 0
          1.4135364654167848 1.498715567256225 0 0.8377596341436264 1.3749084140559247 0
          1.4526937247192013 0.959825852714461 0 0.7850224317530575 1.375961685913902 0
          0.4386454520052012 0 0 0.9847391322371271 1.2175409619224067 0
          1.2406532494134181 1.189289071665802 0 0.0057107041955228 0.047393272700438256 0
          0.8735438514198384 1.0664244742828588 0 -0.41285685659202714 0.1534877112697788 0
          1.2191376674060275 0.8052559356528071 0 1.518330253534427 1.2542523309956037 0
          1.1376220321765251 0 0 1.3435665580939506 1.3061816190348714 0
          0.4266726045179448 0 0 1.042755503222486 0.8448282982284214 0
          0.5615118642469716 0.6480059128727125 0 1.0363491905005977 0.20132135527728492 0
          0.1902019826023763 0.040939250136797174 0 -0.5375802370684511 0 0
          1.040238008740942 0.18585227716146907 0 1.002956144771598 0.48256637624528287 0
          1.1084427595661808 0.8739976064098929 0 1.023523999724359 0.893198270718949 0
          0.719182144720028 0.8006097897051357 0 0.4501009978641769 0 0
          1 0 0 1 0 0
          1 0 0 0.8593472070576561 0 0
          1 0 0 1 0 0
          1 0 0 1 0 0
          1.2732738440044067 -0.22710565011653627 0 1.071847376910221 0 0
          1.595052748301938 0.4663530642588424 0 2.9889865394207984 -2.471279760028664 0
          2.695913063224775 -1.8151686464552905 0 1.2991821788590023 -0.8144009286048433 0
          1.5575085865156024 -0.7564736635731496 0 1.2906392639054696 -0.6045024600269628 0
          -1.0619008494518163 1.2827549578024469 0 0 0 0
          <InformationKey name="L2_NORM_RANGE" location="vtkDataArray" length="2">
            <Value index="0">
              0
            </Value>
            <Value index="1">
              3.8783068709
            </Value>
          </InformationKey>
        </DataArray>
        <DataArray type="Float64" Name="Pressure" format="ascii" RangeMin="-16.951387957252752" RangeMax="4.75180861488632">
          0.3622805980786659 0.029464054011793805 -0.017849965857742123 -0.22532189587179952 -1.0384765643123128 0.6323440485453731
          -0.08775651672786511 -1.9256085780996766 -3.7686593110377364 0.6692198042172985 -2.5977832941783183 -0.36559776395513477
          -0.43976669574439486 -8.578828459758078 -5.620789139272036 -1.743072421925486 -10.46088981856734 -0.3636589979865048
          -5.107346089908763 -3.8968748413766363 -6.663164346680277 -1.9199335548926526 0.7525482419545062 -6.054587460439503
          -8.16778454563751 -0.2879782902593737 -0.20053665658933828 -2.4092254094853804 2.4390842052987556 -0.125136756019543
          -2.862961778112558 1.0047415453131128 3.009560648570718 2.8773334858676156 -1.1974681325233332 -0.06063690864988175
          1.1266658590533316 3.344259365604411 0.6861867294384582 1.1051189223164446 3.6352281708002634 1.8105164002388436
          2.6919099984013104 3.7201889746380075 1.2640216796460342 0.5287553270625525 2.615430468430369 1.1026505698818574
          1.6478917686471983 3.055451070332314 0.9966346065457432 1.9583662166279747 2.093589394667536 2.44605852925551
          3.7716134391063534 2.7945329826643652 2.0503769048801317 3.8226566319568693 3.0048659818171473 3.6213144284555456
          2.0305750557979354 1.5047083592998325 2.2014887547796382 2.1017371178623656 3.798816604769979 3.1655431643116265
          3.9701858882523915 2.1221958446424645 4.112578546694172 4.222669739534444 2.2616197824539155 2.8479930365844375
          3.2613711358534996 3.846908357692886 4.247185026556532 4.666163423158194 2.076301755125832 2.1821298930571444
          2.4424318045534736 4.75180861488632 2.943809560075663 3.7568798969991617 4.340726987640955 4.407784425171487
          -0.020457281237772906 -0.05136960389934181 -16.951387957252752 -11.622993747115526 -3.911056276619131 -0.004007609980864274
          -0.5392451630275223 -0.2653487318556485 -11.594036242239865 -3.4480779930641017
        </DataArray>
        <DataArray type="Float64" Name="BTraction" NumberOfComponents="3" format="ascii" RangeMin="0" RangeMax="5.674475932856038">
          -0.0058449840501675525 -0.1758614126436786 0 0 0 0
          0 0 0 0.023948968808105982 -0.0009140411403640192 0
          0 0 0 0 0 0
          0 0 0 0 0 0
          0 0 0 0.008993267470332265 -0.5705522879778393 0
          0 0 0 0 0 0
          0 0 0 0 0 0
          0 0 0 0 0 0
          0 0 0 0 0 0
          0 0 0 0 0 0
          -3.9564591705398082 -2.2721100069271083 0 0 0 0
          0 0 0 -5.6619309108120355 -0.3771146692368281 0
          0 0 0 0 0 0
          0 0 0 0.40835170145025834 -1.8374706356825838 0
          -2.0048327252886713 -0.2338765765390516 0 0 0 0
          0 0 0 -0.002181633081541584 -1.1729175110104295 0
          -3.057266068278679 -0.0005841686191780528 0 -2.9472485595554576 0.10767273991968304 0
          0 0 0 0 0 0
          0 0 0 -3.237050158912837 0.010305219492042609 0
          0 0 0 0 0 0
          -3.628724297776316 -0.061022568232799675 0 0 0 0
          0 0 0 -1.8158726127844658 1.8427629944565609 0
          0 0 0 0 0 0
          0 0 0 0 0 0
          0 0 0 0 0 0
          0 0 0 0 0 0
          0 0 0 0 0 0
          0.02432319540287588 3.77038603224859 0 0 0 0
          0 0 0 0 0 0
          0 0 0 0 0 0
          0 0 0 0 0 0
          -0.006880328721863989 -2.0165230098828197 0 0 0 0
          -0.030516579868319228 3.946078612965712 0 0 0 0
          0 0 0 0 0 0
          0 0 0 -0.11814199858570255 4.241881540359977 0
          0 0 0 0 0 0
          0 0 0 0 0 0
          0 0 0 -0.026469618016183357 4.465874155294367 0
          1.0516820703936238 -1.0715779376758345 0 2.20253310888446 -0.009666235000393384 0
          2.4829210525576624 -0.03150902520151251 0 -0.012464508931543553 4.596288502343256 0
          2.982236176319255 -0.043764425173162806 0 3.7019806447992827 -0.05664775169518906 0
          4.252484185633924 -0.04042910261022496 0 2.5311897015087523 1.8821100482033308 0
          0 0 0 -0.003180439501237102 -0.007758388386885193 0
          0 0 0 0 0 0
          0 0 0 0 0 0
          0 0 0 0 0 0
          0 0 0 -3.3837050476031543 -0.2732012004987673 0
          <InformationKey name="L2_NORM_RANGE" location="vtkDataArray" length="2">
            <Value index="0">
              0
            </Value>
            <Value index="1">
              5.6744759329
            </Value>
          </InformationKey>
        </DataArray>
        <DataArray type="Float64" Name="Sigma" NumberOfComponents="6" format="ascii" RangeMin="0.005682962946510252" RangeMax="0.6649449112829798">
          -0.01962297000294212 0.020861196306282095 0 -0.018653958007328386 0 0
          -0.023875846562421744 0.024742446392876635 0 0.004418411352955976 0 0
          -0.053028972886493775 0.05038295407948447 0 -0.016267070041427793 0 0
          -0.027591483831418115 0.02370219900120712 0 0.03944570508616493 0 0
          -0.32205101831442995 0.32280457681207664 0 0.10129336695826316 0 0
          -0.04403549408313238 0.04700715349210246 0 -0.018907683163233484 0 0
          0.019562540394669613 -0.019103478599806663 0 -0.06216177712626873 0 0
          -0.07519155855742374 0.07873882546699201 0 -0.15545355011037673 0 0
          -0.12664333307679576 0.1166131458598637 0 -0.2578159897803906 0 0
          -0.013301527178869002 0.014349986759138945 0 0.004179495297427372 0 0
          -0.07580077579622926 0.06911559794281441 0 -0.3503830504597029 0 0
          -0.04596224613223581 0.04431057422121965 0 -0.04308207552957647 0 0
          -0.03595334967310408 0.03595874769064464 0 -0.1592444057322306 0 0
          0.3821702281045613 -0.3773709894733408 0 -0.1685705117046899 0 0
          0.1052611811781919 -0.10098754796969489 0 0.23140020377555315 0 0
          0.12615137249786768 -0.11706273240470305 0 -0.07469956858904131 0 0
          0.011316599142590408 -0.016798656978374835 0 0.5517782454767857 0 0
          0.016361549776270357 -0.015390498276974716 0 -0.050687324530215294 0 0
          -0.16693646949267238 0.19273942142812606 0 0.5050737635001376 0 0
          0.022858031137867274 -0.03493488063638646 0 -0.027314073782848017 0 0
          0.1818004901713907 -0.1915527665026926 0 0.27067401842682237 0 0
          0.16321002793508513 -0.1706868560967116 0 -0.03210973295654779 0 0
          0.015324698343330837 -0.017305176673775853 0 -0.007760665781262272 0 0
          0.006972067095930373 0.0034205411684398723 0 0.4098874789048087 0 0
          0.0635713750580304 -0.07567895825714593 0 0.29668330220997946 0 0
          0.04688505173566644 -0.04304095066522455 0 -0.14757523561751884 0 0
          0.2244970435375861 -0.2093054360490542 0 -0.3279587822781933 0 0
          -0.30476542829868847 0.280256320324128 0 -0.520313524399882 0 0
          -0.24007105017837055 0.2530852864617796 0 -0.22812331619487536 0 0
          0.06685135611809906 -0.07345914223561092 0 -0.023180090504478057 0 0
          0.08347187010933407 -0.08769206105141292 0 0.38117324325837565 0 0
          0.022761050353980353 -0.020643006346513827 0 -0.0013251341160990587 0 0
          -0.20328119795036706 0.20386347315660833 0 0.009231803473721517 0 0
          0.07251955861544036 -0.06886571860140502 0 0.16204444353737144 0 0
          0.19541583612847113 -0.18860916050300314 0 0.06199307108585802 0 0
          -0.2216004302369991 0.2368644629854119 0 0.2601837486041034 0 0
          0.01728004236043383 -0.01689050672013627 0 -0.06895633665402445 0 0
          0.09348533673324602 -0.09877582855388135 0 -0.011041886811668355 0 0
          0.10696548520096757 -0.10588569893617057 0 -0.08528735875535437 0 0
          0.07054637297934122 -0.06970588128290041 0 -0.04841410794403146 0 0
          -0.04066480900667332 0.04185055072351369 0 -0.07261347581184187 0 0
          -0.1272927319485284 0.12128224703195095 0 -0.023857904775319804 0 0
          -0.07047839846660482 0.07304580107900213 0 -0.09710227893356843 0 0
          -0.12552304202345896 0.13366619546593966 0 -0.06725817068765462 0 0
          -0.04615987133221827 0.03502113148489558 0 0.09968656725738732 0 0
          0.16926975612474565 -0.16685427806618708 0 0.11483076294893747 0 0
          -0.04212751441620448 0.035688045344608815 0 -0.12231241417023903 0 0
          0.185710506369682 -0.1842631926503298 0 0.024782248476863184 0 0
          0.08183313720638849 -0.08232567372997301 0 -0.005668610013816452 0 0
          -0.052231381403703724 0.05016429364033636 0 -0.040581227081085795 0 0
          0.03230438842886757 -0.03520489084283761 0 -0.021848608939115707 0 0
          -0.08642885735259256 0.08349686411910934 0 -0.009925623568319775 0 0
          0.07379438202325637 -0.06339843997556124 0 -0.0716127472699778 0 0
          -0.1762579733682029 0.17610677644079287 0 0.08140931567895043 0 0
          0.012917651872598863 -0.012226412011518167 0 -0.020884344500649937 0 0
          -0.06579589613713047 0.06482541786157589 0 -0.010316827815296314 0 0
          -0.07560664834539647 0.0673155979639503 0 -0.0568089272999489 0 0
          -0.03551134180414934 0.035711584292478615 0 -0.018324905657156228 0 0
          -0.034406097160820756 0.04161414021010855 0 0.07206416825069815 0 0
          -0.04132167759320201 0.04592645671043837 0 -0.00810002113479856 0 0
          0.06470066453526523 -0.06283688089390026 0 0.022803626745093453 0 0
          0.052091082156047096 -0.05091439811886765 0 0.1079549876864097 0 0
          0.03612926565853561 -0.03771317805258061 0 -0.011552743621596284 0 0
          -0.026706590926162992 0.02710188636455945 0 0.04979107308837955 0 0
          0.09045621703333562 -0.09811612541155659 0 0.004052030418965776 0 0
          0.0007969180848204434 -0.00276552262986316 0 -0.03243248646106177 0 0
          -0.11821245560281941 0.11863555627442075 0 0.011657510223886398 0 0
          0.010192555221122486 -0.0095565212783803 0 0.026563881746790294 0 0
          -0.07293853210618766 0.07386942113010583 0 -0.07661707891539651 0 0
          0.05831195637129348 -0.058463492703203154 0 0.1782578847714148 0 0
          0.02556630371482945 -0.02699994350436445 0 0.023798703298537383 0 0
          0.048680324435629495 -0.04992465093328778 0 0.03991271123240296 0 0
          0.030674246653653668 -0.031341098748633354 0 0.07349114991762432 0 0
          -0.023840685589317134 0.026821076624750723 0 0.07606532407255276 0 0
          -0.07222208429363457 0.06970354649991876 0 0.049992908007722076 0 0
          -0.20318823123594956 0.2095502102335151 0 -0.008849102801219498 0 0
          0.008168648736561946 -0.007212207819323204 0 0.006022002015063046 0 0
          0.0020737310270443005 -0.0029478562939437986 0 0.004393842367352088 0 0
          -0.010275594787443 0.011998206017085053 0 0.0364463851882686 0 0
          -0.06941024972070885 0.06547318846960971 0 0.01648459847880283 0 0
          -0.006837585717578118 0.008746272491896257 0 0.040963153096982396 0 0
          0.0039120518862908035 -0.00628654089810193 0 0.06479113070490555 0 0
          0.000053540449828297365 0.00007291880466443485 0 0.03967416302164699 0 0
          -0.022554534210111263 0.02954186167995507 0 0.016887775721794195 0 0
          -0.021711043270091733 0.02150393914208563 0 0.011087593503865747 0 0
          -0.008482605105719408 0.007768442244492907 0 -0.0003921732505192835 0 0
          0.11562464809291832 -0.12440997235038322 0 -0.2045250643117658 0 0
          0.004480208337149044 -0.0011110961517395712 0 -0.36450851720138155 0 0
          -0.308597618333368 0.3124641159152525 0 0.05379932183768759 0 0
          -0.06344204019633302 0.06232003876926242 0 0.027709931518666693 0 0
          0.08616684780438533 -0.08696229916125625 0 0.0010979600939579996 0 0
          -0.048848750834002135 0.0489675320485757 0 0.03381009533201494 0 0
          -0.09840536227735827 0.08135386533343067 0 -0.15932843818804476 0 0
          -0.3912445283397818 0.4075534594729789 0 0.34882386586452097 0 0
          <InformationKey name="L2_NORM_RANGE" location="vtkDataArray" length="2">
            <Value index="0">
              0.0056829629465
            </Value>
            <Value index="1">
              0.66494491128
            </Value>
          </InformationKey>
        </DataArray>
        <DataArray type="Float64" Name="ALEdispl" NumberOfComponents="3" format="ascii" RangeMin="0" RangeMax="0">
          0 0 0 0 0 0
          0 0 0 0 0 0
          0 0 0 0 0 0
          0 0 0 0 0 0
          0 0 0 0 0 0
          0 0 0 0 0 0
          0 0 0 0 0 0
          0 0 0 0 0 0
          0 0 0 0 0 0
          0 0 0 0 0 0
          0 0 0 0 0 0
          0 0 0 0 0 0
          0 0 0 0 0 0
          0 0 0 0 0 0
          0 0 0 0 0 0
          0 0 0 0 0 0
          0 0 0 0 0 0
          0 0 0 0 0 0
          0 0 0 0 0 0
          0 0 0 0 0 0
          0 0 0 0 0 0
          0 0 0 0 0 0
          0 0 0 0 0 0
          0 0 0 0 0 0
          0 0 0 0 0 0
          0 0 0 0 0 0
          0 0 0 0 0 0
          0 0 0 0 0 0
          0 0 0 0 0 0
          0 0 0 0 0 0
          0 0 0 0 0 0
          0 0 0 0 0 0
          0 0 0 0 0 0
          0 0 0 0 0 0
          0 0 0 0 0 0
          0 0 0 0 0 0
          0 0 0 0 0 0
          0 0 0 0 0 0
          0 0 0 0 0 0
          0 0 0 0 0 0
          0 0 0 0 0 0
          0 0 0 0 0 0
          0 0 0 0 0 0
          0 0 0 0 0 0
          0 0 0 0 0 0
          0 0 0 0 0 0
          0 0 0 0 0 0
          <InformationKey name="L2_NORM_RANGE" location="vtkDataArray" length="2">
            <Value index="0">
              0
            </Value>
            <Value index="1">
              0
            </Value>
          </InformationKey>
        </DataArray>
        <DataArray type="Float64" Name="ALEveloc" NumberOfComponents="3" format="ascii" RangeMin="0" RangeMax="0">
          0 0 0 0 0 0
          0 0 0 0 0 0
          0 0 0 0 0 0
          0 0 0 0 0 0
          0 0 0 0 0 0
          0 0 0 0 0 0
          0 0 0 0 0 0
          0 0 0 0 0 0
          0 0 0 0 0 0
          0 0 0 0 0 0
          0 0 0 0 0 0
          0 0 0 0 0 0
          0 0 0 0 0 0
          0 0 0 0 0 0
          0 0 0 0 0 0
          0 0 0 0 0 0
          0 0 0 0 0 0
          0 0 0 0 0 0
          0 0 0 0 0 0
          0 0 0 0 0 0
          0 0 0 0 0 0
          0 0 0 0 0 0
          0 0 0 0 0 0
          0 0 0 0 0 0
          0 0 0 0 0 0
          0 0 0 0 0 0
          0 0 0 0 0 0
          0 0 0 0 0 0
          0 0 0 0 0 0
          0 0 0 0 0 0
          0 0 0 0 0 0
          0 0 0 0 0 0
          0 0 0 0 0 0
          0 0 0 0 0 0
          0 0 0 0 0 0
          0 0 0 0 0 0
          0 0 0 0 0 0
          0 0 0 0 0 0
          0 0 0 0 0 0
          0 0 0 0 0 0
          0 0 0 0 0 0
          0 0 0 0 0 0
          0 0 0 0 0 0
          0 0 0 0 0 0
          0 0 0 0 0 0
          0 0 0 0 0 0
          0 0 0 0 0 0
          <InformationKey name="L2_NORM_RANGE" location="vtkDataArray" length="2">
            <Value index="0">
              0
            </Value>
            <Value index="1">
              0
            </Value>
          </InformationKey>
        </DataArray>
      </PointData>
      <CellData>
        <DataArray type="UInt8" Name="vtkGhostType" format="ascii" RangeMin="0" RangeMax="1">
          0 0 0 0 0 0
          0 0 1 0 0 1
          0 1 0 0 1 1
          1 0 0 0 0 0
          1 1 0 1 1 0
          1 1 0 1 0 0
          0 0 0 0 0 0
          0 0 0 0 0 0
          0 0 0 0 0 0
          0 0 0 0 0 0
          0 0 0 0 0 0
          0 0 0 0 0 0
          0 0 0 0 0 0
          0 0 0 0 0 0
          0 1 0 0 0 0
          0 0 0 1 0 0
          0 0 0 0 0 1
          0 0 0 0 0 0
          0 0 0 0 0 0
          0 0 0 0 0 0
          0 0 0 0 0 0
          0 0 0 0 0 0
          0 1 0 0 0 0
          0 0 0 0 0 0
          0 0 0 0 0 0
        </DataArray>
        <DataArray type="Float64" Name="PStrain" NumberOfComponents="6" format="ascii" RangeMin="0.1732050807568877" RangeMax="0.1732050807568877">
          0.09999999999999999 0.09999999999999999 0 0.09999999999999999 0 0
          0.09999999999999999 0.09999999999999999 0 0.09999999999999999 0 0
          0.09999999999999999 0.09999999999999999 0 0.09999999999999999 0 0
          0.09999999999999999 0.09999999999999999 0 0.09999999999999999 0 0
          0.09999999999999999 0.09999999999999999 0 0.09999999999999999 0 0
          0.09999999999999999 0.09999999999999999 0 0.09999999999999999 0 0
          0.09999999999999999 0.09999999999999999 0 0.09999999999999999 0 0
          0.09999999999999999 0.09999999999999999 0 0.09999999999999999 0 0
          0.09999999999999999 0.09999999999999999 0 0.09999999999999999 0 0
          0.09999999999999999 0.09999999999999999 0 0.09999999999999999 0 0
          0.09999999999999999 0.09999999999999999 0 0.09999999999999999 0 0
          0.09999999999999999 0.09999999999999999 0 0.09999999999999999 0 0
          0.09999999999999999 0.09999999999999999 0 0.09999999999999999 0 0
          0.09999999999999999 0.09999999999999999 0 0.09999999999999999 0 0
          0.09999999999999999 0.09999999999999999 0 0.09999999999999999 0 0
          0.09999999999999999 0.09999999999999999 0 0.09999999999999999 0 0
          0.09999999999999999 0.09999999999999999 0 0.09999999999999999 0 0
          0.09999999999999999 0.09999999999999999 0 0.09999999999999999 0 0
          0.09999999999999999 0.09999999999999999 0 0.09999999999999999 0 0
          0.09999999999999999 0.09999999999999999 0 0.09999999999999999 0 0
          0.09999999999999999 0.09999999999999999 0 0.09999999999999999 0 0
          0.09999999999999999 0.09999999999999999 0 0.09999999999999999 0 0
          0.09999999999999999 0.09999999999999999 0 0.09999999999999999 0 0
          0.09999999999999999 0.09999999999999999 0 0.09999999999999999 0 0
          0.09999999999999999 0.09999999999999999 0 0.09999999999999999 0 0
          0.09999999999999999 0.09999999999999999 0 0.09999999999999999 0 0
          0.09999999999999999 0.09999999999999999 0 0.09999999999999999 0 0
          0.09999999999999999 0.09999999999999999 0 0.09999999999999999 0 0
          0.09999999999999999 0.09999999999999999 0 0.09999999999999999 0 0
          0.09999999999999999 0.09999999999999999 0 0.09999999999999999 0 0
          0.09999999999999999 0.09999999999999999 0 0.09999999999999999 0 0
          0.09999999999999999 0.09999999999999999 0 0.09999999999999999 0 0
          0.09999999999999999 0.09999999999999999 0 0.09999999999999999 0 0
          0.09999999999999999 0.09999999999999999 0 0.09999999999999999 0 0
          0.09999999999999999 0.09999999999999999 0 0.09999999999999999 0 0
          0.09999999999999999 0.09999999999999999 0 0.09999999999999999 0 0
          0.09999999999999999 0.09999999999999999 0 0.09999999999999999 0 0
          0.09999999999999999 0.09999999999999999 0 0.09999999999999999 0 0
          0.09999999999999999 0.09999999999999999 0 0.09999999999999999 0 0
          0.09999999999999999 0.09999999999999999 0 0.09999999999999999 0 0
          0.09999999999999999 0.09999999999999999 0 0.09999999999999999 0 0
          0.09999999999999999 0.09999999999999999 0 0.09999999999999999 0 0
          0.09999999999999999 0.09999999999999999 0 0.09999999999999999 0 0
          0.09999999999999999 0.09999999999999999 0 0.09999999999999999 0 0
          0.09999999999999999 0.09999999999999999 0 0.09999999999999999 0 0
          0.09999999999999999 0.09999999999999999 0 0.09999999999999999 0 0
          0.09999999999999999 0.09999999999999999 0 0.09999999999999999 0 0
          0.09999999999999999 0.09999999999999999 0 0.09999999999999999 0 0
          0.09999999999999999 0.09999999999999999 0 0.09999999999999999 0 0
          0.09999999999999999 0.09999999999999999 0 0.09999999999999999 0 0
          0.09999999999999999 0.09999999999999999 0 0.09999999999999999 0 0
          0.09999999999999999 0.09999999999999999 0 0.09999999999999999 0 0
          0.09999999999999999 0.09999999999999999 0 0.09999999999999999 0 0
          0.09999999999999999 0.09999999999999999 0 0.09999999999999999 0 0
          0.09999999999999999 0.09999999999999999 0 0.09999999999999999 0 0
          0.09999999999999999 0.09999999999999999 0 0.09999999999999999 0 0
          0.09999999999999999 0.09999999999999999 0 0.09999999999999999 0 0
          0.09999999999999999 0.09999999999999999 0 0.09999999999999999 0 0
          0.09999999999999999 0.09999999999999999 0 0.09999999999999999 0 0
          0.09999999999999999 0.09999999999999999 0 0.09999999999999999 0 0
          0.09999999999999999 0.09999999999999999 0 0.09999999999999999 0 0
          0.09999999999999999 0.09999999999999999 0 0.09999999999999999 0 0
          0.09999999999999999 0.09999999999999999 0 0.09999999999999999 0 0
          0.09999999999999999 0.09999999999999999 0 0.09999999999999999 0 0
          0.09999999999999999 0.09999999999999999 0 0.09999999999999999 0 0
          0.09999999999999999 0.09999999999999999 0 0.09999999999999999 0 0
          0.09999999999999999 0.09999999999999999 0 0.09999999999999999 0 0
          0.09999999999999999 0.09999999999999999 0 0.09999999999999999 0 0
          0.09999999999999999 0.09999999999999999 0 0.09999999999999999 0 0
          0.09999999999999999 0.09999999999999999 0 0.09999999999999999 0 0
          0.09999999999999999 0.09999999999999999 0 0.09999999999999999 0 0
          0.09999999999999999 0.09999999999999999 0 0.09999999999999999 0 0
          0.09999999999999999 0.09999999999999999 0 0.09999999999999999 0 0
          0.09999999999999999 0.09999999999999999 0 0.09999999999999999 0 0
          0.09999999999999999 0.09999999999999999 0 0.09999999999999999 0 0
          0.09999999999999999 0.09999999999999999 0 0.09999999999999999 0 0
          0.09999999999999999 0.09999999999999999 0 0.09999999999999999 0 0
          0.09999999999999999 0.09999999999999999 0 0.09999999999999999 0 0
          0.09999999999999999 0.09999999999999999 0 0.09999999999999999 0 0
          0.09999999999999999 0.09999999999999999 0 0.09999999999999999 0 0
          0.09999999999999999 0.09999999999999999 0 0.09999999999999999 0 0
          0.09999999999999999 0.09999999999999999 0 0.09999999999999999 0 0
          0.09999999999999999 0.09999999999999999 0 0.09999999999999999 0 0
          0.09999999999999999 0.09999999999999999 0 0.09999999999999999 0 0
          0.09999999999999999 0.09999999999999999 0 0.09999999999999999 0 0
          0.09999999999999999 0.09999999999999999 0 0.09999999999999999 0 0
          0.09999999999999999 0.09999999999999999 0 0.09999999999999999 0 0
          0.09999999999999999 0.09999999999999999 0 0.09999999999999999 0 0
          0.09999999999999999 0.09999999999999999 0 0.09999999999999999 0 0
          0.09999999999999999 0.09999999999999999 0 0.09999999999999999 0 0
          0.09999999999999999 0.09999999999999999 0 0.09999999999999999 0 0
          0.09999999999999999 0.09999999999999999 0 0.09999999999999999 0 0
          0.09999999999999999 0.09999999999999999 0 0.09999999999999999 0 0
          0.09999999999999999 0.09999999999999999 0 0.09999999999999999 0 0
          0.09999999999999999 0.09999999999999999 0 0.09999999999999999 0 0
          0.09999999999999999 0.09999999999999999 0 0.09999999999999999 0 0
          0.09999999999999999 0.09999999999999999 0 0.09999999999999999 0 0
          0.09999999999999999 0.09999999999999999 0 0.09999999999999999 0 0
          0.09999999999999999 0.09999999999999999 0 0.09999999999999999 0 0
          0.09999999999999999 0.09999999999999999 0 0.09999999999999999 0 0
          0.09999999999999999 0.09999999999999999 0 0.09999999999999999 0 0
          0.09999999999999999 0.09999999999999999 0 0.09999999999999999 0 0
          0.09999999999999999 0.09999999999999999 0 0.09999999999999999 0 0
          0.09999999999999999 0.09999999999999999 0 0.09999999999999999 0 0
          0.09999999999999999 0.09999999999999999 0 0.09999999999999999 0 0
          0.09999999999999999 0.09999999999999999 0 0.09999999999999999 0 0
          0.09999999999999999 0.09999999999999999 0 0.09999999999999999 0 0
          0.09999999999999999 0.09999999999999999 0 0.09999999999999999 0 0
          0.09999999999999999 0.09999999999999999 0 0.09999999999999999 0 0
          0.09999999999999999 0.09999999999999999 0 0.09999999999999999 0 0
          0.09999999999999999 0.09999999999999999 0 0.09999999999999999 0 0
          0.09999999999999999 0.09999999999999999 0 0.09999999999999999 0 0
          0.09999999999999999 0.09999999999999999 0 0.09999999999999999 0 0
          0.09999999999999999 0.09999999999999999 0 0.09999999999999999 0 0
          0.09999999999999999 0.09999999999999999 0 0.09999999999999999 0 0
          0.09999999999999999 0.09999999999999999 0 0.09999999999999999 0 0
          0.09999999999999999 0.09999999999999999 0 0.09999999999999999 0 0
          0.09999999999999999 0.09999999999999999 0 0.09999999999999999 0 0
          0.09999999999999999 0.09999999999999999 0 0.09999999999999999 0 0
          0.09999999999999999 0.09999999999999999 0 0.09999999999999999 0 0
          0.09999999999999999 0.09999999999999999 0 0.09999999999999999 0 0
          0.09999999999999999 0.09999999999999999 0 0.09999999999999999 0 0
          0.09999999999999999 0.09999999999999999 0 0.09999999999999999 0 0
          0.09999999999999999 0.09999999999999999 0 0.09999999999999999 0 0
          0.09999999999999999 0.09999999999999999 0 0.09999999999999999 0 0
          0.09999999999999999 0.09999999999999999 0 0.09999999999999999 0 0
          0.09999999999999999 0.09999999999999999 0 0.09999999999999999 0 0
          0.09999999999999999 0.09999999999999999 0 0.09999999999999999 0 0
          0.09999999999999999 0.09999999999999999 0 0.09999999999999999 0 0