<?xml version="1.0"?>
<VTKFile type="UnstructuredGrid" version="0.1" byte_order="LittleEndian" header_type="UInt32" compressor="vtkZLibDataCompressor">
  <UnstructuredGrid>
    <Piece NumberOfPoints="97" NumberOfCells="154">
      <PointData>
        <DataArray type="Float64" Name="Velocity" NumberOfComponents="3" format="ascii" RangeMin="0" RangeMax="3.3785468243452983">
          0.7185741056207382 0.44848541219209676 0 1.1418549101700004 0 0
          0.8746685638801747 -0.007038337303109025 0 0.951971689289179 0.029215689093956044 0
          1.0531865918503256 0.05348197009928634 0 0.9964071948177337 0 0
          0.7601543451686107 -0.4337253551796832 0 1.060804597881186 0 0
          1.0018351834883081 -0.04030193367255228 0 1.0050079002420516 0.0032958673050664986 0
          0.9975060752374826 0 0 0.9665257469461404 0 0
          1.0069751211376654 0 0 0.9978148759136876 0 0
          0.9972898333077612 0.002043911396773661 0 0.9977923011254529 0.002408550516941209 0
          1.0045016150478208 0 0 0.9940951412176531 0 0
          1.0012889564780627 0.00445948870631273 0 0.9964509040821156 -0.0029369943173179654 0
          0.9998905615025439 -0.0027248048546172554 0 1.016403587351366 0 0
          0.9935121828012045 0 0 0.9997076332363494 0.011115484122746752 0
          0.9972934441104276 -0.02373992304732524 0 1.007350733861594 -0.013243103845795917 0
          1.0265741963142048 0 0 1.0309297204719852 0 0
          0.9733685346308008 -0.009248953801009633 0 1.0243225658391941 -0.08960033570974643 0
          0.9640740663209396 -0.05210429401086641 0 1.0288376752048716 -0.04551972613404179 0
          1.085604150348057 0 0 1.080390238409308 0 0
          1.0568846790010202 -0.17415487508749178 0 0.935103480780068 -0.215568331840729 0
          0.9073859916437101 -0.021249306036663203 0 1.0172975734292835 0 0
          1.2824904621327968 -0.24055631041545145 0 1.0636827843196417 -0.45987862660028733 0
          0.7202816074821067 -0.38430345558819534 0 1.3180117292568048 -0.612828346277556 0
          0.7682636763337696 -0.07803981984610706 0 1.039075965227101 -0.8359077249652579 0
          0.981090279934715 -0.6475904387108637 0 0.6770483605566886 -0.6402849887381767 0
          1.1445028619966768 0 0 1.4699805575892686 -0.7236393239861099 0
          0.4526656455722479 -0.310197753825557 0 1.4862903897344384 -0.7703964711126857 0
          0.9242413130206621 -1.0703342938914582 0 0.734600991624297 -0.031018767718597906 0
          0.46587409585143946 -0.8398252779444307 0 1.550003198426325 -1.4132702566502262 0
          0.5509553989884801 -0.36739040437796433 0 0.45536470864299006 -1.1729322479297117 0
          1.312914161705731 -0.8832250075290227 0 0.17885803354374571 -0.7003716638803014 0
          0.9849084339298615 -2.0083673713805523 0 1.2532588106192464 0 0
          0.18487826695323073 -1.2912968566638265 0 0.3554612712381164 -0.28664475644100174 0
          1.8247323765094354 -2.351385313032667 0 -0.15483110319043997 -0.5588291133541565 0
          0.21901008941617708 -2.513648763753992 0 2.7502171299786253 -1.9623670355633864 0
          -0.11094978500188367 -0.777993785121284 0 1.228733020998044 -2.6477176851531876 0
          -1.176856854701391 -0.9058264514020763 0 2.7447799127795984 -1.8283866033436853 0
          0.6835645001344224 -0.36540655914149 0 -0.42397239783430773 -1.9871413276389176 0
          0.879215063574522 0 0 -0.06503014461423393 -0.32148533568933957 0
          1.3133371497088406 1.011506633429736 0 -0.7681763519296964 -0.7779207546702147 0
          -1.2336299843397378 0.24087028372449948 0 -0.8025083594275422 1.4229412349756752 0
          0.1505650797942418 0 0 0.11244508996532121 -0.2425764853685652 0
          -0.2936969288245812 0.335247677929027 0 -0.010074668973478732 -0.5219834714559011 0
          0 0 0 0.13481103384601023 0 0
          0 0 0 0 0 0
          0 0 0 0 0 0
          1.362805025187127 -0.1315942209743428 0 1.6922097677350982 -0.3796177908135593 0
          1.1003921103401408 0 0 2.060412816802167 0.6905906004555391 0
          3.0736821903924287 0.1627926698369523 0 2.717458858887636 -0.9693459264609573 0
          1.8713777391077882 -1.058816668364125 0 0.5495747924878597 1.8382681591799672 0
          0 0 0
          <InformationKey name="L2_NORM_RANGE" location="vtkDataArray" length="2">
            <Value index="0">
              0
            </Value>
            <Value index="1">
              3.3785468243
            </Value>
          </InformationKey>
        </DataArray>
        <DataArray type="Float64" Name="Pressure" format="ascii" RangeMin="-14.703166948317463" RangeMax="0.35918198153284164">
          0.07277298041520658 -0.15893273340543926 0.09127398002479145 -0.09053202069839725 -0.12119746281721097 -0.07483345785144557
          0.04205606946504936 -0.23016132900526454 -0.09697216211285828 -0.10385673819479373 -0.08417048189292949 -0.08335931938825705
          -0.09942890283246797 -0.08236214529627807 -0.1075230774595406 -0.089108853027558 -0.1067778302907324 -0.0767773552674724
          -0.11320353942386928 -0.08597269011176353 -0.08576033223701936 -0.1265596744500708 -0.05333597972139221 -0.13109653092032209
          -0.09389541229882797 -0.07934845627099545 -0.09294086793556687 -0.049160437346482046 -0.1589710328866906 -0.13106299202451913
          -0.09746273169591962 0.04175374212175625 -0.2823209874503838 -0.08120857663011134 -0.04960922359175811 -0.16537728574384641
          -0.2573212056111611 -0.2967960257863198 -0.058276647629823375 -0.3291398518269085 -0.24296685466221143 -0.3254886719009896
          -0.47232386936963117 -0.756778599593257 -0.12136160973675611 -0.6547115848033448 -0.4860203305487562 -0.9575913203102946
          -0.46075493665773387 -0.3165574675078602 -0.7690991210126846 -0.5988837753786225 -0.8840212926140942 -2.249883389023423
          -0.7951434037960015 -1.2228629109789595 0.013713585346971813 -0.8490526913304242 -2.6277551434145803 -0.9165459666439422
          -1.3855319370567116 -0.5652818045199157 -3.397918954775675 -1.0713228793878955 -4.934135822883109 -3.787595347316798
          -2.175021414116075 -10.606034588776833 -4.009559357420566 -11.072942487193336 -1.3118329671458255 -13.227069319661565
          -0.8918024979811475 -1.654552077683659 -14.703166948317463 -3.125768320951019 -5.924780315170471 -10.266064011949288
          -0.7060025036843369 -1.9482493601170465 -2.6689965570493324 -1.6894206840843726 -2.54231836058009 -0.9106044609331272
          -2.120461223103102 -1.9665925663756871 -1.6086294452501724 -1.3880671102308637 -0.010342973766829633 -0.16391784999199605
          0.35918198153284164 -7.599769881852857 -5.098682685667753 -1.3121565962956456 -1.154937359466821 -7.9357019967143305
          -5.488749131075393
        </DataArray>
        <DataArray type="Float64" Name="BTraction" NumberOfComponents="3" format="ascii" RangeMin="0" RangeMax="5.199903409933676">
          -0.05150370258077574 0.01764227686442922 0 0.006614864683836573 0.11206893730942583 0
          -0.09474454428759357 0.0011401380924389247 0 0 0 0
          0 0 0 0.00208027762350945 0.08932488293662362 0
          -0.03521890926030386 -0.032113056640756935 0 0.005100632584284358 -0.16425663599836002 0
          0 0 0 0 0 0
          0.00010644752389535485 0.08193461153712862 0 -0.0023255322636305414 -0.1088754565971662 0
          -0.000578867751411472 -0.09739853146029138 0 -0.00009534947686715754 0.08184285232724266 0
          0 0 0 0 0 0
          0.0004650245534107259 -0.10875227239039226 0 -0.0001297439226533231 0.07470576572150903 0
          0 0 0 0 0 0
          0 0 0 0.0012139268619887058 -0.119496259904405 0
          -0.0003388900964647288 0.057916667940524684 0 0 0 0
          0 0 0 0 0 0
          0.003008677618810769 -0.12944435275522503 0 5.344097632045756e-7 0.055800389577408675 0
          0 0 0 0 0 0
          0 0 0 0 0 0
          0.009107037541658368 -0.2524897632525175 0 -0.002705762904015506 0.01367901102664374 0
          0 0 0 0 0 0
          0 0 0 0.013977803483678388 -0.330386763020084 0
          0 0 0 0 0 0
          0 0 0 0 0 0
          0 0 0 0 0 0
          0 0 0 0 0 0
          0.037386623344149605 -0.5090293312237252 0 0 0 0
          0 0 0 0 0 0
          0 0 0 0 0 0
          0 0 0 0 0 0
          0 0 0 0 0 0
          0 0 0 0 0 0
          0 0 0 0.054796678068928205 -0.7794648626519899 0
          0 0 0 0 0 0
          0 0 0 0 0 0
          0 0 0 0 0 0
          0 0 0 0 0 0
          0 0 0 0 0 0
          0 0 0 0 0 0
          0.021404477207759263 -0.8054998011678292 0 0 0 0
          0 0 0 0 0 0
          0 0 0 0 0 0
          -0.02825076315469307 -0.6874034864573998 0 0 0 0
          0 0 0 0 0 0
          -2.6818528001459696 -0.2796191964778567 0 -0.0016848650472249293 -0.9024606661036126 0
          -2.116444755287999 0.012791419191464464 0 -1.9564077397706046 0.047442113410156105 0
          -1.6418669696172383 0.021240257250046995 0 -0.7072009161536454 -0.6019155610890355 0
          0 0 0 0 0 0
          -0.005738914733555237 -0.1533838553642734 0 0 0 0
          0 0 0 0 0 0
          0 0 0 0 0 0
          -5.187805046509937 -0.35450567279790784 0
          <InformationKey name="L2_NORM_RANGE" location="vtkDataArray" length="2">
            <Value index="0">
              0
            </Value>
            <Value index="1">
              5.1999034099
            </Value>
          </InformationKey>
        </DataArray>
        <DataArray type="Float64" Name="Sigma" NumberOfComponents="6" format="ascii" RangeMin="0.00007816787453515665" RangeMax="0.6796089098060253">
          -0.03540831831912511 0.03564057013079888 0 0.011895001310289864 0 0
          -0.0003139302514467185 0.0001502154963521653 0 0.006565997027998511 0 0
          -0.008633249215914664 0.008636612131917838 0 0.001231942450480666 0 0
          0.0014770459074809656 -0.0013221037951097422 0 0.0008081708682332128 0 0
          -0.0018670369770552918 0.001759926913130838 0 -0.003279959741608156 0 0
          0.0015451279345299683 -0.0016192193176487102 0 0.0015301986807355296 0 0
          -0.01860098056335596 0.018493474545901962 0 -0.009981942557578982 0 0
          -0.0014948719995712756 0.0019970047639794675 0 -0.006453217408622034 0 0
          -0.0008726681769751174 0.0008463822783378052 0 -0.00044585387302093816 0 0
          -0.0008505663108114564 0.0008394733695934543 0 -0.0004113819819029051 0 0
          0.0001977943480678278 -0.00016108731016664443 0 -0.00020512600988392823 0 0
          0.0026798535027883997 -0.002890243555925785 0 0.005191016686360973 0 0
          0.000311602470821906 -0.00021080034803976723 0 -0.00035765575503861335 0 0
          0.00003206659873558111 -0.0000062929383546129515 0 -0.00007100949782768684 0 0
          0.00011902639844166391 -0.00017443398367195714 0 0.0001037376235878499 0 0
          0.00008989493098329624 -0.00008257623121715252 0 -0.00016451902503558083 0 0
          -0.0002920338206390259 0.00027187270097197305 0 -0.00028718715773768424 0 0
          -0.00006324550516694154 0.00005033498387198575 0 -0.00006768772612316499 0 0
          0.0002822193241351066 -0.00023234637912398923 0 -0.00035332561053336197 0 0
          -0.0002747659393524873 0.00031141867102935143 0 0.00038439353443361034 0 0
          0.00026490693730422645 -0.0003141760508440005 0 0.00022691060760471658 0 0
          -0.0018651496364035544 0.00180739492495667 0 -0.0014007750263267374 0 0
          -0.0015288360068287509 0.0016416244659533932 0 -0.0004918984016519923 0 0
          0.0018822418155766503 -0.001956597403898408 0 -0.00001220671449135929 0 0
          -0.00008836681952307423 0.00017801567219436417 0 0.0017346247867785374 0 0
          -0.0029676154914692237 0.0028765664728856535 0 0.0010510547308016992 0 0
          -0.001614558307880928 0.001817178617744592 0 -0.0015709906583295991 0 0
          0.0009300344813809584 -0.0009599239230518705 0 0.000008782883093439667 0 0
          0.0006676451488851729 -0.0007899142550067494 0 -0.0011678517386228182 0 0
          -0.0002145626802215699 -0.00013887346203272056 0 0.008145205153556592 0 0
          0.005097166552727082 -0.004742090766084866 0 0.005633148418155133 0 0
          -0.00930911701892554 0.009816660698396833 0 0.0017999906163776206 0 0
          -0.00040976649480382226 0.0005698702574394387 0 -0.011234329260743019 0 0
          -0.008832335824878084 0.00807969734240043 0 0.0005272708836563393 0 0
          -0.011715707234344529 0.011959378093613564 0 0.00980020162627174 0 0
          0.0043200451960832935 -0.004486696221220078 0 0.017409589911177463 0 0
          0.012633901064627976 -0.012939948592115677 0 0.0028051356533882496 0 0
          -0.007438307276032509 0.0070408797420886265 0 -0.008649170533287814 0 0
          -0.02240870162985073 0.022368597641552173 0 0.01074984032315176 0 0
          -0.009615124368709 0.009320261303504745 0 0.041686704886556424 0 0
          0.02630013133380753 -0.0253677048027441 0 0.027974469256637345 0 0
          -0.052557985531111996 0.052161740061051134 0 0.036950996802141124 0 0
          0.02818100143295194 -0.027988949070731666 0 -0.013376004151662974 0 0
          0.017386660431618396 -0.019333150130485952 0 0.014398714844974396 0 0
          -0.028455787223618665 0.03049069700997812 0 0.07829240330201198 0 0
          0.06067364717943262 -0.06292387340987936 0 0.12194693776933671 0 0
          -0.0066360769040396134 0.008399945063844068 0 -0.03941299896358885 0 0
          -0.07011504203252411 0.07169321936684256 0 0.07289369149965005 0 0
          0.04636136725931644 -0.04551085699960704 0 0.03364522791840105 0 0
          0.05397039301354434 -0.05204856363796219 0 -0.005819118347458147 0 0
          -0.02122606337384402 0.025377695880995352 0 0.12591179831587143 0 0
          0.0022097765515378467 -0.002369940684225788 0 -0.0019337069008469915 0 0
          0.022028210639857933 -0.02211013820517339 0 0.05211500344974386 0 0
          -0.07834461618335198 0.07161628810107434 0 0.024456092949281857 0 0
          0.09277465366431069 -0.09790447753147281 0 -0.0017169266112571357 0 0
          0.0633447836593335 -0.06490647387543393 0 0.10943377146123368 0 0
          -0.1365309103500848 0.13459339907949008 0 0.10148787649571978 0 0
          0.08254466305926844 -0.08053240924089822 0 0.04928398730997877 0 0
          0.0571937299430664 -0.056351233356965014 0 0.31559440977012415 0 0
          0.070680853766043 -0.07329492628930792 0 -0.06545240607460415 0 0
          0.1421062723731219 -0.14355429494292388 0 0.08712679571530181 0 0
          0.01066848338791862 -0.007342059641390572 0 -0.03587649516887182 0 0
          -0.2575363698890818 0.2610942880506383 0 0.33822939260178836 0 0
          0.029262723912605745 -0.02671976983677483 0 -0.004536336170486428 0 0
          0.280130663968209 -0.27525846712279783 0 0.27704101558097455 0 0
          -0.2763812003784357 0.2802341085994071 0 -0.07576732613703029 0 0
          0.12671690876729552 -0.13165395306223981 0 -0.09150538995698378 0 0
          -0.0898438093665361 0.0881655418888811 0 -0.038050726180453964 0 0
          0.34192782035130026 -0.3370870432052851 0 -0.07883522582090614 0 0
          0.00497018403712024 0.00008668253674844195 0 -0.36147794101598524 0 0
          0.05801282216662933 -0.05794701009891082 0 -0.04841283051534037 0 0
          -0.032900666096993325 0.029177776190225935 0 -0.04231203303171205 0 0
          0.0493235307132018 -0.04969223854150559 0 -0.026324795188266872 0 0
          0.002607481701529821 -0.0001153971574200021 0 -0.03686711619270712 0 0
          0.1567674964845736 -0.163084307266545 0 -0.11421243069004046 0 0
          -0.02622541137419233 0.022365309565718656 0 -0.15836475850758058 0 0
          -0.06764636039170105 0.07349787581348345 0 -0.41321893811535026 0 0
          -0.10524991679823423 0.08582807257865133 0 -0.10382219848828622 0 0
          0.09918056906084358 -0.1007549990807319 0 0.05012315322817169 0 0
          -0.029733965552229166 0.032487996274072124 0 -0.055204595757945 0 0
          -0.08521940990147192 0.08648368614266254 0 -0.07812888563013604 0 0
          0.024964093588301497 -0.028836782809851535 0 -0.03472005590599578 0 0
          -0.4021457951611307 0.4172492524564331 0 0.35503533774330664 0 0
          0.057237308260562676 -0.047801461616278684 0 -0.0029917368153437912 0 0
          0.022118603257076548 -0.030297168117041175 0 -0.09916240404631597 0 0
          0.019059386256070333 -0.020725166662677975 0 -0.04161509776148925 0 0
          0.010202150009662438 -0.007408539074334467 0 -0.013391994031119724 0 0
          -0.02159801524316087 0.007212671236525061 0 -0.03188519054407264 0 0
          -0.02612400749851241 0.027276214978377893 0 0.00548710881274061 0 0
          -0.05435867010741583 0.05155799922459683 0 -0.017259504155824182 0 0
          -0.021017499978433437 0.021925664785307875 0 -0.01904327691426613 0 0
          0.24613053075869618 -0.24324982259671796 0 0.01640476478441283 0 0
          -0.07039141685654607 0.05806638086345925 0 -0.2387766858988057 0 0
          -0.1286924823173018 0.13289292712270723 0 -0.2764083685873071 0 0
          -0.3080261958562368 0.30724457892030355 0 0.1136334833301429 0 0
          0.055047906949841255 -0.05236619989039176 0 0.4723969674077534 0 0
          0.14563451680963457 -0.1326837142805247 0 0.39137000978934394 0 0
          <InformationKey name="L2_NORM_RANGE" location="vtkDataArray" length="2">
            <Value index="0">
              7.8167874535e-05
            </Value>
            <Value index="1">
              0.67960890981
            </Value>
          </InformationKey>
        </DataArray>
        <DataArray type="Float64" Name="ALEdispl" NumberOfComponents="3" format="ascii" RangeMin="0" RangeMax="0">
          0 0 0 0 0 0
          0 0 0 0 0 0
          0 0 0 0 0 0
          0 0 0 0 0 0
          0 0 0 0 0 0
          0 0 0 0 0 0
          0 0 0 0 0 0
          0 0 0 0 0 0
          0 0 0 0 0 0
          0 0 0 0 0 0
          0 0 0 0 0 0
          0 0 0 0 0 0
          0 0 0 0 0 0
          0 0 0 0 0 0
          0 0 0 0 0 0
          0 0 0 0 0 0
          0 0 0 0 0 0
          0 0 0 0 0 0
          0 0 0 0 0 0
          0 0 0 0 0 0
          0 0 0 0 0 0
          0 0 0 0 0 0
          0 0 0 0 0 0
          0 0 0 0 0 0
          0 0 0 0 0 0
          0 0 0 0 0 0
          0 0 0 0 0 0
          0 0 0 0 0 0
          0 0 0 0 0 0
          0 0 0 0 0 0
          0 0 0 0 0 0
          0 0 0 0 0 0
          0 0 0 0 0 0
          0 0 0 0 0 0
          0 0 0 0 0 0
          0 0 0 0 0 0
          0 0 0 0 0 0
          0 0 0 0 0 0
          0 0 0 0 0 0
          0 0 0 0 0 0
          0 0 0 0 0 0
          0 0 0 0 0 0
          0 0 0 0 0 0
          0 0 0 0 0 0
          0 0 0 0 0 0
          0 0 0 0 0 0
          0 0 0 0 0 0
          0 0 0 0 0 0
          0 0 0
          <InformationKey name="L2_NORM_RANGE" location="vtkDataArray" length="2">
            <Value index="0">
              0
            </Value>
            <Value index="1">
              0
            </Value>
          </InformationKey>
        </DataArray>
        <DataArray type="Float64" Name="ALEveloc" NumberOfComponents="3" format="ascii" RangeMin="0" RangeMax="0">
          0 0 0 0 0 0
          0 0 0 0 0 0
          0 0 0 0 0 0
          0 0 0 0 0 0
          0 0 0 0 0 0
          0 0 0 0 0 0
          0 0 0 0 0 0
          0 0 0 0 0 0
          0 0 0 0 0 0
          0 0 0 0 0 0
          0 0 0 0 0 0
          0 0 0 0 0 0
          0 0 0 0 0 0
          0 0 0 0 0 0
          0 0 0 0 0 0
          0 0 0 0 0 0
          0 0 0 0 0 0
          0 0 0 0 0 0
          0 0 0 0 0 0
          0 0 0 0 0 0
          0 0 0 0 0 0
          0 0 0 0 0 0
          0 0 0 0 0 0
          0 0 0 0 0 0
          0 0 0 0 0 0
          0 0 0 0 0 0
          0 0 0 0 0 0
          0 0 0 0 0 0
          0 0 0 0 0 0
          0 0 0 0 0 0
          0 0 0 0 0 0
          0 0 0 0 0 0
          0 0 0 0 0 0
          0 0 0 0 0 0
          0 0 0 0 0 0
          0 0 0 0 0 0
          0 0 0 0 0 0
          0 0 0 0 0 0
          0 0 0 0 0 0
          0 0 0 0 0 0
          0 0 0 0 0 0
          0 0 0 0 0 0
          0 0 0 0 0 0
          0 0 0 0 0 0
          0 0 0 0 0 0
          0 0 0 0 0 0
          0 0 0 0 0 0
          0 0 0 0 0 0
          0 0 0
          <InformationKey name="L2_NORM_RANGE" location="vtkDataArray" length="2">
            <Value index="0">
              0
            </Value>
            <Value index="1">
              0
            </Value>
          </InformationKey>
        </DataArray>
      </PointData>
      <CellData>
        <DataArray type="UInt8" Name="vtkGhostType" format="ascii" RangeMin="0" RangeMax="0">
          0 0 0 0 0 0
          0 0 0 0 0 0
          0 0 0 0 0 0
          0 0 0 0 0 0
          0 0 0 0 0 0
          0 0 0 0 0 0
          0 0 0 0 0 0
          0 0 0 0 0 0
          0 0 0 0 0 0
          0 0 0 0 0 0
          0 0 0 0 0 0
          0 0 0 0 0 0
          0 0 0 0 0 0
          0 0 0 0 0 0
          0 0 0 0 0 0
          0 0 0 0 0 0
          0 0 0 0 0 0
          0 0 0 0 0 0
          0 0 0 0 0 0
          0 0 0 0 0 0
          0 0 0 0 0 0
          0 0 0 0 0 0
          0 0 0 0 0 0
          0 0 0 0 0 0
          0 0 0 0 0 0
          0 0 0 0
        </DataArray>
        <DataArray type="Float64" Name="PStrain" NumberOfComponents="6" format="ascii" RangeMin="0.1732050807568877" RangeMax="0.1732050807568877">
          0.09999999999999999 0.09999999999999999 0 0.09999999999999999 0 0
          0.09999999999999999 0.09999999999999999 0 0.09999999999999999 0 0
          0.09999999999999999 0.09999999999999999 0 0.09999999999999999 0 0
          0.09999999999999999 0.09999999999999999 0 0.09999999999999999 0 0
          0.09999999999999999 0.09999999999999999 0 0.09999999999999999 0 0
          0.09999999999999999 0.09999999999999999 0 0.09999999999999999 0 0
          0.09999999999999999 0.09999999999999999 0 0.09999999999999999 0 0
          0.09999999999999999 0.09999999999999999 0 0.09999999999999999 0 0
          0.09999999999999999 0.09999999999999999 0 0.09999999999999999 0 0
          0.09999999999999999 0.09999999999999999 0 0.09999999999999999 0 0
          0.09999999999999999 0.09999999999999999 0 0.09999999999999999 0 0
          0.09999999999999999 0.09999999999999999 0 0.09999999999999999 0 0
          0.09999999999999999 0.09999999999999999 0 0.09999999999999999 0 0
          0.09999999999999999 0.09999999999999999 0 0.09999999999999999 0 0
          0.09999999999999999 0.09999999999999999 0 0.09999999999999999 0 0
          0.09999999999999999 0.09999999999999999 0 0.09999999999999999 0 0
          0.09999999999999999 0.09999999999999999 0 0.09999999999999999 0 0
          0.09999999999999999 0.09999999999999999 0 0.09999999999999999 0 0
          0.09999999999999999 0.09999999999999999 0 0.09999999999999999 0 0
          0.09999999999999999 0.09999999999999999 0 0.09999999999999999 0 0
          0.09999999999999999 0.09999999999999999 0 0.09999999999999999 0 0
          0.09999999999999999 0.09999999999999999 0 0.09999999999999999 0 0
          0.09999999999999999 0.09999999999999999 0 0.09999999999999999 0 0
          0.09999999999999999 0.09999999999999999 0 0.09999999999999999 0 0
          0.09999999999999999 0.09999999999999999 0 0.09999999999999999 0 0
          0.09999999999999999 0.09999999999999999 0 0.09999999999999999 0 0
          0.09999999999999999 0.09999999999999999 0 0.09999999999999999 0 0
          0.09999999999999999 0.09999999999999999 0 0.09999999999999999 0 0
          0.09999999999999999 0.09999999999999999 0 0.09999999999999999 0 0
          0.09999999999999999 0.09999999999999999 0 0.09999999999999999 0 0
          0.09999999999999999 0.09999999999999999 0 0.09999999999999999 0 0
          0.09999999999999999 0.09999999999999999 0 0.09999999999999999 0 0
          0.09999999999999999 0.09999999999999999 0 0.09999999999999999 0 0
          0.09999999999999999 0.09999999999999999 0 0.09999999999999999 0 0
          0.09999999999999999 0.09999999999999999 0 0.09999999999999999 0 0
          0.09999999999999999 0.09999999999999999 0 0.09999999999999999 0 0
          0.09999999999999999 0.09999999999999999 0 0.09999999999999999 0 0
          0.09999999999999999 0.09999999999999999 0 0.09999999999999999 0 0
          0.09999999999999999 0.09999999999999999 0 0.09999999999999999 0 0
          0.09999999999999999 0.09999999999999999 0 0.09999999999999999 0 0
          0.09999999999999999 0.09999999999999999 0 0.09999999999999999 0 0
          0.09999999999999999 0.09999999999999999 0 0.09999999999999999 0 0
          0.09999999999999999 0.09999999999999999 0 0.09999999999999999 0 0
          0.09999999999999999 0.09999999999999999 0 0.09999999999999999 0 0
          0.09999999999999999 0.09999999999999999 0 0.09999999999999999 0 0
          0.09999999999999999 0.09999999999999999 0 0.09999999999999999 0 0
          0.09999999999999999 0.09999999999999999 0 0.09999999999999999 0 0
          0.09999999999999999 0.09999999999999999 0 0.09999999999999999 0 0
          0.09999999999999999 0.09999999999999999 0 0.09999999999999999 0 0
          0.09999999999999999 0.09999999999999999 0 0.09999999999999999 0 0
          0.09999999999999999 0.09999999999999999 0 0.09999999999999999 0 0
          0.09999999999999999 0.09999999999999999 0 0.09999999999999999 0 0
          0.09999999999999999 0.09999999999999999 0 0.09999999999999999 0 0
          0.09999999999999999 0.09999999999999999 0 0.09999999999999999 0 0
          0.09999999999999999 0.09999999999999999 0 0.09999999999999999 0 0
          0.09999999999999999 0.09999999999999999 0 0.09999999999999999 0 0
          0.09999999999999999 0.09999999999999999 0 0.09999999999999999 0 0
          0.09999999999999999 0.09999999999999999 0 0.09999999999999999 0 0
          0.09999999999999999 0.09999999999999999 0 0.09999999999999999 0 0
          0.09999999999999999 0.09999999999999999 0 0.09999999999999999 0 0
          0.09999999999999999 0.09999999999999999 0 0.09999999999999999 0 0
          0.09999999999999999 0.09999999999999999 0 0.09999999999999999 0 0
          0.09999999999999999 0.09999999999999999 0 0.09999999999999999 0 0
          0.09999999999999999 0.09999999999999999 0 0.09999999999999999 0 0
          0.09999999999999999 0.09999999999999999 0 0.09999999999999999 0 0
          0.09999999999999999 0.09999999999999999 0 0.09999999999999999 0 0
          0.09999999999999999 0.09999999999999999 0 0.09999999999999999 0 0
          0.09999999999999999 0.09999999999999999 0 0.09999999999999999 0 0
          0.09999999999999999 0.09999999999999999 0 0.09999999999999999 0 0
          0.09999999999999999 0.09999999999999999 0 0.09999999999999999 0 0
          0.09999999999999999 0.09999999999999999 0 0.09999999999999999 0 0
          0.09999999999999999 0.09999999999999999 0 0.09999999999999999 0 0
          0.09999999999999999 0.09999999999999999 0 0.09999999999999999 0 0
          0.09999999999999999 0.09999999999999999 0 0.09999999999999999 0 0
          0.09999999999999999 0.09999999999999999 0 0.09999999999999999 0 0
          0.09999999999999999 0.09999999999999999 0 0.09999999999999999 0 0
          0.09999999999999999 0.09999999999999999 0 0.09999999999999999 0 0
          0.09999999999999999 0.09999999999999999 0 0.09999999999999999 0 0
          0.09999999999999999 0.09999999999999999 0 0.09999999999999999 0 0
          0.09999999999999999 0.09999999999999999 0 0.09999999999999999 0 0
          0.09999999999999999 0.09999999999999999 0 0.09999999999999999 0 0
          0.09999999999999999 0.09999999999999999 0 0.09999999999999999 0 0
          0.09999999999999999 0.09999999999999999 0 0.09999999999999999 0 0
          0.09999999999999999 0.09999999999999999 0 0.09999999999999999 0 0
          0.09999999999999999 0.09999999999999999 0 0.09999999999999999 0 0
          0.09999999999999999 0.09999999999999999 0 0.09999999999999999 0 0
          0.09999999999999999 0.09999999999999999 0 0.09999999999999999 0 0
          0.09999999999999999 0.09999999999999999 0 0.09999999999999999 0 0
          0.09999999999999999 0.09999999999999999 0 0.09999999999999999 0 0
          0.09999999999999999 0.09999999999999999 0 0.09999999999999999 0 0
          0.09999999999999999 0.09999999999999999 0 0.09999999999999999 0 0
          0.09999999999999999 0.09999999999999999 0 0.09999999999999999 0 0
          0.09999999999999999 0.09999999999999999 0 0.09999999999999999 0 0
          0.09999999999999999 0.09999999999999999 0 0.09999999999999999 0 0
          0.09999999999999999 0.09999999999999999 0 0.09999999999999999 0 0
          0.09999999999999999 0.09999999999999999 0 0.09999999999999999 0 0
          0.09999999999999999 0.09999999999999999 0 0.09999999999999999 0 0
          0.09999999999999999 0.09999999999999999 0 0.09999999999999999 0 0
          0.09999999999999999 0.09999999999999999 0 0.09999999999999999 0 0
          0.09999999999999999 0.09999999999999999 0 0.09999999999999999 0 0
          0.09999999999999999 0.09999999999999999 0 0.09999999999999999 0 0
          0.09999999999999999 0.09999999999999999 0 0.09999999999999999 0 0
          0.09999999999999999 0.09999999999999999 0 0.09999999999999999 0 0
          0.09999999999999999 0.09999999999999999 0 0.09999999999999999 0 0
          0.09999999999999999 0.09999999999999999 0 0.09999999999999999 0 0
          0.09999999999999999 0.09999999999999999 0 0.09999999999999999 0 0
          0.09999999999999999 0.09999999999999999 0 0.09999999999999999 0 0
          0.09999999999999999 0.09999999999999999 0 0.09999999999999999 0 0
          0.09999999999999999 0.09999999999999999 0 0.09999999999999999 0 0
          0.09999999999999999 0.09999999999999999 0 0.09999999999999999 0 0
          0.09999999999999999 0.09999999999999999 0 0.09999999999999999 0 0
          0.09999999999999999 0.09999999999999999 0 0.09999999999999999 0 0