<?xml version="1.0"?>
<VTKFile type="UnstructuredGrid" version="0.1" byte_order="LittleEndian" header_type="UInt32" compressor="vtkZLibDataCompressor">
  <UnstructuredGrid>
    <Piece NumberOfPoints="97" NumberOfCells="154">
      <PointData>
        <DataArray type="Float64" Name="Velocity" NumberOfComponents="3" format="ascii" RangeMin="0" RangeMax="4.751519748353924">
          0.6725631633832685 0.5113472406124542 0 1.1487865940233848 0 0
          0.8627262956949853 -0.008272449997740124 0 0.9548161289944664 0.030374683519642606 0
          1.0558604339492406 0.05650570531773017 0 0.9956059257734383 0 0
          0.7432232506423344 -0.4700938960554596 0 1.0630244022958069 0 0
          1.0009509620880348 -0.04210143988161071 0 1.00385331216213 0.003948509222134665 0
          0.9988353498051875 0 0 0.9626713057782387 0 0
          1.0088645480320504 0 0 0.997753229153984 0 0
          0.9967169036571225 0.0024372492442098757 0 0.9979005256570894 0.002461414688650159 0
          1.0037399422027307 0 0 0.9932195945212116 0 0
          1.0026545351969147 0.0042759941309965886 0 0.9960879947195038 -0.0010613789086666172 0
          0.9996695916967692 -0.00128073476449185 0 1.0141169280107147 0 0
          0.9915691439504558 0 0 1.0014287923228384 0.012286118516105447 0
          0.997792450829878 -0.02037486425047272 0 1.0011858285048234 -0.009579279734804965 0
          1.0277778738474237 0 0 1.0302409123856684 0 0
          0.9761098725194518 -0.007439485972490578 0 1.020342159483884 -0.07022053169402064 0
          0.9710411760764129 -0.04383993166334049 0 1.0190387934477119 -0.040579962256803034 0
          1.0887198279346595 0 0 1.056520329528562 0 0
          1.0460875269442742 -0.1633661113645915 0 0.9403232453061094 -0.1886350925512216 0
          0.9225899972628089 -0.0035265124184479437 0 1.0148931402978236 0 0
          1.2551375664469915 -0.20229296630197297 0 1.0478005054353106 -0.39303644601915894 0
          0.7543083520066277 -0.3517618465259053 0 1.2472610481927453 -0.5885398781525168 0
          0.8078808664937235 -0.0724375232338718 0 1.0393133031193895 -0.7760996911988662 0
          1.0370165880329159 -0.5349893149166071 0 0.6316252065347053 -0.43980779342212734 0
          1.1731507581075857 0 0 1.2683582977951613 -0.648610627058528 0
          0.5158220955807234 -0.2270642142073631 0 1.6582201119959286 -0.6896671139107179 0
          0.900145748624511 -1.0411132042064026 0 0.7304347609849879 0.02674256868866759 0
          0.4642786448014068 -0.7875147789815564 0 1.6159601388440048 -1.2234301373037526 0
          0.643880560593726 -0.31244503950631225 0 0.6209843470012718 -1.1414904060545294 0
          1.3040672044156678 -0.7518199110918405 0 0.2625814267967994 -0.6079286706999395 0
          1.065420856908855 -1.7107757179632637 0 1.3712897592959339 0 0
          0.23911402868595139 -1.187785168682479 0 0.40071413099504805 -0.261321014057586 0
          1.4423087721805947 -1.5431281628988587 0 -0.12204500799009771 -0.5842488994869943 0
          0.3260001928362192 -1.7786476262804394 0 2.5728421149893292 -1.4710944612332992 0
          0.11629803662604477 -0.7218861448754077 0 1.1940168545110261 -2.9362564258363477 0
          -0.7072765261350865 -1.0924554396604904 0 3.4261647594868214 -3.2921626569548383 0
          0.856429679223215 -0.37144512020405795 0 -0.9845970443322322 -2.738334212308172 0
          0.9170598754283296 0 0 -0.022389492759070533 -0.37715986244289545 0
          1.6459152479874253 -0.8084365395050859 0 -0.6407235928774355 -0.9200791637198139 0
          -1.0634653730798531 0.10232244194216306 0 -1.5252873489666139 1.0225095449265262 0
          0.12327049272655786 0 0 0.20029577436304857 -0.344261997085506 0
          -0.342506024888949 -0.023793749386425617 0 -0.010228823230698826 -0.6018731368841964 0
          0 0 0 0.1852630109982 0 0
          0 0 0 0 0 0
          0 0 0 0 0 0
          1.333910273892653 -0.10657671653534118 0 1.5621425040547758 -0.3450294595836018 0
          1.0795139875010527 0 0 2.0965115629627236 0.7439619171777936 0
          2.376577463564592 -1.4473252767949114 0 2.778315013893303 -1.2154661335829884 0
          1.2684452885634248 -0.9217819745120062 0 1.0741393341328365 3.3151006063019484 0
          0 0 0
          <InformationKey name="L2_NORM_RANGE" location="vtkDataArray" length="2">
            <Value index="0">
              0
            </Value>
            <Value index="1">
              4.7515197484
            </Value>
          </InformationKey>
        </DataArray>
        <DataArray type="Float64" Name="Pressure" format="ascii" RangeMin="-20.054254768484423" RangeMax="0.27139060490273464">
          0.06104885610615561 -0.17152399285057765 0.12243666279307171 -0.16431668764087104 -0.1547233348547122 -0.06771178012603948
          0.08011865960316389 -0.360047596588133 -0.103538971480371 -0.1313288622694115 -0.11021528826661378 -0.066518748960751
          -0.15140490984591662 -0.11245669854945212 -0.1214465651415798 -0.11482124032010743 -0.12243869511585585 -0.1072719437274405
          -0.1305446116251755 -0.11510726255498932 -0.10799105876662049 -0.13535953624835573 -0.07884548209977445 -0.14680458491750994
          -0.11879522188629343 -0.08241928221997746 -0.1045337330649056 -0.07846464300604655 -0.15753344674503894 -0.10757081634185928
          -0.10671325744126703 0.01862712831892306 -0.20003590274549846 -0.07729769295748407 -0.03023689238639041 -0.11626424530696158
          -0.16431650988876206 -0.10567362820378559 -0.10766031207491711 -0.19174048490611223 -0.1786090812754018 -0.24500131857177196
          -0.2870954875600538 -0.4913660967134688 -0.0670749489684189 -0.2262727462907158 -0.2878532434012808 -0.6869559587708058
          -0.23871643602787687 -1.0312304190349328 -0.42461447134490465 -0.339976022719987 -0.5088307957219974 -2.083531829868335
          -0.5466115252723034 -0.6277468528938936 -0.16290620638451517 -0.43646610429112676 -2.7213429114331245 -0.7292129517053658
          -0.9874867769859907 -0.35272861216028606 -1.3514790425833563 -0.7146203442392445 -2.5196319493433297 -4.225341327149049
          -1.3032907301015129 -5.390497200473373 -2.6117364750450345 -12.998870489698623 -0.981245155346085 -11.16653615191446
          -0.5105390877059826 -1.0152176999552744 -20.054254768484423 -2.185323574779874 -4.485763169752808 -13.35651968824685
          0.008948566096081023 -0.9972021410047763 -2.025710223019211 -0.6598378844608573 -2.866077483093009 -0.012393402101802398
          -1.4470674196968543 -0.8814516496831584 -0.34569110823348526 -0.04082139051868583 -0.0842325329688392 0.039867889660847755
          0.27139060490273464 -9.597466677929742 -1.247876418792786 -3.5485984068601204 -0.6970875939376278 -14.919096867130678
          -5.986778672073363
        </DataArray>
        <DataArray type="Float64" Name="BTraction" NumberOfComponents="3" format="ascii" RangeMin="0" RangeMax="5.709156392515926">
          -0.05364155221638252 0.02459894841385267 0 0.007117396839048812 0.12270463906613342 0
          -0.12140492378432226 0.0013731672387129266 0 0 0 0
          0 0 0 0.002219612484953117 0.09101558036476895 0
          -0.054507412618550265 -0.04085279122670687 0 0.006018333798478397 -0.24183344668461657 0
          0 0 0 0 0 0
          0.00012660497294430514 0.10297885110823345 0 -0.0027020792892748324 -0.12796372795606265 0
          -0.0005919329412489139 -0.13175873867388788 0 -0.00010611875892962118 0.11125200124883992 0
          0 0 0 0 0 0
          0.0004122875251252715 -0.1301480596701814 0 -0.00018945065159017976 0.10431048951919028 0
          0 0 0 0 0 0
          0 0 0 0.0009518176460638264 -0.129911615530632 0
          -0.00016739716635907456 0.08471038538961272 0 0 0 0
          0 0 0 0 0 0
          0.003025328247863495 -0.1262631245104249 0 0.00037141993627942276 0.0793327883443185 0
          0 0 0 0 0 0
          0 0 0 0 0 0
          0.008783054999349966 -0.17041557817712022 0 -0.003948273699258321 0.029142050415776236 0
          0 0 0 0 0 0
          0 0 0 0.012336416113273296 -0.1573365655315312 0
          0 0 0 0 0 0
          0 0 0 0 0 0
          0 0 0 0 0 0
          0 0 0 0 0 0
          0.04234402850301297 -0.31621975770630434 0 0 0 0
          0 0 0 0 0 0
          0 0 0 0 0 0
          0 0 0 0 0 0
          0 0 0 0 0 0
          0 0 0 0 0 0
          0 0 0 0.06288979787918211 -0.5686468328453581 0
          0 0 0 0 0 0
          0 0 0 0 0 0
          0 0 0 0 0 0
          0 0 0 0 0 0
          0 0 0 0 0 0
          0 0 0 0 0 0
          0.019805206146650736 -0.4074366362680629 0 0 0 0
          0 0 0 0 0 0
          0 0 0 0 0 0
          -0.03448827047263695 0.0035687095125319724 0 0 0 0
          0 0 0 0 0 0
          -2.8276856933383443 -0.24513439271850268 0 0.0005469853913113481 0.04295165045723685 0
          -1.5551000209993426 0.06936077265414618 0 -0.9188077911745749 0.061434122395153716 0
          -0.39627927658523954 0.025926155527316946 0 -0.05155601717869416 0.011420663682944374 0
          0 0 0 0 0 0
          -0.005709993899182942 -0.08595248792361061 0 0 0 0
          0 0 0 0 0 0
          0 0 0 0 0 0
          -5.6866708561102 -0.5062028135760832 0
          <InformationKey name="L2_NORM_RANGE" location="vtkDataArray" length="2">
            <Value index="0">
              0
            </Value>
            <Value index="1">
              5.7091563925
            </Value>
          </InformationKey>
        </DataArray>
        <DataArray type="Float64" Name="Sigma" NumberOfComponents="6" format="ascii" RangeMin="0.00009838343995212303" RangeMax="0.9354117882774078">
          -0.037821657261038984 0.03803049480034006 0 0.012731306055587536 0 0
          -0.002025000348191738 0.001863124060400305 0 0.007092043313470433 0 0
          -0.010041365186255603 0.01005250920223296 0 0.0014748777048177438 0 0
          0.002517082847824526 -0.0023492171013706105 0 0.0006821330499287585 0 0
          -0.0021558402840449816 0.0020433333778029856 0 -0.003609280691786291 0 0
          0.0019220764831507583 -0.0020140520673351705 0 0.001604901724823609 0 0
          -0.019528257818265754 0.01939324672304854 0 -0.01039181344258095 0 0
          -0.0014140234459252817 0.0019611737091058176 0 -0.00797942093522816 0 0
          -0.0009116046131024141 0.000880290613272556 0 -0.00027162147931740716 0 0
          -0.0012951560483650875 0.0012784920464662293 0 -0.0004348575597222733 0 0
          0.00035104467107922773 -0.00029983522379531543 0 -0.00019397530304616825 0 0
          0.002602992722342691 -0.002827737161891747 0 0.006199494392623212 0 0
          0.0005069692507836229 -0.0003953596022164977 0 -0.0006060808996157021 0 0
          -0.00004041108852310082 0.00005686786997037075 0 -0.00006937067497310453 0 0
          0.0001797935719272902 -0.00023867300772262192 0 0.00017185694733074823 0 0
          0.0001311625033828253 -0.00011401899728880168 0 -0.00021843265381491913 0 0
          -0.0004124468913408888 0.00038452415381170406 0 -0.00022357314666691792 0 0
          0.000014168936588437422 -0.00002573707627796892 0 -0.00016167127517589572 0 0
          0.00022813408135788216 -0.0001757530271439801 0 -0.00040152499317951763 0 0
          -0.00021184384381259147 0.00025781591560615236 0 0.0002739393514574048 0 0
          0.00025636681642736794 -0.00032490983101224205 0 0.00028162453593454534 0 0
          -0.0017088442946279591 0.0016563887143966481 0 -0.0010197646446294094 0 0
          -0.0011323948610267563 0.0012704432546110345 0 -0.00047366752388835115 0 0
          0.001512753836184485 -0.0015997330836002581 0 -0.00020385661388022 0 0
          -0.0000835028805349496 0.00015445030450410345 0 0.0014735624525671798 0 0
          -0.002254298359763888 0.002193740346244832 0 0.00044272235925022976 0 0
          -0.0015417381536188591 0.0017610056066955022 0 -0.0015986219800347232 0 0
          0.00041198390790217617 -0.0005353384119301803 0 0.001171217198606097 0 0
          0.0006310090536352521 -0.0007057747016052269 0 -0.0008142552192252351 0 0
          -0.00048105038693658895 0.0001387532421121135 0 0.007248149264165959 0 0
          0.0044742194407869085 -0.004172984918630729 0 0.004033426917322497 0 0
          -0.007714452414358939 0.008261020140081945 0 0.0023192500935272017 0 0
          -0.0009838771513988374 0.0009917250330639614 0 -0.011677373034881334 0 0
          -0.007758971930247347 0.007152063963650928 0 -0.002089369307716178 0 0
          -0.009239307716507422 0.009522825399984995 0 0.006286317430021454 0 0
          0.005168602854831571 -0.005294775133563265 0 0.016941597526258307 0 0
          0.010595536887794594 -0.010769120265806375 0 0.00241593420328767 0 0
          -0.0072875824600974635 0.006869435111911457 0 -0.004609382890147154 0 0
          -0.020708450508038323 0.020211072918512107 0 0.011428087124747906 0 0
          -0.012891418084441057 0.012884257112806686 0 0.0385287865418539 0 0
          0.02433585568013705 -0.023926564063601937 0 0.02048433591167752 0 0
          -0.0412894345869269 0.042244898697504474 0 0.029199472512328833 0 0
          0.025023831214466736 -0.024712202689456925 0 -0.013895673715257692 0 0
          0.02218827573189822 -0.02406304726816904 0 0.015210462221731221 0 0
          -0.013877145939376551 0.013679291180285694 0 0.06045312609405571 0 0
          0.05180278992777957 -0.05420391812980845 0 0.11978158552432079 0 0
          -0.00797376638638402 0.009682978946095704 0 -0.045559530810418136 0 0
          -0.15969806763752536 0.16707068936753122 0 0.09001638383995895 0 0
          0.04192402947098749 -0.04016300874687387 0 0.025888620578797945 0 0
          0.1084253936815356 -0.11451492482651501 0 0.019437178723954156 0 0
          -0.024574982021989274 0.031541831025788045 0 0.14287826406765394 0 0
          -0.004792082327434351 0.0050314810606634265 0 -0.003757518450239428 0 0
          0.03750947228202462 -0.038516117180478815 0 0.07091618863060115 0 0
          -0.030726412908638506 0.0218943218790848 0 0.007650908575077548 0 0
          0.09203872212704096 -0.09823284968247581 0 0.010941623089042665 0 0
          0.030084648055994662 -0.027474629559490666 0 0.04957164129830459 0 0
          0.03450042959670137 -0.036140436941368204 0 -0.06738159808543225 0 0
          0.06429161230181607 -0.06240236189994274 0 0.02562306666711998 0 0
          -0.011135597623911113 0.005787298001529141 0 0.18485082877509623 0 0
          0.058374254419010584 -0.061991691236092834 0 -0.0766438001476569 0 0
          0.07631680414724898 -0.07652482588558354 0 0.036075129975528045 0 0
          0.01083422405541022 -0.006241115790483062 0 -0.030133976719988055 0 0
          -0.36739710302080614 0.37170259948494777 0 0.3610180667975694 0 0
          0.02490212679731525 -0.023333594539596315 0 -0.007946463214338067 0 0
          0.3424571784486344 -0.3479958427973939 0 0.3510995384760836 0 0
          -0.3478853126139411 0.3517472986409855 0 0.19817837443376185 0 0
          0.13070799323891874 -0.1325797173703766 0 0.004752587286073316 0 0
          0.007283860191544639 0.006468742883553861 0 0.3759953956151058 0 0
          0.26684448683007456 -0.2631014133475619 0 -0.06791140660713946 0 0
          -0.07184928718854405 0.06339206141207505 0 -0.28575516701202663 0 0
          0.058922970874071945 -0.05824315668224111 0 -0.03196860525025575 0 0
          0.22608526824026923 -0.22423896279735708 0 0.09439418748818398 0 0
          0.04860795283548656 -0.04969939769392326 0 -0.023087649012668757 0 0
          0.0023987825151395047 -0.0010837630170449594 0 -0.05124969616945106 0 0
          0.025543120802277657 -0.03429278383990529 0 -0.2441268155489265 0 0
          0.014605628059110564 -0.0193953126203658 0 -0.0995717952304032 0 0
          -0.036683368178309736 0.03727890833532153 0 -0.5296258882360314 0 0
          -0.1193384498198457 0.1077167659113664 0 -0.31303550837271216 0 0
          0.10779641811940863 -0.11006244711896812 0 0.05933853033927568 0 0
          -0.027466683769124856 0.033195167924673474 0 -0.04498903911845005 0 0
          -0.04701411639838833 0.04510955934236807 0 -0.055560491030520236 0 0
          0.03919010196026664 -0.043435979228153794 0 -0.03812559437374468 0 0
          -0.35289104636223156 0.3725579788918432 0 0.2759762436177723 0 0
          0.06639200023172127 -0.0546407640434961 0 -0.00612144780359977 0 0
          0.02484596216421714 -0.031092930283695773 0 -0.16316606555044016 0 0
          0.022007215599143738 -0.027038156322017736 0 -0.04471640612772366 0 0
          0.007896612581621216 -0.004881634172854498 0 -0.01696275595311382 0 0
          -0.01461029501288069 -0.003200087749687757 0 -0.04292060909858893 0 0
          -0.021446363433258103 0.021744693366693192 0 0.0024023985680711223 0 0
          -0.047550024289610617 0.045458216785192546 0 -0.014507051592085618 0 0
          -0.016786347442478495 0.01851966475882411 0 -0.017168381183482934 0 0
          0.5965206494502333 -0.5857287960388001 0 -0.4196190009028993 0 0
          -0.23000198410742934 0.22930848218459465 0 -0.24705604166765152 0 0
          0.04003041089345201 -0.041312210647287045 0 0.011873172494205116 0 0
          -0.32381289480353015 0.3296226174256489 0 0.06863796302868602 0 0
          0.013461596356014155 -0.022347701324677963 0 0.5303205350928172 0 0
          -0.24376488895689957 0.24449842316679254 0 0.5827311177538416 0 0
          <InformationKey name="L2_NORM_RANGE" location="vtkDataArray" length="2">
            <Value index="0">
              9.8383439952e-05
            </Value>
            <Value index="1">
              0.93541178828
            </Value>
          </InformationKey>
        </DataArray>
        <DataArray type="Float64" Name="ALEdispl" NumberOfComponents="3" format="ascii" RangeMin="0" RangeMax="0">
          0 0 0 0 0 0
          0 0 0 0 0 0
          0 0 0 0 0 0
          0 0 0 0 0 0
          0 0 0 0 0 0
          0 0 0 0 0 0
          0 0 0 0 0 0
          0 0 0 0 0 0
          0 0 0 0 0 0
          0 0 0 0 0 0
          0 0 0 0 0 0
          0 0 0 0 0 0
          0 0 0 0 0 0
          0 0 0 0 0 0
          0 0 0 0 0 0
          0 0 0 0 0 0
          0 0 0 0 0 0
          0 0 0 0 0 0
          0 0 0 0 0 0
          0 0 0 0 0 0
          0 0 0 0 0 0
          0 0 0 0 0 0
          0 0 0 0 0 0
          0 0 0 0 0 0
          0 0 0 0 0 0
          0 0 0 0 0 0
          0 0 0 0 0 0
          0 0 0 0 0 0
          0 0 0 0 0 0
          0 0 0 0 0 0
          0 0 0 0 0 0
          0 0 0 0 0 0
          0 0 0 0 0 0
          0 0 0 0 0 0
          0 0 0 0 0 0
          0 0 0 0 0 0
          0 0 0 0 0 0
          0 0 0 0 0 0
          0 0 0 0 0 0
          0 0 0 0 0 0
          0 0 0 0 0 0
          0 0 0 0 0 0
          0 0 0 0 0 0
          0 0 0 0 0 0
          0 0 0 0 0 0
          0 0 0 0 0 0
          0 0 0 0 0 0
          0 0 0 0 0 0
          0 0 0
          <InformationKey name="L2_NORM_RANGE" location="vtkDataArray" length="2">
            <Value index="0">
              0
            </Value>
            <Value index="1">
              0
            </Value>
          </InformationKey>
        </DataArray>
        <DataArray type="Float64" Name="ALEveloc" NumberOfComponents="3" format="ascii" RangeMin="0" RangeMax="0">
          0 0 0 0 0 0
          0 0 0 0 0 0
          0 0 0 0 0 0
          0 0 0 0 0 0
          0 0 0 0 0 0
          0 0 0 0 0 0
          0 0 0 0 0 0
          0 0 0 0 0 0
          0 0 0 0 0 0
          0 0 0 0 0 0
          0 0 0 0 0 0
          0 0 0 0 0 0
          0 0 0 0 0 0
          0 0 0 0 0 0
          0 0 0 0 0 0
          0 0 0 0 0 0
          0 0 0 0 0 0
          0 0 0 0 0 0
          0 0 0 0 0 0
          0 0 0 0 0 0
          0 0 0 0 0 0
          0 0 0 0 0 0
          0 0 0 0 0 0
          0 0 0 0 0 0
          0 0 0 0 0 0
          0 0 0 0 0 0
          0 0 0 0 0 0
          0 0 0 0 0 0
          0 0 0 0 0 0
          0 0 0 0 0 0
          0 0 0 0 0 0
          0 0 0 0 0 0
          0 0 0 0 0 0
          0 0 0 0 0 0
          0 0 0 0 0 0
          0 0 0 0 0 0
          0 0 0 0 0 0
          0 0 0 0 0 0
          0 0 0 0 0 0
          0 0 0 0 0 0
          0 0 0 0 0 0
          0 0 0 0 0 0
          0 0 0 0 0 0
          0 0 0 0 0 0
          0 0 0 0 0 0
          0 0 0 0 0 0
          0 0 0 0 0 0
          0 0 0 0 0 0
          0 0 0
          <InformationKey name="L2_NORM_RANGE" location="vtkDataArray" length="2">
            <Value index="0">
              0
            </Value>
            <Value index="1">
              0
            </Value>
          </InformationKey>
        </DataArray>
      </PointData>
      <CellData>
        <DataArray type="UInt8" Name="vtkGhostType" format="ascii" RangeMin="0" RangeMax="0">
          0 0 0 0 0 0
          0 0 0 0 0 0
          0 0 0 0 0 0
          0 0 0 0 0 0
          0 0 0 0 0 0
          0 0 0 0 0 0
          0 0 0 0 0 0
          0 0 0 0 0 0
          0 0 0 0 0 0
          0 0 0 0 0 0
          0 0 0 0 0 0
          0 0 0 0 0 0
          0 0 0 0 0 0
          0 0 0 0 0 0
          0 0 0 0 0 0
          0 0 0 0 0 0
          0 0 0 0 0 0
          0 0 0 0 0 0
          0 0 0 0 0 0
          0 0 0 0 0 0
          0 0 0 0 0 0
          0 0 0 0 0 0
          0 0 0 0 0 0
          0 0 0 0 0 0
          0 0 0 0 0 0
          0 0 0 0
        </DataArray>
        <DataArray type="Float64" Name="PStrain" NumberOfComponents="6" format="ascii" RangeMin="0.1732050807568877" RangeMax="0.1732050807568877">
          0.09999999999999999 0.09999999999999999 0 0.09999999999999999 0 0
          0.09999999999999999 0.09999999999999999 0 0.09999999999999999 0 0
          0.09999999999999999 0.09999999999999999 0 0.09999999999999999 0 0
          0.09999999999999999 0.09999999999999999 0 0.09999999999999999 0 0
          0.09999999999999999 0.09999999999999999 0 0.09999999999999999 0 0
          0.09999999999999999 0.09999999999999999 0 0.09999999999999999 0 0
          0.09999999999999999 0.09999999999999999 0 0.09999999999999999 0 0
          0.09999999999999999 0.09999999999999999 0 0.09999999999999999 0 0
          0.09999999999999999 0.09999999999999999 0 0.09999999999999999 0 0
          0.09999999999999999 0.09999999999999999 0 0.09999999999999999 0 0
          0.09999999999999999 0.09999999999999999 0 0.09999999999999999 0 0
          0.09999999999999999 0.09999999999999999 0 0.09999999999999999 0 0
          0.09999999999999999 0.09999999999999999 0 0.09999999999999999 0 0
          0.09999999999999999 0.09999999999999999 0 0.09999999999999999 0 0
          0.09999999999999999 0.09999999999999999 0 0.09999999999999999 0 0
          0.09999999999999999 0.09999999999999999 0 0.09999999999999999 0 0
          0.09999999999999999 0.09999999999999999 0 0.09999999999999999 0 0
          0.09999999999999999 0.09999999999999999 0 0.09999999999999999 0 0
          0.09999999999999999 0.09999999999999999 0 0.09999999999999999 0 0
          0.09999999999999999 0.09999999999999999 0 0.09999999999999999 0 0
          0.09999999999999999 0.09999999999999999 0 0.09999999999999999 0 0
          0.09999999999999999 0.09999999999999999 0 0.09999999999999999 0 0
          0.09999999999999999 0.09999999999999999 0 0.09999999999999999 0 0
          0.09999999999999999 0.09999999999999999 0 0.09999999999999999 0 0
          0.09999999999999999 0.09999999999999999 0 0.09999999999999999 0 0
          0.09999999999999999 0.09999999999999999 0 0.09999999999999999 0 0
          0.09999999999999999 0.09999999999999999 0 0.09999999999999999 0 0
          0.09999999999999999 0.09999999999999999 0 0.09999999999999999 0 0
          0.09999999999999999 0.09999999999999999 0 0.09999999999999999 0 0
          0.09999999999999999 0.09999999999999999 0 0.09999999999999999 0 0
          0.09999999999999999 0.09999999999999999 0 0.09999999999999999 0 0
          0.09999999999999999 0.09999999999999999 0 0.09999999999999999 0 0
          0.09999999999999999 0.09999999999999999 0 0.09999999999999999 0 0
          0.09999999999999999 0.09999999999999999 0 0.09999999999999999 0 0
          0.09999999999999999 0.09999999999999999 0 0.09999999999999999 0 0
          0.09999999999999999 0.09999999999999999 0 0.09999999999999999 0 0
          0.09999999999999999 0.09999999999999999 0 0.09999999999999999 0 0
          0.09999999999999999 0.09999999999999999 0 0.09999999999999999 0 0
          0.09999999999999999 0.09999999999999999 0 0.09999999999999999 0 0
          0.09999999999999999 0.09999999999999999 0 0.09999999999999999 0 0
          0.09999999999999999 0.09999999999999999 0 0.09999999999999999 0 0
          0.09999999999999999 0.09999999999999999 0 0.09999999999999999 0 0
          0.09999999999999999 0.09999999999999999 0 0.09999999999999999 0 0
          0.09999999999999999 0.09999999999999999 0 0.09999999999999999 0 0
          0.09999999999999999 0.09999999999999999 0 0.09999999999999999 0 0
          0.09999999999999999 0.09999999999999999 0 0.09999999999999999 0 0
          0.09999999999999999 0.09999999999999999 0 0.09999999999999999 0 0
          0.09999999999999999 0.09999999999999999 0 0.09999999999999999 0 0
          0.09999999999999999 0.09999999999999999 0 0.09999999999999999 0 0
          0.09999999999999999 0.09999999999999999 0 0.09999999999999999 0 0
          0.09999999999999999 0.09999999999999999 0 0.09999999999999999 0 0
          0.09999999999999999 0.09999999999999999 0 0.09999999999999999 0 0
          0.09999999999999999 0.09999999999999999 0 0.09999999999999999 0 0
          0.09999999999999999 0.09999999999999999 0 0.09999999999999999 0 0
          0.09999999999999999 0.09999999999999999 0 0.09999999999999999 0 0
          0.09999999999999999 0.09999999999999999 0 0.09999999999999999 0 0
          0.09999999999999999 0.09999999999999999 0 0.09999999999999999 0 0
          0.09999999999999999 0.09999999999999999 0 0.09999999999999999 0 0
          0.09999999999999999 0.09999999999999999 0 0.09999999999999999 0 0
          0.09999999999999999 0.09999999999999999 0 0.09999999999999999 0 0
          0.09999999999999999 0.09999999999999999 0 0.09999999999999999 0 0
          0.09999999999999999 0.09999999999999999 0 0.09999999999999999 0 0
          0.09999999999999999 0.09999999999999999 0 0.09999999999999999 0 0
          0.09999999999999999 0.09999999999999999 0 0.09999999999999999 0 0
          0.09999999999999999 0.09999999999999999 0 0.09999999999999999 0 0
          0.09999999999999999 0.09999999999999999 0 0.09999999999999999 0 0
          0.09999999999999999 0.09999999999999999 0 0.09999999999999999 0 0
          0.09999999999999999 0.09999999999999999 0 0.09999999999999999 0 0
          0.09999999999999999 0.09999999999999999 0 0.09999999999999999 0 0
          0.09999999999999999 0.09999999999999999 0 0.09999999999999999 0 0
          0.09999999999999999 0.09999999999999999 0 0.09999999999999999 0 0
          0.09999999999999999 0.09999999999999999 0 0.09999999999999999 0 0
          0.09999999999999999 0.09999999999999999 0 0.09999999999999999 0 0
          0.09999999999999999 0.09999999999999999 0 0.09999999999999999 0 0
          0.09999999999999999 0.09999999999999999 0 0.09999999999999999 0 0
          0.09999999999999999 0.09999999999999999 0 0.09999999999999999 0 0
          0.09999999999999999 0.09999999999999999 0 0.09999999999999999 0 0
          0.09999999999999999 0.09999999999999999 0 0.09999999999999999 0 0
          0.09999999999999999 0.09999999999999999 0 0.09999999999999999 0 0
          0.09999999999999999 0.09999999999999999 0 0.09999999999999999 0 0
          0.09999999999999999 0.09999999999999999 0 0.09999999999999999 0 0
          0.09999999999999999 0.09999999999999999 0 0.09999999999999999 0 0
          0.09999999999999999 0.09999999999999999 0 0.09999999999999999 0 0
          0.09999999999999999 0.09999999999999999 0 0.09999999999999999 0 0
          0.09999999999999999 0.09999999999999999 0 0.09999999999999999 0 0
          0.09999999999999999 0.09999999999999999 0 0.09999999999999999 0 0
          0.09999999999999999 0.09999999999999999 0 0.09999999999999999 0 0
          0.09999999999999999 0.09999999999999999 0 0.09999999999999999 0 0
          0.09999999999999999 0.09999999999999999 0 0.09999999999999999 0 0
          0.09999999999999999 0.09999999999999999 0 0.09999999999999999 0 0
          0.09999999999999999 0.09999999999999999 0 0.09999999999999999 0 0
          0.09999999999999999 0.09999999999999999 0 0.09999999999999999 0 0
          0.09999999999999999 0.09999999999999999 0 0.09999999999999999 0 0
          0.09999999999999999 0.09999999999999999 0 0.09999999999999999 0 0
          0.09999999999999999 0.09999999999999999 0 0.09999999999999999 0 0
          0.09999999999999999 0.09999999999999999 0 0.09999999999999999 0 0
          0.09999999999999999 0.09999999999999999 0 0.09999999999999999 0 0
          0.09999999999999999 0.09999999999999999 0 0.09999999999999999 0 0
          0.09999999999999999 0.09999999999999999 0 0.09999999999999999 0 0
          0.09999999999999999 0.09999999999999999 0 0.09999999999999999 0 0
          0.09999999999999999 0.09999999999999999 0 0.09999999999999999 0 0
          0.09999999999999999 0.09999999999999999 0 0.09999999999999999 0 0
          0.09999999999999999 0.09999999999999999 0 0.09999999999999999 0 0
          0.09999999999999999 0.09999999999999999 0 0.09999999999999999 0 0
          0.09999999999999999 0.09999999999999999 0 0.09999999999999999 0 0
          0.09999999999999999 0.09999999999999999 0 0.09999999999999999 0 0
          0.09999999999999999 0.09999999999999999 0 0.09999999999999999 0 0
          0.09999999999999999 0.09999999999999999 0 0.09999999999999999 0 0
          0.09999999999999999 0.09999999999999999 0 0.09999999999999999 0 0
          0.09999999999999999 0.09999999999999999 0 0.09999999999999999 0 0
          0.09999999999999999 0.09999999999999999 0 0.09999999999999999 0 0
          0.09999999999999999 0.09999999999999999 0 0.09999999999999999 0 0