<?xml version="1.0"?>
<VTKFile type="UnstructuredGrid" version="0.1" byte_order="LittleEndian" header_type="UInt32" compressor="vtkZLibDataCompressor">
  <UnstructuredGrid>
    <Piece NumberOfPoints="94" NumberOfCells="150">
      <PointData>
        <DataArray type="Float64" Name="Velocity" NumberOfComponents="3" format="ascii" RangeMin="0" RangeMax="4.192339818879672">
          1.086817515457937 0 0 1.347751045244286 -0.11517030042477511 0
          1.6170925538799314 -0.35939777516966603 0 1.626311478586803 0 0
          1.5042093811812276 -0.9756298450049621 0 1.3342299604856933 -0.35235887571193836 0
          2.2701109224764435 -0.1644018354464886 0 2.736474227387912 -1.1747918705871832 0
          2.6872735435859605 -0.8859228587614862 0 1.6980540585481825 0 0
          2.8812410964386164 -0.5472236413941601 0 1.8659168327793 -0.13185364615705986 0
          2.1291333609746266 0.23664961379426666 0 1.959416332939434 0.9040747156088593 0
          3.5042788873077453 0.7151803888787033 0 2.891264227935959 0.6672340702375692 0
          0.7438075412864846 2.6353694542286266 0 1.9196254829079453 -0.3503134887367306 0
          1.5211487711181553 0.40414974201487996 0 2.9009248699346477 0.5849784313566775 0
          0 0 0 2.7980671185206534 0.26418451004083277 0
          1.7722223036835378 0.1888140568105078 0 0 0 0
          2.8876280312152516 0.800275551452571 0 2.051455487553575 0.29237275498679 0
          2.098586772158873 0.5522387632481898 0 0 0 0
          0 0 0 2.118347792074185 0.38776115025639807 0
          1.7867842342489337 2.2120041108392727 0 1.7804990191121737 0 0
          0 0 0 0 0 0
          2.40411341980004 0.9807006411866858 0 0.7050864154520433 1.9542621799189503 0
          1.8097169863780171 0.4199136783352845 0 0 0 0
          1.775565230339966 0.742527930345825 0 1.4159564051662765 0.7797440985225451 0
          0 0 0 0.9050623085228723 1.3809492906148613 0
          0.22307351618934812 -0.46923769828497236 0 0 0 0
          1.2895321630558743 1.337323380737739 0 1.7617734693270684 1.1779128649696349 0
          0.7882329076119198 0.6943194073323149 0 1.8790867252040069 0.9942083157705778 0
          1.5029281011591031 0.21809901458266734 0 -0.2849631423668262 -0.15076871140755543 0
          1.4062208553060778 1.480964176821265 0 0.7922501552994158 1.3760350384549334 0
          1.4724184529014368 0.9202474897896512 0 0.7901457450558262 1.4338788302473275 0
          0.44632691487899046 0 0 0.9433158381723945 1.1779822577346302 0
          1.161026608808208 1.1918202966255227 0 -0.005623444575683156 0.040377577120714964 0
          0.8563392617051031 1.1068571840577563 0 -0.42874284600435364 0.15271838544490512 0
          1.2247135663478432 0.8209282434835226 0 1.543044835911416 1.3010351726780458 0
          1.1389779654938192 0 0 1.348517357266279 1.3249922244335977 0
          0.43404657931628327 0 0 1.0350934913963472 0.7989485716224956 0
          0.5616476482868434 0.628171602070123 0 1.0393204857911857 0.21261180114650158 0
          0.18167951311045574 0.024970304785050412 0 -0.5890410352980117 0 0
          1.0392121971632808 0.1973273773851943 0 0.9977213419692356 0.4940080983999052 0
          1.1121657827904217 0.9022805502464175 0 1.0278261846789212 0.9234184988858419 0
          0.7065050086359961 0.8217024744758915 0 0.4441031863246717 0 0
          1 0 0 1 0 0
          1 0 0 0.844858359415173 0 0
          1 0 0 1 0 0
          1 0 0 1 0 0
          1.267695541617633 -0.2192300575652862 0 1.0669145870122798 0 0
          1.6848924454409822 0.10400237985076655 0 3.129865294831124 -2.789203541008745 0
          2.6604440112915606 -1.717343246300854 0 1.295989012538488 -0.7844240281958043 0
          1.5942968815521048 -0.7417289126297502 0 1.2757526882480834 -0.5995301100742985 0
          -1.2113738542276355 1.2004071117448 0 0 0 0
          <InformationKey name="L2_NORM_RANGE" location="vtkDataArray" length="2">
            <Value index="0">
              0
            </Value>
            <Value index="1">
              4.1923398189
            </Value>
          </InformationKey>
        </DataArray>
        <DataArray type="Float64" Name="Pressure" format="ascii" RangeMin="-18.10132664560557" RangeMax="4.906635047647944">
          0.34887870880284144 0.023188601135699483 0.03415459948498084 -0.2238568998082181 -0.9498024347993199 0.6191939725898866
          -0.16571297013141528 -2.3627964854007906 -2.978436650772249 0.6123746825136439 -2.3510750503395843 -0.40235952322342994
          0.10158286034287056 -9.02612042658516 -6.550443648772302 -1.4529736033333318 -11.904453408544978 -0.3735518832649214
          -5.415158845107003 -3.8139308166845827 -6.949289695854208 -1.9939155836366296 0.7394187815066435 -6.202547471423054
          -8.309283383708927 -0.23278475707418456 -0.014873497346108433 -2.842282858563238 2.6269055914162167 0.1368697883880261
          -2.957875217226829 0.9339050452614068 3.0113336673794766 2.9321854933576854 -1.2530974991696315 -0.058023206872023336
          1.1455511018705984 3.5492719756266364 0.9411005512312903 1.5599190024770682 3.797356245978686 1.8882054228909508
          2.67990445927616 3.797913416474834 1.6157396687791086 0.6034607375882866 2.7172287563830984 1.1586100725342994
          1.6373801631469194 3.144929223510992 1.2194733298150204 2.1503070718465747 2.244219119481036 2.44715278849178
          3.848129471906707 3.1076822513853557 2.2876699762151107 3.9208171880638583 3.032758825367572 3.6908944775805503
          2.0868417854586916 1.5324758456622978 2.2780034550849293 2.172266626801483 3.9055504610165706 3.296708955881772
          4.056625105740655 2.1931864909848833 4.157674656852783 4.261022031054906 2.371340267352516 3.0203390419985796
          3.4123255433631647 3.9453554642061093 4.379881874910799 4.735006507645264 2.144030733727547 2.273008529662783
          2.518645040370873 4.906635047647944 3.0212788792364416 3.886827235536055 4.499076233327034 4.477259394395994
          -0.02329178206596 -0.046758816667891195 -18.10132664560557 -12.001734018591542 -3.9965630419699147 -0.03455077186684946
          -0.6823195673389584 -0.24456107443882294 -12.261317368040292 -3.6191360242452717
        </DataArray>
        <DataArray type="Float64" Name="BTraction" NumberOfComponents="3" format="ascii" RangeMin="0" RangeMax="5.812971433191219">
          -0.005854102535120562 -0.16829370648024508 0 0 0 0
          0 0 0 0.023775724928997117 0.010258448357247246 0
          0 0 0 0 0 0
          0 0 0 0 0 0
          0 0 0 0.010148576665258069 -0.5204899120798937 0
          0 0 0 0 0 0
          0 0 0 0 0 0
          0 0 0 0 0 0
          0 0 0 0 0 0
          0 0 0 0 0 0
          -4.129643887709601 -2.4003124481957645 0 0 0 0
          0 0 0 -5.798891342379447 -0.4043464880197141 0
          0 0 0 0 0 0
          0 0 0 0.5708897288837009 -1.9814935426022238 0
          -2.0451012662453634 -0.24108127461534704 0 0 0 0
          0 0 0 -0.0028683089530321484 -1.1277799600023042 0
          -3.1018800079818187 0.008084035066888753 0 -3.018453147399744 0.11831516736586231 0
          0 0 0 0 0 0
          0 0 0 -3.4050478209985986 0.013077381653324283 0
          0 0 0 0 0 0
          -3.7845302392555427 -0.06125325114011865 0 0 0 0
          0 0 0 -1.868186425351254 1.880663509694582 0
          0 0 0 0 0 0
          0 0 0 0 0 0
          0 0 0 0 0 0
          0 0 0 0 0 0
          0 0 0 0 0 0
          0.02576616851098903 3.852871303824404 0 0 0 0
          0 0 0 0 0 0
          0 0 0 0 0 0
          0 0 0 0 0 0
          -0.008233844229452109 -2.0676394801742743 0 0 0 0
          -0.03175240799772162 4.039659693674126 0 0 0 0
          0 0 0 0 0 0
          0 0 0 -0.12751374888958494 4.302030460434129 0
          0 0 0 0 0 0
          0 0 0 0 0 0
          0 0 0 -0.026676921985981955 4.542912313671211 0
          1.0889806109994384 -1.1072264463079442 0 2.287125689301672 -0.009414591890843618 0
          2.5618880422929022 -0.031427770499143914 0 -0.012282203161255589 4.718794693679305 0
          3.0664118873441004 -0.0459792176077698 0 3.826152520503128 -0.06200313968076533 0
          4.391992057142751 -0.04455680452915048 0 2.587107350628324 1.9226266574918132 0
          0 0 0 -0.0034410923398784524 -0.008178095732795694 0
          0 0 0 0 0 0
          0 0 0 0 0 0
          0 0 0 0 0 0
          0 0 0 -3.4991133875514953 -0.2668416964251743 0
          <InformationKey name="L2_NORM_RANGE" location="vtkDataArray" length="2">
            <Value index="0">
              0
            </Value>
            <Value index="1">
              5.8129714332
            </Value>
          </InformationKey>
        </DataArray>
        <DataArray type="Float64" Name="Sigma" NumberOfComponents="6" format="ascii" RangeMin="0.005153867959183395" RangeMax="0.6920915477287493">
          -0.018764091748319334 0.020177346145949838 0 -0.01830304944604452 0 0
          -0.022834811842420432 0.023527542264109757 0 0.00378550369960476 0 0
          -0.0517652203930547 0.0492528302518237 0 -0.015697427206169155 0 0
          -0.02853924763854794 0.024450624084501753 0 0.03853053421751105 0 0
          -0.32640090041341224 0.32841004777056293 0 0.09248130548188985 0 0
          -0.04324409852876376 0.04658136773195595 0 -0.017514759311791705 0 0
          0.016514954827494988 -0.016428095968870567 0 -0.05123679910113873 0 0
          -0.04120598116431412 0.04378977275290165 0 -0.0935769673296085 0 0
          -0.1595161862312645 0.1516479355456939 0 -0.261597036299373 0 0
          -0.012938909167156776 0.013949884625855028 0 0.006417943081561577 0 0
          -0.16207249860608758 0.15213038528077494 0 -0.4044284015317122 0 0
          -0.04928572254449879 0.04754080982572761 0 -0.05402386102610799 0 0
          -0.07590234971066762 0.07613876107740605 0 -0.18863933583198716 0 0
          0.45598338171143543 -0.4496675312279085 0 -0.26242899496811894 0 0
          0.13613763345401836 -0.13032716945485912 0 0.16352220872285878 0 0
          0.18764435526855192 -0.17399418573119063 0 -0.09986495723512831 0 0
          -0.0010201223536721593 -0.007374935262009247 0 0.5713662120114231 0 0
          0.03165425557726452 -0.0304437811340944 0 -0.04230978883835332 0 0
          -0.26015366383545757 0.28577020139158654 0 0.4917018990986518 0 0
          0.008214875225463741 -0.027300174436193397 0 0.046498342882478616 0 0
          0.2760957958831445 -0.28177724618188366 0 0.3181566392584224 0 0
          0.15037470542679396 -0.1581095792339887 0 0.03887880212520989 0 0
          0.014075192937086917 -0.016149187907887646 0 -0.00473918326644205 0 0
          -0.07341460178830819 0.08151768908642079 0 0.4429426527558116 0 0
          0.04456338316552105 -0.052981216236017925 0 0.3944837112791296 0 0
          0.058345972947465144 -0.055534801048041135 0 -0.18887292787734872 0 0
          0.2104890279273338 -0.1925707139470228 0 -0.43142550869424723 0 0
          -0.25479335156965616 0.2257043570854939 0 -0.5600018655338171 0 0
          -0.22557128991038403 0.23674205594457529 0 -0.2320894110249614 0 0
          0.05353035241240627 -0.06109385757006277 0 -0.008883689105882872 0 0
          0.1494007285124265 -0.1545471637156476 0 0.382742876405836 0 0
          0.01990722062021267 -0.01777318453438769 0 -0.002427855946691722 0 0
          -0.2138576799937636 0.21477493957562008 0 0.019634633111198764 0 0
          0.07449070183014629 -0.07066966158912535 0 0.17527787641320758 0 0
          0.20454004033564582 -0.198834962329496 0 0.06843836468177783 0 0
          -0.28981536227239646 0.308216846847358 0 0.26104281137042723 0 0
          0.0023985111183188936 -0.002148855982296508 0 -0.06931362844624564 0 0
          0.09821403308166263 -0.10363904753720948 0 -0.010364971811436738 0 0
          0.11776052025684253 -0.11419223928228019 0 -0.09043599582348727 0 0
          0.06079002931795512 -0.06171785993196522 0 -0.019406725986205773 0 0
          -0.04018570090318807 0.04130683887048604 0 -0.07287435433598577 0 0
          -0.1253183347315943 0.11907879576186553 0 -0.01489981853800312 0 0
          -0.06371537480517193 0.06700766918530772 0 -0.09749680093682242 0 0
          -0.13026660884065072 0.13853286212703406 0 -0.06835845067821657 0 0
          -0.04739516500767792 0.037062718778329624 0 0.10612681248371972 0 0
          0.1997551912697989 -0.19522943305045862 0 0.11167287886915751 0 0
          -0.03396040123472581 0.02692893670608228 0 -0.1340553656603627 0 0
          0.20186567675799252 -0.2020030954599238 0 0.028112475479203525 0 0
          0.08327142063888161 -0.0835603136023501 0 -0.006112162526646093 0 0
          -0.055416952920533974 0.05294599468005095 0 -0.044195974719691306 0 0
          0.02492154017139397 -0.029174259245173723 0 -0.04312268536827106 0 0
          -0.07990585882466385 0.07627734006912731 0 -0.016440694552385317 0 0
          0.0791688543645061 -0.06719203956189303 0 -0.06653890798142001 0 0
          -0.17770227477622244 0.17747287723239724 0 0.07790255164980284 0 0
          0.014532242742917634 -0.013645095479038666 0 -0.022310630192194928 0 0
          -0.07058337900973764 0.06873206682923078 0 -0.009854790506341067 0 0
          -0.08258711659551728 0.07346541475704262 0 -0.08655589324475142 0 0
          -0.03510742694728974 0.03520946390498048 0 -0.018913864241548756 0 0
          -0.039775830293393696 0.04785646767663073 0 0.07716194826269795 0 0
          -0.040568187070312005 0.04552216999784415 0 -0.0070749633295580094 0 0
          0.06737034517388937 -0.06521851684674551 0 0.018484017133682182 0 0
          0.051644665113898244 -0.049839766465542244 0 0.10687921823917633 0 0
          0.036281647680366666 -0.03811689752837664 0 -0.013392517318591597 0 0
          -0.029963213751406738 0.030644815962118363 0 0.048665301704485214 0 0
          0.09338748129508927 -0.10127947089311494 0 0.00220800364433503 0 0
          0.0017551141560186892 -0.004141347705132285 0 -0.03365553584523073 0 0
          -0.11885749816404387 0.11938123257713473 0 0.0161740642088584 0 0
          0.011039595608006322 -0.010432417395277564 0 0.02744378378434478 0 0
          -0.074085605250995 0.07506125156932074 0 -0.07897453866882548 0 0
          0.06562890558101747 -0.06562374955254506 0 0.1936704491893862 0 0
          0.02585085977669854 -0.02750218230376484 0 0.027725522454713422 0 0
          0.049608461147111496 -0.05124186171685007 0 0.04218914500201383 0 0
          0.029241849134234707 -0.029935513167383274 0 0.07177638698491928 0 0
          -0.024224763016436297 0.027505881567684635 0 0.07148803821792496 0 0
          -0.07157407907622004 0.0687723885044222 0 0.04905337940098488 0 0
          -0.20494724839376754 0.2115058728313996 0 -0.012511888471184326 0 0
          0.008850380465649548 -0.007729667458917147 0 0.006318516434975309 0 0
          0.0017678075244403433 -0.0026466000590576982 0 0.004053729101040807 0 0
          -0.010461353534522341 0.012423919930790369 0 0.035946928060459876 0 0
          -0.07550298225257962 0.07147034723881197 0 0.017015604868241222 0 0
          -0.005531855202664434 0.007717130307648957 0 0.042946238950741025 0 0
          0.0052466428566543336 -0.00785676199409373 0 0.07126272382496945 0 0
          -0.0015155761797116902 0.0016789587598924922 0 0.044097315818420704 0 0
          -0.018960838659878385 0.026365598433501808 0 0.01720736846234984 0 0
          -0.02134817001883196 0.021046137401427863 0 0.011240079341657976 0 0
          -0.008265235448197229 0.0075794120782087205 0 -0.0009306921206989202 0 0
          0.08925341792774408 -0.09874933213207948 0 -0.23705144037916753 0 0
          -0.007900239991858737 0.00888506584999725 0 -0.35276778444385204 0 0
          -0.324236029614052 0.32810546924605966 0 0.11449552443806221 0 0
          -0.026555462247417227 0.02558675790959046 0 -0.008916539445709665 0 0
          0.099067112215472 -0.10149880798140212 0 0.006043271109903856 0 0
          -0.04656182735012728 0.04696400291420515 0 0.03216054563207287 0 0
          -0.09977240741305544 0.08427830674075854 0 -0.2000534528406835 0 0
          -0.38193550778526697 0.3991320894068008 0 0.335350775915511 0 0
          <InformationKey name="L2_NORM_RANGE" location="vtkDataArray" length="2">
            <Value index="0">
              0.0051538679592
            </Value>
            <Value index="1">
              0.69209154773
            </Value>
          </InformationKey>
        </DataArray>
        <DataArray type="Float64" Name="ALEdispl" NumberOfComponents="3" format="ascii" RangeMin="0" RangeMax="0">
          0 0 0 0 0 0
          0 0 0 0 0 0
          0 0 0 0 0 0
          0 0 0 0 0 0
          0 0 0 0 0 0
          0 0 0 0 0 0
          0 0 0 0 0 0
          0 0 0 0 0 0
          0 0 0 0 0 0
          0 0 0 0 0 0
          0 0 0 0 0 0
          0 0 0 0 0 0
          0 0 0 0 0 0
          0 0 0 0 0 0
          0 0 0 0 0 0
          0 0 0 0 0 0
          0 0 0 0 0 0
          0 0 0 0 0 0
          0 0 0 0 0 0
          0 0 0 0 0 0
          0 0 0 0 0 0
          0 0 0 0 0 0
          0 0 0 0 0 0
          0 0 0 0 0 0
          0 0 0 0 0 0
          0 0 0 0 0 0
          0 0 0 0 0 0
          0 0 0 0 0 0
          0 0 0 0 0 0
          0 0 0 0 0 0
          0 0 0 0 0 0
          0 0 0 0 0 0
          0 0 0 0 0 0
          0 0 0 0 0 0
          0 0 0 0 0 0
          0 0 0 0 0 0
          0 0 0 0 0 0
          0 0 0 0 0 0
          0 0 0 0 0 0
          0 0 0 0 0 0
          0 0 0 0 0 0
          0 0 0 0 0 0
          0 0 0 0 0 0
          0 0 0 0 0 0
          0 0 0 0 0 0
          0 0 0 0 0 0
          0 0 0 0 0 0
          <InformationKey name="L2_NORM_RANGE" location="vtkDataArray" length="2">
            <Value index="0">
              0
            </Value>
            <Value index="1">
              0
            </Value>
          </InformationKey>
        </DataArray>
        <DataArray type="Float64" Name="ALEveloc" NumberOfComponents="3" format="ascii" RangeMin="0" RangeMax="0">
          0 0 0 0 0 0
          0 0 0 0 0 0
          0 0 0 0 0 0
          0 0 0 0 0 0
          0 0 0 0 0 0
          0 0 0 0 0 0
          0 0 0 0 0 0
          0 0 0 0 0 0
          0 0 0 0 0 0
          0 0 0 0 0 0
          0 0 0 0 0 0
          0 0 0 0 0 0
          0 0 0 0 0 0
          0 0 0 0 0 0
          0 0 0 0 0 0
          0 0 0 0 0 0
          0 0 0 0 0 0
          0 0 0 0 0 0
          0 0 0 0 0 0
          0 0 0 0 0 0
          0 0 0 0 0 0
          0 0 0 0 0 0
          0 0 0 0 0 0
          0 0 0 0 0 0
          0 0 0 0 0 0
          0 0 0 0 0 0
          0 0 0 0 0 0
          0 0 0 0 0 0
          0 0 0 0 0 0
          0 0 0 0 0 0
          0 0 0 0 0 0
          0 0 0 0 0 0
          0 0 0 0 0 0
          0 0 0 0 0 0
          0 0 0 0 0 0
          0 0 0 0 0 0
          0 0 0 0 0 0
          0 0 0 0 0 0
          0 0 0 0 0 0
          0 0 0 0 0 0
          0 0 0 0 0 0
          0 0 0 0 0 0
          0 0 0 0 0 0
          0 0 0 0 0 0
          0 0 0 0 0 0
          0 0 0 0 0 0
          0 0 0 0 0 0
          <InformationKey name="L2_NORM_RANGE" location="vtkDataArray" length="2">
            <Value index="0">
              0
            </Value>
            <Value index="1">
              0
            </Value>
          </InformationKey>
        </DataArray>
      </PointData>
      <CellData>
        <DataArray type="UInt8" Name="vtkGhostType" format="ascii" RangeMin="0" RangeMax="1">
          0 0 0 0 0 0
          0 0 1 0 0 1
          0 1 0 0 1 1
          1 0 0 0 0 0
          1 1 0 1 1 0
          1 1 0 1 0 0
          0 0 0 0 0 0
          0 0 0 0 0 0
          0 0 0 0 0 0
          0 0 0 0 0 0
          0 0 0 0 0 0
          0 0 0 0 0 0
          0 0 0 0 0 0
          0 0 0 0 0 0
          0 1 0 0 0 0
          0 0 0 1 0 0
          0 0 0 0 0 1
          0 0 0 0 0 0
          0 0 0 0 0 0
          0 0 0 0 0 0
          0 0 0 0 0 0
          0 0 0 0 0 0
          0 1 0 0 0 0
          0 0 0 0 0 0
          0 0 0 0 0 0
        </DataArray>
        <DataArray type="Float64" Name="PStrain" NumberOfComponents="6" format="ascii" RangeMin="0.1732050807568877" RangeMax="0.1732050807568877">
          0.09999999999999999 0.09999999999999999 0 0.09999999999999999 0 0
          0.09999999999999999 0.09999999999999999 0 0.09999999999999999 0 0
          0.09999999999999999 0.09999999999999999 0 0.09999999999999999 0 0
          0.09999999999999999 0.09999999999999999 0 0.09999999999999999 0 0
          0.09999999999999999 0.09999999999999999 0 0.09999999999999999 0 0
          0.09999999999999999 0.09999999999999999 0 0.09999999999999999 0 0
          0.09999999999999999 0.09999999999999999 0 0.09999999999999999 0 0
          0.09999999999999999 0.09999999999999999 0 0.09999999999999999 0 0
          0.09999999999999999 0.09999999999999999 0 0.09999999999999999 0 0
          0.09999999999999999 0.09999999999999999 0 0.09999999999999999 0 0
          0.09999999999999999 0.09999999999999999 0 0.09999999999999999 0 0
          0.09999999999999999 0.09999999999999999 0 0.09999999999999999 0 0
          0.09999999999999999 0.09999999999999999 0 0.09999999999999999 0 0
          0.09999999999999999 0.09999999999999999 0 0.09999999999999999 0 0
          0.09999999999999999 0.09999999999999999 0 0.09999999999999999 0 0
          0.09999999999999999 0.09999999999999999 0 0.09999999999999999 0 0
          0.09999999999999999 0.09999999999999999 0 0.09999999999999999 0 0
          0.09999999999999999 0.09999999999999999 0 0.09999999999999999 0 0
          0.09999999999999999 0.09999999999999999 0 0.09999999999999999 0 0
          0.09999999999999999 0.09999999999999999 0 0.09999999999999999 0 0
          0.09999999999999999 0.09999999999999999 0 0.09999999999999999 0 0
          0.09999999999999999 0.09999999999999999 0 0.09999999999999999 0 0
          0.09999999999999999 0.09999999999999999 0 0.09999999999999999 0 0
          0.09999999999999999 0.09999999999999999 0 0.09999999999999999 0 0
          0.09999999999999999 0.09999999999999999 0 0.09999999999999999 0 0
          0.09999999999999999 0.09999999999999999 0 0.09999999999999999 0 0
          0.09999999999999999 0.09999999999999999 0 0.09999999999999999 0 0
          0.09999999999999999 0.09999999999999999 0 0.09999999999999999 0 0
          0.09999999999999999 0.09999999999999999 0 0.09999999999999999 0 0
          0.09999999999999999 0.09999999999999999 0 0.09999999999999999 0 0
          0.09999999999999999 0.09999999999999999 0 0.09999999999999999 0 0
          0.09999999999999999 0.09999999999999999 0 0.09999999999999999 0 0
          0.09999999999999999 0.09999999999999999 0 0.09999999999999999 0 0
          0.09999999999999999 0.09999999999999999 0 0.09999999999999999 0 0
          0.09999999999999999 0.09999999999999999 0 0.09999999999999999 0 0
          0.09999999999999999 0.09999999999999999 0 0.09999999999999999 0 0
          0.09999999999999999 0.09999999999999999 0 0.09999999999999999 0 0
          0.09999999999999999 0.09999999999999999 0 0.09999999999999999 0 0
          0.09999999999999999 0.09999999999999999 0 0.09999999999999999 0 0
          0.09999999999999999 0.09999999999999999 0 0.09999999999999999 0 0
          0.09999999999999999 0.09999999999999999 0 0.09999999999999999 0 0
          0.09999999999999999 0.09999999999999999 0 0.09999999999999999 0 0
          0.09999999999999999 0.09999999999999999 0 0.09999999999999999 0 0
          0.09999999999999999 0.09999999999999999 0 0.09999999999999999 0 0
          0.09999999999999999 0.09999999999999999 0 0.09999999999999999 0 0
          0.09999999999999999 0.09999999999999999 0 0.09999999999999999 0 0
          0.09999999999999999 0.09999999999999999 0 0.09999999999999999 0 0
          0.09999999999999999 0.09999999999999999 0 0.09999999999999999 0 0
          0.09999999999999999 0.09999999999999999 0 0.09999999999999999 0 0
          0.09999999999999999 0.09999999999999999 0 0.09999999999999999 0 0
          0.09999999999999999 0.09999999999999999 0 0.09999999999999999 0 0
          0.09999999999999999 0.09999999999999999 0 0.09999999999999999 0 0
          0.09999999999999999 0.09999999999999999 0 0.09999999999999999 0 0
          0.09999999999999999 0.09999999999999999 0 0.09999999999999999 0 0
          0.09999999999999999 0.09999999999999999 0 0.09999999999999999 0 0
          0.09999999999999999 0.09999999999999999 0 0.09999999999999999 0 0
          0.09999999999999999 0.09999999999999999 0 0.09999999999999999 0 0
          0.09999999999999999 0.09999999999999999 0 0.09999999999999999 0 0
          0.09999999999999999 0.09999999999999999 0 0.09999999999999999 0 0
          0.09999999999999999 0.09999999999999999 0 0.09999999999999999 0 0
          0.09999999999999999 0.09999999999999999 0 0.09999999999999999 0 0
          0.09999999999999999 0.09999999999999999 0 0.09999999999999999 0 0
          0.09999999999999999 0.09999999999999999 0 0.09999999999999999 0 0
          0.09999999999999999 0.09999999999999999 0 0.09999999999999999 0 0
          0.09999999999999999 0.09999999999999999 0 0.09999999999999999 0 0
          0.09999999999999999 0.09999999999999999 0 0.09999999999999999 0 0
          0.09999999999999999 0.09999999999999999 0 0.09999999999999999 0 0
          0.09999999999999999 0.09999999999999999 0 0.09999999999999999 0 0
          0.09999999999999999 0.09999999999999999 0 0.09999999999999999 0 0
          0.09999999999999999 0.09999999999999999 0 0.09999999999999999 0 0
          0.09999999999999999 0.09999999999999999 0 0.09999999999999999 0 0
          0.09999999999999999 0.09999999999999999 0 0.09999999999999999 0 0
          0.09999999999999999 0.09999999999999999 0 0.09999999999999999 0 0
          0.09999999999999999 0.09999999999999999 0 0.09999999999999999 0 0
          0.09999999999999999 0.09999999999999999 0 0.09999999999999999 0 0
          0.09999999999999999 0.09999999999999999 0 0.09999999999999999 0 0
          0.09999999999999999 0.09999999999999999 0 0.09999999999999999 0 0
          0.09999999999999999 0.09999999999999999 0 0.09999999999999999 0 0
          0.09999999999999999 0.09999999999999999 0 0.09999999999999999 0 0
          0.09999999999999999 0.09999999999999999 0 0.09999999999999999 0 0
          0.09999999999999999 0.09999999999999999 0 0.09999999999999999 0 0
          0.09999999999999999 0.09999999999999999 0 0.09999999999999999 0 0
          0.09999999999999999 0.09999999999999999 0 0.09999999999999999 0 0
          0.09999999999999999 0.09999999999999999 0 0.09999999999999999 0 0
          0.09999999999999999 0.09999999999999999 0 0.09999999999999999 0 0
          0.09999999999999999 0.09999999999999999 0 0.09999999999999999 0 0
          0.09999999999999999 0.09999999999999999 0 0.09999999999999999 0 0
          0.09999999999999999 0.09999999999999999 0 0.09999999999999999 0 0
          0.09999999999999999 0.09999999999999999 0 0.09999999999999999 0 0
          0.09999999999999999 0.09999999999999999 0 0.09999999999999999 0 0
          0.09999999999999999 0.09999999999999999 0 0.09999999999999999 0 0
          0.09999999999999999 0.09999999999999999 0 0.09999999999999999 0 0
          0.09999999999999999 0.09999999999999999 0 0.09999999999999999 0 0
          0.09999999999999999 0.09999999999999999 0 0.09999999999999999 0 0
          0.09999999999999999 0.09999999999999999 0 0.09999999999999999 0 0
          0.09999999999999999 0.09999999999999999 0 0.09999999999999999 0 0
          0.09999999999999999 0.09999999999999999 0 0.09999999999999999 0 0
          0.09999999999999999 0.09999999999999999 0 0.09999999999999999 0 0
          0.09999999999999999 0.09999999999999999 0 0.09999999999999999 0 0
          0.09999999999999999 0.09999999999999999 0 0.09999999999999999 0 0
          0.09999999999999999 0.09999999999999999 0 0.09999999999999999 0 0
          0.09999999999999999 0.09999999999999999 0 0.09999999999999999 0 0
          0.09999999999999999 0.09999999999999999 0 0.09999999999999999 0 0
          0.09999999999999999 0.09999999999999999 0 0.09999999999999999 0 0
          0.09999999999999999 0.09999999999999999 0 0.09999999999999999 0 0
          0.09999999999999999 0.09999999999999999 0 0.09999999999999999 0 0
          0.09999999999999999 0.09999999999999999 0 0.09999999999999999 0 0
          0.09999999999999999 0.09999999999999999 0 0.09999999999999999 0 0
          0.09999999999999999 0.09999999999999999 0 0.09999999999999999 0 0
          0.09999999999999999 0.09999999999999999 0 0.09999999999999999 0 0
          0.09999999999999999 0.09999999999999999 0 0.09999999999999999 0 0
          0.09999999999999999 0.09999999999999999 0 0.09999999999999999 0 0
          0.09999999999999999 0.09999999999999999 0 0.09999999999999999 0 0
          0.09999999999999999 0.09999999999999999 0 0.09999999999999999 0 0
          0.09999999999999999 0.09999999999999999 0 0.09999999999999999 0 0
          0.09999999999999999 0.09999999999999999 0 0.09999999999999999 0 0
          0.09999999999999999 0.09999999999999999 0 0.09999999999999999 0 0
          0.09999999999999999 0.09999999999999999 0 0.09999999999999999 0 0
          0.09999999999999999 0.09999999999999999 0 0.09999999999999999 0 0
          0.09999999999999999 0.09999999999999999 0 0.09999999999999999 0 0
          0.09999999999999999 0.09999999999999999 0 0.09999999999999999 0 0
          0.09999999999999999 0.09999999999999999 0 0.09999999999999999 0 0
          0.09999999999999999 0.09999999999999999 0 0.09999999999999999 0 0
          0.09999999999999999 0.09999999999999999 0 0.09999999999999999 0 0
          0.09999999999999999 0.09999999999999999 0 0.09999999999999999 0 0
          0.09999999999999999 0.09999999999999999 0 0.09999999999999999 0 0
          0.09999999999999999 0.09999999999999999 0 0.09999999999999999 0 0
          0.09999999999999999 0.09999999999999999 0 0.09999999999999999 0 0
          0.09999999999999999 0.09999999999999999 0 0.09999999999999999 0 0