<?xml version="1.0"?>
<VTKFile type="UnstructuredGrid" version="0.1" byte_order="LittleEndian" header_type="UInt32" compressor="vtkZLibDataCompressor">
  <UnstructuredGrid>
    <Piece NumberOfPoints="97" NumberOfCells="154">
      <PointData>
        <DataArray type="Float64" Name="Velocity" NumberOfComponents="3" format="ascii" RangeMin="0" RangeMax="5.206629687394724">
          0.6312781218385012 0.5684129375375649 0 1.1536818564811142 0 0
          0.8514928303918469 -0.007065368563039085 0 0.9583468049534154 0.029997101772731377 0
          1.0583980379920181 0.05716370717759376 0 0.9956493707320936 0 0
          0.7270043751089518 -0.5044234536268369 0 1.065487270152412 0 0
          0.999056058578038 -0.0399837864303007 0 1.002881608964622 0.003718935098775826 0
          0.9994430538781433 0 0 0.9621054659924962 0 0
          1.0092667483374962 0 0 0.9976986637259243 0 0
          0.9968118814155588 0.0025370151084607405 0 0.9979795024435665 0.002418095645695332 0
          1.0039085235673422 0 0 0.9932087129699201 0 0
          1.0030808406924185 0.003794905844604437 0 0.9958133686075646 0.00016471581530071101 0
          0.9998929719252135 -0.00055255204580358 0 1.0114550598655572 0 0
          0.9914324424042137 0 0 1.002024523900929 0.011799620812603077 0
          0.9981191573838614 -0.018316268263831825 0 0.9972944058647929 -0.007883832070134069 0
          1.0291195880061639 0 0 1.029778016055044 0 0
          0.978841030175687 -0.005318024803020845 0 1.0170211000530545 -0.05673395132233324 0
          0.9760703787392161 -0.040184655859695696 0 1.016879610881818 -0.03709791074098968 0
          1.0875004792899146 0 0 1.04009675752242 0 0
          1.0412624541449849 -0.16088632703633005 0 0.9452463903339714 -0.1651893146902923 0
          0.9319113192974807 0.006728579627305182 0 1.0007133389305556 0 0
          1.2304680808338926 -0.17300399868786523 0 1.0316485166135136 -0.35185471831614373 0
          0.7747010080680959 -0.3245887120898412 0 1.2182024097689015 -0.5719197349134496 0
          0.8392795319587915 -0.08062923208685732 0 1.034538765436736 -0.7383239160846253 0
          1.0858333787584664 -0.4141002555025734 0 0.5972247699416012 -0.3239770273122698 0
          1.202741658324743 0 0 1.1933840675566703 -0.7109487260200441 0
          0.5611565116617713 -0.1472080762552504 0 1.6602363901603627 -0.4969240578115952 0
          0.9345252706253449 -1.0559755245744618 0 0.7186988550815357 0.06631890423370086 0
          0.48042919784381943 -0.7315294122290162 0 1.5333255818429603 -0.9809559313381339 0
          0.6984550239860179 -0.2884007058350979 0 0.8064107907459911 -1.1020120395919766 0
          1.3754331767048746 -0.8590669312767238 0 0.3502746466481067 -0.5451849635654195 0
          0.8330564820928966 -1.5089440781101513 0 1.447098516842917 0 0
          0.2998292195991589 -1.1345367188348527 0 0.4319991791668547 -0.2152457256746246 0
          1.3450940251142813 -1.3505679571473117 0 -0.09766001142361898 -0.6039268135922717 0
          0.08396996767427456 -1.2535734777435938 0 2.380351607454288 -0.9245506263597326 0
          0.1816884359802663 -0.7083422347175339 0 1.6518785680742243 -2.675935616980462 0
          -0.12281751429222354 -1.2122219812615946 0 3.7421933366027504 -3.0845920661533475 0
          1.0038873602753504 -0.36176681322351667 0 -0.7693586560734085 -2.74741444588307 0
          0.931590028754217 0 0 0.04865071529607032 -0.38951072584494456 0
          0.08953719390857406 -3.014876743406764 0 -0.584435701437824 -1.0391209849081595 0
          -0.938198958217624 -0.36989180103460473 0 -1.9166646661959705 0.7311855834263163 0
          0.07654890228193165 0 0 0.21234295983707935 -0.34910057901272007 0
          -0.5895820556748619 -0.23911696260648757 0 -0.023586372068274564 -0.7046501681050988 0
          0 0 0 0.18011222569007598 0 0
          0 0 0 0 0 0
          0 0 0 0 0 0
          1.3019263353197303 -0.11164199127784494 0 1.4908813646322059 -0.3256179442371503 0
          1.0826187456224357 0 0 3.153375421579088 -0.9849093039345899 0
          1.9058024743310749 -1.2009874166327021 0 2.9088395536521565 -0.9027901484355476 0
          1.113779000034579 -0.8640341090702275 0 2.511142776928189 4.561047539276636 0
          0 0 0
          <InformationKey name="L2_NORM_RANGE" location="vtkDataArray" length="2">
            <Value index="0">
              0
            </Value>
            <Value index="1">
              5.2066296874
            </Value>
          </InformationKey>
        </DataArray>
        <DataArray type="Float64" Name="Pressure" format="ascii" RangeMin="-37.79113890756521" RangeMax="28.658617171730963">
          0.66987417144335 -0.12927284079676693 -0.4923598554683853 0.5188484555386711 -0.21215492078722945 -0.40189790797941954
          -0.17100455843957493 1.7880344054205768 -0.9107233187502227 0.02731378737403775 -0.08856071987977347 -1.5468300707987694
          0.0956937862256163 0.021966567857062275 -0.18503579932962377 -0.013174822889736398 -0.148729342511368 0.11127958149988945
          -0.2400422892558232 -0.022119062500989592 -0.0710552072225592 -0.25113388263793196 0.17660870843305254 -0.28837862276922477
          -0.04716822444745335 0.02541531358360996 -0.0002464567457332867 -0.2025975120819989 -0.3000906190556963 0.05530667692477721
          0.37624120415250567 0.037452195282076405 -0.12022515989770693 -1.0877956802165998 0.16385751502539142 1.056720815093286
          0.8786117519994124 3.625902021214337 -1.8111458917357444 1.2631852998491837 2.8449119841952983 -1.0873887607849624
          3.7973448090844064 1.609706823312686 0.9235693164141164 3.795839037343297 5.687956013238996 -0.36947862290934613
          3.5195281106252745 -3.8943029420200093 0.7490725378353538 4.273271635186944 4.6375315064974645 -1.0705415159254765
          2.703401574293078 2.8514650466096234 -1.1139968030932108 5.205050487665732 1.721112487771801 1.6293959880539128
          5.415739897482127 6.577331599475244 -0.8108135574325639 7.249981954100123 5.010797466924796 -8.929196482475213
          8.63764206935528 -5.073181202897522 7.284910175354961 -23.30522787814894 4.79089518608107 -2.2795204539322818
          2.721054375997263 8.99978461747699 -14.490939931487933 13.291346052475323 9.601450760415087 -14.103396399646071
          7.626565968199325 17.345232578378898 23.453443255375777 11.319458485991897 15.904729241824464 23.265151675857034
          26.95064933794885 16.662444191964138 23.30730267836069 28.658617171730963 -3.343305336721363 -3.1311495031281673
          -1.800522467815662 -6.880516708525679 -2.3848665557231232 -11.63683273116679 -1.1686759689752493 -37.79113890756521
          -34.939645616425274
        </DataArray>
        <DataArray type="Float64" Name="BTraction" NumberOfComponents="3" format="ascii" RangeMin="0" RangeMax="30.866554756310766">
          -0.16138958247265228 -0.1702544260848851 0 0.007560153609486988 0.05011842759334558 0
          0.2274622280316258 0.001643767899813137 0 0 0 0
          0 0 0 0.002335753019136568 0.30318805720632774 0
          0.14384294873314254 0.21482310078609534 0 0.007011439744935579 0.9015499646819409 0
          0 0 0 0 0 0
          0.0001158261162826607 0.12170069033300826 0 -0.0029557636070112027 -0.7157142721607808 0
          -0.000617630376610662 -0.21803565450488463 0 -0.00013864936370194141 -0.014750508314943489 0
          0 0 0 0 0 0
          0.00037536327532879744 -0.11899246900854933 0 -0.00022197649330549214 -0.10379012997520191 0
          0 0 0 0 0 0
          0 0 0 0.0007410109255202637 -0.1969630184791364 0
          -0.00004546742249922251 -0.10659077372797131 0 0 0 0
          0 0 0 0 0 0
          0.0031833190368848294 -0.06563300008205614 0 0.0004131872592326762 0.27422501954686207 0
          0 0 0 0 0 0
          0 0 0 0 0 0
          0.008212283499716786 0.47801667169243095 0 -0.0045220809799096555 1.0560588473653325 0
          0 0 0 0 0 0
          0 0 0 0.010559808335963367 3.292167505755065 0
          0 0 0 0 0 0
          0 0 0 0 0 0
          0 0 0 0 0 0
          0 0 0 0 0 0
          0.04569016681424054 4.709984785027193 0 0 0 0
          0 0 0 0 0 0
          0 0 0 0 0 0
          0 0 0 0 0 0
          0 0 0 0 0 0
          0 0 0 0 0 0
          0 0 0 0.06887425023626718 2.5644915627904026 0
          0 0 0 0 0 0
          0 0 0 0 0 0
          0 0 0 0 0 0
          0 0 0 0 0 0
          0 0 0 0 0 0
          0 0 0 0 0 0
          0.021182292865615703 3.3476337800598874 0 0 0 0
          0 0 0 0 0 0
          0 0 0 0 0 0
          -0.036708154021717135 9.275382103581688 0 0 0 0
          0 0 0 0 0 0
          10.251804896627142 -0.16783590084952954 0 -0.0027038522577822388 21.452842092697946 0
          23.439626678897866 0.10410585366486573 0 19.514532227047802 0.08012684531577732 0
          23.010626536793264 0.026165238680444357 0 13.331253756550824 13.586424011759988 0
          0 0 0 0 0 0
          -0.004489315898230527 2.4645402474590465 0 0 0 0
          0 0 0 0 0 0
          0 0 0 0 0 0
          -30.85057388595605 -0.9931230696632656 0
          <InformationKey name="L2_NORM_RANGE" location="vtkDataArray" length="2">
            <Value index="0">
              0
            </Value>
            <Value index="1">
              30.866554756
            </Value>
          </InformationKey>
        </DataArray>
        <DataArray type="Float64" Name="Sigma" NumberOfComponents="6" format="ascii" RangeMin="0.00018141336592743918" RangeMax="1.4548817174273985">
          -0.039606317108527675 0.039794964952042794 0 0.0134843974511456 0 0
          -0.0036919915552028793 0.0035377122344969142 0 0.0075514803944693 0 0
          -0.011420520657964133 0.011432164897740318 0 0.001779435827661975 0 0
          0.003528837217605555 -0.0033432807326028717 0 0.0005402961501160866 0 0
          -0.0023780365115459575 0.002258686706647607 0 -0.003856872644346098 0 0
          0.0022291332604586138 -0.002350348053094357 0 0.001670602627899123 0 0
          -0.020508040939627836 0.020341294362755953 0 -0.010739533362914678 0 0
          -0.001196082827071235 0.0018231880216817125 0 -0.009588609632583792 0 0
          -0.0009329929266658065 0.0008987324077983637 0 -0.0002600723109818649 0 0
          -0.0016916642831672768 0.0016758135725661557 0 -0.0003872461411658515 0 0
          0.0004927621757696267 -0.0004331693783717988 0 -0.00021937279124638223 0 0
          0.0023667921030263626 -0.0026308420971635467 0 0.007025333423636379 0 0
          0.0007280691499237425 -0.0006062782172284258 0 -0.0007781424198945184 0 0
          -0.00010256323927956972 0.00011294792318000693 0 -0.00009815476521762933 0 0
          0.00020498700516842868 -0.00026578757228471394 0 0.00021874134193975944 0 0
          0.00016580352646298222 -0.0001435908496386268 0 -0.00018738388613916064 0 0
          -0.0005180687203649844 0.0004856135877132882 0 -0.0002069814843943304 0 0
          0.00005683708996754461 -0.00006239492754784405 0 -0.00021997064625827156 0 0
          0.00022591763408490086 -0.0001805795517557371 0 -0.0004097510466251399 0 0
          -0.0001711560934185298 0.00022265287042082325 0 0.00015932105892788314 0 0
          0.00016819092473542555 -0.00024639746132892177 0 0.00030458997867500857 0 0
          -0.0014402585876663548 0.001398164567964038 0 -0.0006294261711805333 0 0
          -0.0007785160983576056 0.0009148878905729536 0 -0.0003924101947432265 0 0
          0.0011589441064650439 -0.0012491869904466897 0 -0.0003422181505815359 0 0
          -0.000029599445061509794 0.0000739823084245345 0 0.0014198932127787822 0 0
          -0.0017650872750896137 0.0017390350099097686 0 0.00015639076053353102 0 0
          -0.0015842059720040287 0.001818562889119678 0 -0.00196470014686646 0 0
          -0.0002535089420962628 0.00007085702293484046 0 0.001687473493893388 0 0
          0.000876474726109137 -0.0008867949195316828 0 -0.00036416597126294654 0 0
          -0.0008260906068281084 0.0005430292719619678 0 0.006037757909550846 0 0
          0.0038554509254562996 -0.003621665059194836 0 0.003185874395711933 0 0
          -0.006590620738654908 0.007088618800924811 0 0.002805785808664437 0 0
          -0.0014056792398623537 0.0012233933745373871 0 -0.011576900356354664 0 0
          -0.00678046511932811 0.006429805683610426 0 -0.004124817714851917 0 0
          -0.0076352412172683605 0.007844818172341367 0 0.005973013608486427 0 0
          0.005658930125083134 -0.00569161544955034 0 0.016324215556517467 0 0
          0.009152094909537306 -0.009237583004267802 0 0.0016626731384945886 0 0
          -0.006582073413142646 0.006305502737591208 0 -0.0009257710395016968 0 0
          -0.0201564165744319 0.01936477390100988 0 0.010886484241190831 0 0
          -0.011933167570824244 0.012201103889843027 0 0.03297900745909624 0 0
          0.023177615746189824 -0.023530461140785646 0 0.017504178649711558 0 0
          -0.031531510398870415 0.033055608322116056 0 0.028450502138439526 0 0
          0.021321217882402328 -0.020968644834066807 0 -0.013345833556623003 0 0
          0.01982294170463692 -0.021500036105504588 0 0.0317599590462247 0 0
          -0.026499759790287222 0.025894859614332452 0 0.0533131843789417 0 0
          0.045198631266315556 -0.043307476776257736 0 0.09114021242916502 0 0
          -0.0065328939460071594 0.008371884677924641 0 -0.049954512705809376 0 0
          -0.09722057823355926 0.10916537236108727 0 0.04443722574772849 0 0
          0.041189039086273 -0.03911901125603359 0 0.01772812929090902 0 0
          0.0190735331389145 -0.03152410640814663 0 0.05148354241873896 0 0
          -0.02449288753782223 0.02817467650201303 0 0.11872228476076233 0 0
          0.0020409469490771026 -0.0015533712741797171 0 -0.011226462239312524 0 0
          0.029547302349103428 -0.02910099924147749 0 0.07236495462303855 0 0
          -0.018598255282100774 0.007353444552925033 0 0.05590667168300733 0 0
          0.07637979664393982 -0.0831256059081673 0 0.022207929441859682 0 0
          0.06424169291288875 -0.06660004324679772 0 0.06333489728508691 0 0
          0.015195882011942555 -0.023213240373489888 0 -0.0503654827877214 0 0
          0.06003355041766789 -0.05956006727374372 0 0.025879728271133263 0 0
          -0.004119424842680177 0.0011053323723992283 0 0.1504414804155959 0 0
          0.03214525017546495 -0.03695924427773303 0 -0.08430961195157799 0 0
          0.0724216312457928 -0.07386283813193477 0 0.01066072732886035 0 0
          0.0218416198390207 -0.015895085026689994 0 -0.02347088904558254 0 0
          -0.320759091075396 0.3442740318832671 0 0.23245397687867958 0 0
          0.03469553975462404 -0.03319197193180682 0 -0.031113370975702624 0 0
          0.1380054764892314 -0.13760579939398127 0 0.25038056866167036 0 0
          -0.311338808124679 0.31681762152266574 0 0.07950473877857131 0 0
          0.10730363909841625 -0.10657191270914035 0 0.08478264652227004 0 0
          0.0829597318276074 -0.0768801661618217 0 0.49145884554112607 0 0
          0.170965819817248 -0.16595793937526135 0 -0.0454132804862249 0 0
          -0.36126420502849876 0.3100164946055172 0 0.08202762696545904 0 0
          0.04511810092335765 -0.04386380182750364 0 -0.00043355216822158274 0 0
          0.6051682912713006 -0.6079077826654813 0 0.09658424037339422 0 0
          0.04459938458238301 -0.046648294919714735 0 -0.02356739637916593 0 0
          0.009684645786533223 -0.00923927576492615 0 -0.07340392442548026 0 0
          -0.07406545793537848 0.08424940063978538 0 0.10467935893140784 0 0
          0.09256553993213033 -0.09567092086435978 0 -0.08741861905274181 0 0
          -0.004629176542813869 -0.009649199982474474 0 -0.23923560310050176 0 0
          -0.2713465648540872 0.2688645739975748 0 -0.644761718668271 0 0
          0.13064867402521732 -0.13322363446515675 0 0.06131116271293938 0 0
          -0.03059893877985308 0.034607269974146024 0 -0.01484919098500281 0 0
          -0.01946222180118576 0.022425708532490263 0 -0.1580779224819877 0 0
          0.05208826812428537 -0.0572377203835798 0 -0.047510094230548264 0 0
          -0.265597877370775 0.29245470918018696 0 -0.014921186031204459 0 0
          0.06679932492703594 -0.05240222769920524 0 0.00028001840544781935 0 0
          -0.006370757633054117 0.0018277904637468041 0 -0.13173447116244344 0 0
          0.015300933719046488 -0.021325107734581128 0 -0.08390314573725424 0 0
          0.006001468939866633 -0.0022103161089490923 0 -0.005089334244370485 0 0
          -0.014145958262793579 -0.006863510501841369 0 -0.05148734661968675 0 0
          -0.023844853766468076 0.02337916657182217 0 0.0000376781181217244 0 0
          -0.03312087944205046 0.032650415601024906 0 -0.01198136956991606 0 0
          -0.012807140866956633 0.014733173900206347 0 -0.012847739442745988 0 0
          0.5736384763772149 -0.548643425083305 0 -0.40677123030637397 0 0
          -0.3373047957679792 0.36107415703546564 0 -0.17668854236661868 0 0
          0.15820231323178183 -0.17511624923287478 0 0.04669841531455788 0 0
          -0.23816207963536734 0.2552239121976197 0 0.00867360422227554 0 0
          0.2970901583175857 -0.26770293124278316 0 -0.11716609815154588 0 0
          -0.47554086374913473 0.449310744370672 0 1.2994851109582966 0 0
          <InformationKey name="L2_NORM_RANGE" location="vtkDataArray" length="2">
            <Value index="0">
              0.00018141336593
            </Value>
            <Value index="1">
              1.4548817174
            </Value>
          </InformationKey>
        </DataArray>
        <DataArray type="Float64" Name="ALEdispl" NumberOfComponents="3" format="ascii" RangeMin="0" RangeMax="0">
          0 0 0 0 0 0
          0 0 0 0 0 0
          0 0 0 0 0 0
          0 0 0 0 0 0
          0 0 0 0 0 0
          0 0 0 0 0 0
          0 0 0 0 0 0
          0 0 0 0 0 0
          0 0 0 0 0 0
          0 0 0 0 0 0
          0 0 0 0 0 0
          0 0 0 0 0 0
          0 0 0 0 0 0
          0 0 0 0 0 0
          0 0 0 0 0 0
          0 0 0 0 0 0
          0 0 0 0 0 0
          0 0 0 0 0 0
          0 0 0 0 0 0
          0 0 0 0 0 0
          0 0 0 0 0 0
          0 0 0 0 0 0
          0 0 0 0 0 0
          0 0 0 0 0 0
          0 0 0 0 0 0
          0 0 0 0 0 0
          0 0 0 0 0 0
          0 0 0 0 0 0
          0 0 0 0 0 0
          0 0 0 0 0 0
          0 0 0 0 0 0
          0 0 0 0 0 0
          0 0 0 0 0 0
          0 0 0 0 0 0
          0 0 0 0 0 0
          0 0 0 0 0 0
          0 0 0 0 0 0
          0 0 0 0 0 0
          0 0 0 0 0 0
          0 0 0 0 0 0
          0 0 0 0 0 0
          0 0 0 0 0 0
          0 0 0 0 0 0
          0 0 0 0 0 0
          0 0 0 0 0 0
          0 0 0 0 0 0
          0 0 0 0 0 0
          0 0 0 0 0 0
          0 0 0
          <InformationKey name="L2_NORM_RANGE" location="vtkDataArray" length="2">
            <Value index="0">
              0
            </Value>
            <Value index="1">
              0
            </Value>
          </InformationKey>
        </DataArray>
        <DataArray type="Float64" Name="ALEveloc" NumberOfComponents="3" format="ascii" RangeMin="0" RangeMax="0">
          0 0 0 0 0 0
          0 0 0 0 0 0
          0 0 0 0 0 0
          0 0 0 0 0 0
          0 0 0 0 0 0
          0 0 0 0 0 0
          0 0 0 0 0 0
          0 0 0 0 0 0
          0 0 0 0 0 0
          0 0 0 0 0 0
          0 0 0 0 0 0
          0 0 0 0 0 0
          0 0 0 0 0 0
          0 0 0 0 0 0
          0 0 0 0 0 0
          0 0 0 0 0 0
          0 0 0 0 0 0
          0 0 0 0 0 0
          0 0 0 0 0 0
          0 0 0 0 0 0
          0 0 0 0 0 0
          0 0 0 0 0 0
          0 0 0 0 0 0
          0 0 0 0 0 0
          0 0 0 0 0 0
          0 0 0 0 0 0
          0 0 0 0 0 0
          0 0 0 0 0 0
          0 0 0 0 0 0
          0 0 0 0 0 0
          0 0 0 0 0 0
          0 0 0 0 0 0
          0 0 0 0 0 0
          0 0 0 0 0 0
          0 0 0 0 0 0
          0 0 0 0 0 0
          0 0 0 0 0 0
          0 0 0 0 0 0
          0 0 0 0 0 0
          0 0 0 0 0 0
          0 0 0 0 0 0
          0 0 0 0 0 0
          0 0 0 0 0 0
          0 0 0 0 0 0
          0 0 0 0 0 0
          0 0 0 0 0 0
          0 0 0 0 0 0
          0 0 0 0 0 0
          0 0 0
          <InformationKey name="L2_NORM_RANGE" location="vtkDataArray" length="2">
            <Value index="0">
              0
            </Value>
            <Value index="1">
              0
            </Value>
          </InformationKey>
        </DataArray>
      </PointData>
      <CellData>
        <DataArray type="UInt8" Name="vtkGhostType" format="ascii" RangeMin="0" RangeMax="0">
          0 0 0 0 0 0
          0 0 0 0 0 0
          0 0 0 0 0 0
          0 0 0 0 0 0
          0 0 0 0 0 0
          0 0 0 0 0 0
          0 0 0 0 0 0
          0 0 0 0 0 0
          0 0 0 0 0 0
          0 0 0 0 0 0
          0 0 0 0 0 0
          0 0 0 0 0 0
          0 0 0 0 0 0
          0 0 0 0 0 0
          0 0 0 0 0 0
          0 0 0 0 0 0
          0 0 0 0 0 0
          0 0 0 0 0 0
          0 0 0 0 0 0
          0 0 0 0 0 0
          0 0 0 0 0 0
          0 0 0 0 0 0
          0 0 0 0 0 0
          0 0 0 0 0 0
          0 0 0 0 0 0
          0 0 0 0
        </DataArray>
        <DataArray type="Float64" Name="PStrain" NumberOfComponents="6" format="ascii" RangeMin="0.1732050807568877" RangeMax="0.1732050807568877">
          0.09999999999999999 0.09999999999999999 0 0.09999999999999999 0 0
          0.09999999999999999 0.09999999999999999 0 0.09999999999999999 0 0
          0.09999999999999999 0.09999999999999999 0 0.09999999999999999 0 0
          0.09999999999999999 0.09999999999999999 0 0.09999999999999999 0 0
          0.09999999999999999 0.09999999999999999 0 0.09999999999999999 0 0
          0.09999999999999999 0.09999999999999999 0 0.09999999999999999 0 0
          0.09999999999999999 0.09999999999999999 0 0.09999999999999999 0 0
          0.09999999999999999 0.09999999999999999 0 0.09999999999999999 0 0
          0.09999999999999999 0.09999999999999999 0 0.09999999999999999 0 0
          0.09999999999999999 0.09999999999999999 0 0.09999999999999999 0 0
          0.09999999999999999 0.09999999999999999 0 0.09999999999999999 0 0
          0.09999999999999999 0.09999999999999999 0 0.09999999999999999 0 0
          0.09999999999999999 0.09999999999999999 0 0.09999999999999999 0 0
          0.09999999999999999 0.09999999999999999 0 0.09999999999999999 0 0
          0.09999999999999999 0.09999999999999999 0 0.09999999999999999 0 0
          0.09999999999999999 0.09999999999999999 0 0.09999999999999999 0 0
          0.09999999999999999 0.09999999999999999 0 0.09999999999999999 0 0
          0.09999999999999999 0.09999999999999999 0 0.09999999999999999 0 0
          0.09999999999999999 0.09999999999999999 0 0.09999999999999999 0 0
          0.09999999999999999 0.09999999999999999 0 0.09999999999999999 0 0
          0.09999999999999999 0.09999999999999999 0 0.09999999999999999 0 0
          0.09999999999999999 0.09999999999999999 0 0.09999999999999999 0 0
          0.09999999999999999 0.09999999999999999 0 0.09999999999999999 0 0
          0.09999999999999999 0.09999999999999999 0 0.09999999999999999 0 0
          0.09999999999999999 0.09999999999999999 0 0.09999999999999999 0 0
          0.09999999999999999 0.09999999999999999 0 0.09999999999999999 0 0
          0.09999999999999999 0.09999999999999999 0 0.09999999999999999 0 0
          0.09999999999999999 0.09999999999999999 0 0.09999999999999999 0 0
          0.09999999999999999 0.09999999999999999 0 0.09999999999999999 0 0
          0.09999999999999999 0.09999999999999999 0 0.09999999999999999 0 0
          0.09999999999999999 0.09999999999999999 0 0.09999999999999999 0 0
          0.09999999999999999 0.09999999999999999 0 0.09999999999999999 0 0
          0.09999999999999999 0.09999999999999999 0 0.09999999999999999 0 0
          0.09999999999999999 0.09999999999999999 0 0.09999999999999999 0 0
          0.09999999999999999 0.09999999999999999 0 0.09999999999999999 0 0
          0.09999999999999999 0.09999999999999999 0 0.09999999999999999 0 0
          0.09999999999999999 0.09999999999999999 0 0.09999999999999999 0 0
          0.09999999999999999 0.09999999999999999 0 0.09999999999999999 0 0
          0.09999999999999999 0.09999999999999999 0 0.09999999999999999 0 0
          0.09999999999999999 0.09999999999999999 0 0.09999999999999999 0 0
          0.09999999999999999 0.09999999999999999 0 0.09999999999999999 0 0
          0.09999999999999999 0.09999999999999999 0 0.09999999999999999 0 0
          0.09999999999999999 0.09999999999999999 0 0.09999999999999999 0 0
          0.09999999999999999 0.09999999999999999 0 0.09999999999999999 0 0
          0.09999999999999999 0.09999999999999999 0 0.09999999999999999 0 0
          0.09999999999999999 0.09999999999999999 0 0.09999999999999999 0 0
          0.09999999999999999 0.09999999999999999 0 0.09999999999999999 0 0
          0.09999999999999999 0.09999999999999999 0 0.09999999999999999 0 0
          0.09999999999999999 0.09999999999999999 0 0.09999999999999999 0 0
          0.09999999999999999 0.09999999999999999 0 0.09999999999999999 0 0
          0.09999999999999999 0.09999999999999999 0 0.09999999999999999 0 0
          0.09999999999999999 0.09999999999999999 0 0.09999999999999999 0 0
          0.09999999999999999 0.09999999999999999 0 0.09999999999999999 0 0
          0.09999999999999999 0.09999999999999999 0 0.09999999999999999 0 0
          0.09999999999999999 0.09999999999999999 0 0.09999999999999999 0 0
          0.09999999999999999 0.09999999999999999 0 0.09999999999999999 0 0
          0.09999999999999999 0.09999999999999999 0 0.09999999999999999 0 0
          0.09999999999999999 0.09999999999999999 0 0.09999999999999999 0 0
          0.09999999999999999 0.09999999999999999 0 0.09999999999999999 0 0
          0.09999999999999999 0.09999999999999999 0 0.09999999999999999 0 0
          0.09999999999999999 0.09999999999999999 0 0.09999999999999999 0 0
          0.09999999999999999 0.09999999999999999 0 0.09999999999999999 0 0
          0.09999999999999999 0.09999999999999999 0 0.09999999999999999 0 0
          0.09999999999999999 0.09999999999999999 0 0.09999999999999999 0 0
          0.09999999999999999 0.09999999999999999 0 0.09999999999999999 0 0
          0.09999999999999999 0.09999999999999999 0 0.09999999999999999 0 0
          0.09999999999999999 0.09999999999999999 0 0.09999999999999999 0 0
          0.09999999999999999 0.09999999999999999 0 0.09999999999999999 0 0
          0.09999999999999999 0.09999999999999999 0 0.09999999999999999 0 0
          0.09999999999999999 0.09999999999999999 0 0.09999999999999999 0 0
          0.09999999999999999 0.09999999999999999 0 0.09999999999999999 0 0
          0.09999999999999999 0.09999999999999999 0 0.09999999999999999 0 0
          0.09999999999999999 0.09999999999999999 0 0.09999999999999999 0 0
          0.09999999999999999 0.09999999999999999 0 0.09999999999999999 0 0
          0.09999999999999999 0.09999999999999999 0 0.09999999999999999 0 0
          0.09999999999999999 0.09999999999999999 0 0.09999999999999999 0 0
          0.09999999999999999 0.09999999999999999 0 0.09999999999999999 0 0
          0.09999999999999999 0.09999999999999999 0 0.09999999999999999 0 0
          0.09999999999999999 0.09999999999999999 0 0.09999999999999999 0 0
          0.09999999999999999 0.09999999999999999 0 0.09999999999999999 0 0
          0.09999999999999999 0.09999999999999999 0 0.09999999999999999 0 0
          0.09999999999999999 0.09999999999999999 0 0.09999999999999999 0 0
          0.09999999999999999 0.09999999999999999 0 0.09999999999999999 0 0
          0.09999999999999999 0.09999999999999999 0 0.09999999999999999 0 0
          0.09999999999999999 0.09999999999999999 0 0.09999999999999999 0 0
          0.09999999999999999 0.09999999999999999 0 0.09999999999999999 0 0
          0.09999999999999999 0.09999999999999999 0 0.09999999999999999 0 0
          0.09999999999999999 0.09999999999999999 0 0.09999999999999999 0 0
          0.09999999999999999 0.09999999999999999 0 0.09999999999999999 0 0
          0.09999999999999999 0.09999999999999999 0 0.09999999999999999 0 0
          0.09999999999999999 0.09999999999999999 0 0.09999999999999999 0 0
          0.09999999999999999 0.09999999999999999 0 0.09999999999999999 0 0
          0.09999999999999999 0.09999999999999999 0 0.09999999999999999 0 0
          0.09999999999999999 0.09999999999999999 0 0.09999999999999999 0 0
          0.09999999999999999 0.09999999999999999 0 0.09999999999999999 0 0
          0.09999999999999999 0.09999999999999999 0 0.09999999999999999 0 0
          0.09999999999999999 0.09999999999999999 0 0.09999999999999999 0 0
          0.09999999999999999 0.09999999999999999 0 0.09999999999999999 0 0
          0.09999999999999999 0.09999999999999999 0 0.09999999999999999 0 0
          0.09999999999999999 0.09999999999999999 0 0.09999999999999999 0 0
          0.09999999999999999 0.09999999999999999 0 0.09999999999999999 0 0
          0.09999999999999999 0.09999999999999999 0 0.09999999999999999 0 0
          0.09999999999999999 0.09999999999999999 0 0.09999999999999999 0 0
          0.09999999999999999 0.09999999999999999 0 0.09999999999999999 0 0
          0.09999999999999999 0.09999999999999999 0 0.09999999999999999 0 0
          0.09999999999999999 0.09999999999999999 0 0.09999999999999999 0 0
          0.09999999999999999 0.09999999999999999 0 0.09999999999999999 0 0
          0.09999999999999999 0.09999999999999999 0 0.09999999999999999 0 0
          0.09999999999999999 0.09999999999999999 0 0.09999999999999999 0 0
          0.09999999999999999 0.09999999999999999 0 0.09999999999999999 0 0
          0.09999999999999999 0.09999999999999999 0 0.09999999999999999 0 0
          0.09999999999999999 0.09999999999999999 0 0.09999999999999999 0 0
          0.09999999999999999 0.09999999999999999 0 0.09999999999999999 0 0
          0.09999999999999999 0.09999999999999999 0 0.09999999999999999 0 0