<?xml version="1.0"?>
<VTKFile type="UnstructuredGrid" version="0.1" byte_order="LittleEndian" header_type="UInt32" compressor="vtkZLibDataCompressor">
  <UnstructuredGrid>
    <Piece NumberOfPoints="97" NumberOfCells="154">
      <PointData>
        <DataArray type="Float64" Name="Velocity" NumberOfComponents="3" format="ascii" RangeMin="0" RangeMax="5.031895314485087">
          0.6420856683473739 0.553590005808094 0 1.1526486101610527 0 0
          0.8543400127880783 -0.008016350554265255 0 0.9574195723060892 0.030357466252514776 0
          1.057754246315878 0.05773359411486715 0 0.995288858037187 0 0
          0.7319181538044824 -0.4947713110741796 0 1.0645312018454096 0 0
          1.000018416823 -0.0419404079459001 0 1.0029967351178954 0.00410348001338057 0
          0.999561615943236 0 0 0.9609784197069239 0 0
          1.0097748882924718 0 0 0.9977590593013292 0 0
          0.9965368449773324 0.0026049509885376866 0 0.9980312955283273 0.0024245844632113747 0
          1.0034593089255732 0 0 0.9930379746749642 0 0
          1.003184833661861 0.003999557424242887 0 0.9959339088503826 -0.0001665114768639633 0
          0.9997316454051212 -0.0005797671397980147 0 1.0124045672519386 0 0
          0.991210963717067 0 0 1.0019578766705832 0.012273479683114924 0
          0.998030213306069 -0.01880455273678547 0 0.9982622122466167 -0.00815708038584776 0
          1.0284991611113163 0 0 1.0297188462737663 0 0
          0.9776286339911207 -0.006088291969598412 0 1.0180086761497122 -0.05986540834713755 0
          0.9747770847362704 -0.041175090513099394 0 1.0163450724246959 -0.037615971906629 0
          1.0887377642012803 0 0 1.043858497542398 0 0
          1.0420468618167118 -0.16054895651762233 0 0.9442153132711938 -0.17152875389767427 0
          0.9303879002225414 0.0050599469786259815 0 1.0083457397132112 0 0
          1.2367976677841348 -0.18048578519192784 0 1.0354013903165014 -0.36079280563130633 0
          0.7713497804226471 -0.33265401880318163 0 1.2237797447328673 -0.5722495354218877 0
          0.8307724921868833 -0.07520648793455245 0 1.032952438595338 -0.7472961850966069 0
          1.0748814932321888 -0.45008410639733937 0 0.6007178103650918 -0.33955105156806964 0
          1.192852747213979 0 0 1.1872455882903326 -0.6905805408792101 0
          0.5479631500640972 -0.17186965656312958 0 1.6889608491430261 -0.5428365646395947 0
          0.9223887451450705 -1.0522841443182815 0 0.7207144002063786 0.059698086523308186 0
          0.47044073450248636 -0.743914766356087 0 1.5770294287700517 -1.042848404796259 0
          0.6902669781708747 -0.2878850697159128 0 0.7623129660284571 -1.1267966263042204 0
          1.3776011766371188 -0.8340672997598884 0 0.3298123107001165 -0.5636020693133849 0
          0.9170803225097849 -1.582471953297177 0 1.4301105633317213 0 0
          0.28429801189606796 -1.1463483086354223 0 0.42680018856190327 -0.23229780646793585 0
          1.2887377296022007 -1.3558020451693424 0 -0.10115401641635528 -0.5947731171627924 0
          0.14996052832752363 -1.3326070073376595 0 2.4115963927397592 -0.9982429506630628 0
          0.17769321609523753 -0.7010533778234571 0 1.4589506257302098 -2.7166422308119023 0
          -0.26926022303421376 -1.199522441824511 0 3.8224066719269274 -3.272487996975006 0
          0.9601202031490883 -0.37018090679844184 0 -0.905570452602959 -2.818139362046484 0
          0.9316839533513184 0 0 0.025357739277576948 -0.3987091832816412 0
          0.7650963306318158 -2.516353032090888 0 -0.5958410829328369 -1.0001876259369165 0
          -0.9204316866914694 -0.1705032981710794 0 -1.9284139372211753 0.7851964679438621 0
          0.09566774020526056 0 0 0.22885368239874523 -0.3860406935624805 0
          -0.4794648952206343 -0.20196528133193864 0 -0.017348397861845607 -0.6607321071694058 0
          0 0 0 0.20908880825021062 0 0
          0 0 0 0 0 0
          0 0 0 0 0 0
          1.3113145035453448 -0.10655447055025073 0 1.5024015804449145 -0.33125656591871083 0
          1.0786976154059869 0 0 2.8505213006447203 -0.28621342235415903 0
          1.946196312714077 -1.4969205801630923 0 2.9139150933089817 -0.9225624987396752 0
          1.1026876720452055 -0.8876000910378928 0 1.9170257259469723 4.340723141237511 0
          0 0 0
          <InformationKey name="L2_NORM_RANGE" location="vtkDataArray" length="2">
            <Value index="0">
              0
            </Value>
            <Value index="1">
              5.0318953145
            </Value>
          </InformationKey>
        </DataArray>
        <DataArray type="Float64" Name="Pressure" format="ascii" RangeMin="-22.11731689462738" RangeMax="4.435526003265686">
          0.025494487630068105 -0.24581680321070612 0.22375851671252323 -0.16178291418897944 -0.1151587274775067 -0.09590164278000393
          0.004670144477175172 -0.4503059039513795 -0.028784040546744355 -0.16489426105119756 -0.1022342067185398 0.07213759546453241
          -0.11757212140385734 -0.12313586714577968 -0.15403950065710892 -0.1421979547908142 -0.13641778034820023 -0.14990009256886183
          -0.12415873278608161 -0.12418593328483116 -0.1697470715522289 -0.13504865625086754 -0.15797019649622607 -0.12282360791625034
          -0.1430119403840185 -0.21467034421201253 -0.09083843050306231 -0.20171480636649192 -0.10522037812640359 -0.3047119346224918
          -0.16784684172587575 -0.17573995110832524 -0.39062169622443577 -0.08578455408886267 -0.3202827630245558 -0.445897485361697
          -0.41952095947502116 -0.8927025621150033 -0.23089389356428744 -0.6081599816128724 -0.7807183824736925 -0.26826138240506214
          -1.0132670928754592 -0.9977293997798484 -0.5319163090490118 -0.8239915059830029 -1.3986636762927684 -0.7476954463792639
          -0.8451002134432699 -1.1262342506494758 -1.2825094316269092 -1.099940315227736 -1.4015324863877905 -1.9417101279188191
          -1.232114701586896 -1.903194721711031 -0.4700944670535856 -1.5108225752707363 -2.618551018544859 -1.4440239429774422
          -3.06461634236273 -1.0517446071322654 0.23017831444584802 -2.0069123791144263 -3.2726607231407465 -3.669672472915699
          -3.4648443197828214 -4.46560590128225 -4.963992132343782 -13.072782102106315 -2.034223153623593 -11.15547479286035
          -1.1459952747555282 -3.016423519814131 -22.11731689462738 -6.172439415341492 -7.929918599487271 -13.291321019583751
          -1.4525151418854187 -4.2579230718394845 -5.15753149942175 -3.3265729144013294 -0.47106164621881597 -3.9380897898643576
          -4.572479519037796 -4.52765805337865 -5.456336084170169 -6.335782020584893 0.06270903347622864 0.29620094764003657
          0.4062917085518121 -9.237517106901516 2.1801009829136335 -4.831943834896658 0.17858085935780954 -13.89435329071328
          4.435526003265686
        </DataArray>
        <DataArray type="Float64" Name="BTraction" NumberOfComponents="3" format="ascii" RangeMin="0" RangeMax="5.444066382340939">
          -0.05944784276345704 0.04805606996607213 0 0.007452693877169979 0.1838605342592564 0
          -0.17145697773546092 0.0015572139384783742 0 0 0 0
          0 0 0 0.0023099802051757125 0.12087636823755647 0
          -0.045852691974774894 -0.07859988213170821 0 0.006696113563594468 -0.2915418146575312 0
          0 0 0 0 0 0
          0.00013172840623033822 0.1040369796232679 0 -0.002938809222846166 -0.04496130953735277 0
          -0.0006057681698415565 -0.08836109208634055 0 -0.00012163613368619349 0.12321656509385674 0
          0 0 0 0 0 0
          0.00038284466427301834 -0.13314995550323333 0 -0.00021506497764016546 0.14614436175392626 0
          0 0 0 0 0 0
          0 0 0 0.0007916886119717875 -0.13028564292231493 0
          -0.00007039247274914616 0.16380561986468076 0 0 0 0
          0 0 0 0 0 0
          0.0030838803310589517 -0.14604230925743839 0 0.0004678386519627849 0.17704795368907292 0
          0 0 0 0 0 0
          0 0 0 0 0 0
          0.008387841529180427 -0.4166936603657424 0 -0.004400535730156099 0.03359673852731792 0
          0 0 0 0 0 0
          0 0 0 0.011265036712066205 -0.8910131197704344 0
          0 0 0 0 0 0
          0 0 0 0 0 0
          0 0 0 0 0 0
          0 0 0 0 0 0
          0.04501832411919029 -1.3107106605158392 0 0 0 0
          0 0 0 0 0 0
          0 0 0 0 0 0
          0 0 0 0 0 0
          0 0 0 0 0 0
          0 0 0 0 0 0
          0 0 0 0.06724112477722778 -1.355173241708142 0
          0 0 0 0 0 0
          0 0 0 0 0 0
          0 0 0 0 0 0
          0 0 0 0 0 0
          0 0 0 0 0 0
          0 0 0 0 0 0
          0.020358796386930802 -1.1864877288977866 0 0 0 0
          0 0 0 0 0 0
          0 0 0 0 0 0
          -0.035454475100404066 -1.683618268559018 0 0 0 0
          0 0 0 0 0 0
          -0.18709116524961028 -0.18550424506336077 0 0.0012358755843969228 -3.8264336223866526 0
          -3.8328369206861193 0.10262393111037131 0 -4.696351119391132 0.07258753403846432 0
          -5.443991457285194 0.028562008693162673 0 -2.9721362561438367 -2.762926783750197 0
          0 0 0 0 0 0
          -0.0049190283063950966 -0.24251874079447316 0 0 0 0
          0 0 0 0 0 0
          0 0 0 0 0 0
          2.944483572434695 -0.7838874453684905 0
          <InformationKey name="L2_NORM_RANGE" location="vtkDataArray" length="2">
            <Value index="0">
              0
            </Value>
            <Value index="1">
              5.4440663823
            </Value>
          </InformationKey>
        </DataArray>
        <DataArray type="Float64" Name="Sigma" NumberOfComponents="6" format="ascii" RangeMin="0.0001601545260599915" RangeMax="1.190466210957946">
          -0.039177376590627186 0.03936823499009596 0 0.013280154755752316 0 0
          -0.003257359494152085 0.0030991366890684153 0 0.007445951445227811 0 0
          -0.011047348727672915 0.011062283422044333 0 0.0016745787552997157 0 0
          0.00326078502466421 -0.0030818763336300076 0 0.0005787863733226408 0 0
          -0.002339176096606654 0.002222848758094205 0 -0.003816028119084306 0 0
          0.002166079996531034 -0.0022759441835916334 0 0.0016522027263563132 0 0
          -0.0201763959541104 0.020019106988636935 0 -0.010635186146080933 0 0
          -0.0012956389865628043 0.0018859349731216106 0 -0.009103975073162148 0 0
          -0.0009224431937829137 0.0008882543737636763 0 -0.00020045956284519948 0 0
          -0.0015997352626915854 0.0015810126149817636 0 -0.00043017249921644123 0 0
          0.0004547751569248699 -0.00039473157862462006 0 -0.0001948811195987882 0 0
          0.0024844547547477128 -0.002727834799746675 0 0.00687440505716272 0 0
          0.0006535187116736411 -0.0005343820471252748 0 -0.0007607898184117423 0 0
          -0.00009157944066316806 0.00010241143775473394 0 -0.00008230781057913053 0 0
          0.00021441700098402683 -0.00027492891582737896 0 0.00021648090483897535 0 0
          0.0001501013063726523 -0.00012827052829694882 0 -0.0002176432779258746 0 0
          -0.0004962139631581662 0.0004632450071937651 0 -0.00019663676446640877 0 0
          0.00006187314814826305 -0.00007000537677721321 0 -0.0002070547857150239 0 0
          0.00020855734809612574 -0.00015755311062247705 0 -0.00041672351405237096 0 0
          -0.00017330963748986178 0.00022384233681093245 0 0.0002069097899671109 0 0
          0.00019798114069209734 -0.00027483599931108475 0 0.00028745550712286913 0 0
          -0.0015213956342106044 0.0014755021716045648 0 -0.000748333590982164 0 0
          -0.0008859523241421922 0.001026726580892636 0 -0.00042477382142208 0 0
          0.0012510892230911696 -0.001343650826046353 0 -0.00031916078204760465 0 0
          -0.00004889652708428858 0.00010210329387775569 0 0.0014056332736829401 0 0
          -0.0018559984986478346 0.0018197510475783801 0 0.0002206791965232908 0 0
          -0.001540142890672168 0.0017689768832686707 0 -0.0017792401170164504 0 0
          -0.00010587865092498829 -0.00006209022552491184 0 0.0016499487141252798 0 0
          0.0007785019004716246 -0.0008121601264323834 0 -0.0005271564044755688 0 0
          -0.0007734826776741987 0.0004663557545164604 0 0.006377540993015173 0 0
          0.004059911541207939 -0.0038086267673787598 0 0.003403473104532972 0 0
          -0.00678913102994359 0.007310251109009734 0 0.0025963193762219977 0 0
          -0.0013043365896667645 0.0011861280916857456 0 -0.011594246394284805 0 0
          -0.006931715507006256 0.006489554612715273 0 -0.0035760751393756045 0 0
          -0.00785225292544893 0.008086058948683882 0 0.005916292672276844 0 0
          0.005524477725102057 -0.005574665465199908 0 0.016419816777070047 0 0
          0.009369846752513313 -0.009453894450623364 0 0.001824956929659857 0 0
          -0.006679767252793921 0.006323592763047789 0 -0.0022015665472998316 0 0
          -0.020475487134426946 0.019761351202167113 0 0.011161881326869837 0 0
          -0.012939357852043002 0.013130735971150442 0 0.03463790267182516 0 0
          0.023906535220661024 -0.024087827534843984 0 0.018110616947464707 0 0
          -0.0328239109856648 0.03429781654630875 0 0.02733125363621128 0 0
          0.022358206200238595 -0.021995232142177835 0 -0.013451914630712885 0 0
          0.022725567156880955 -0.02438310952519091 0 0.026043289884590697 0 0
          -0.02033143540735411 0.01952604607655258 0 0.05530255935513803 0 0
          0.04437027160525841 -0.04403339657600389 0 0.09982178460165164 0 0
          -0.007435469945450602 0.009158761364943152 0 -0.049018774348774635 0 0
          -0.13252966625045787 0.1441212885713414 0 0.058538554501808955 0 0
          0.040948993477375815 -0.03889545132808402 0 0.018863666180632187 0 0
          0.05159477389483247 -0.06310614241498136 0 0.04876535702049717 0 0
          -0.028565357289851875 0.03384611796687453 0 0.12833322046753567 0 0
          -0.0012962833488391297 0.0017060683420796257 0 -0.00860509941548328 0 0
          0.03229948452853844 -0.03257306599600276 0 0.07457357466986186 0 0
          -0.01650430110896022 0.005753170010382995 0 0.04363644183433732 0 0
          0.0829378282907157 -0.08943785217192513 0 0.019738681661550475 0 0
          0.06115697927598979 -0.06067467510429466 0 0.055426280263051346 0 0
          0.04968530567651025 -0.056073012740221945 0 -0.06698595066356652 0 0
          0.060148883898208404 -0.05902290906180275 0 0.022879889707731058 0 0
          -0.009196345352686602 0.0036610299194463312 0 0.14825442151164445 0 0
          0.040223154186185064 -0.04458721579487007 0 -0.08231812482853697 0 0
          0.06773735146182991 -0.06870017589673005 0 0.010626774128489322 0 0
          0.016746055356868336 -0.011262789365649221 0 -0.024918763283441135 0 0
          -0.3622837597082431 0.3794193427889472 0 0.26422810732153845 0 0
          0.029509420325257545 -0.02829136332830731 0 -0.022976361902233212 0 0
          0.19385505260954383 -0.19825278855971024 0 0.2891325142910077 0 0
          -0.3459988946434895 0.34937001280744034 0 0.12900536252870354 0 0
          0.11862692858233069 -0.11858097307509619 0 0.06845170928399935 0 0
          0.0944664540935786 -0.08122749362959726 0 0.5017854524304297 0 0
          0.19702600104936463 -0.19196215617670986 0 -0.05481098328941812 0 0
          -0.30292900378610554 0.26657680407037054 0 -0.04606324277751708 0 0
          0.05104877105852959 -0.050053090766601305 0 -0.012253654743828786 0 0
          0.5101831948429207 -0.5095429068109893 0 0.10996202010830412 0 0
          0.04819792363919128 -0.04988201068553224 0 -0.022674351340406906 0 0
          0.007002447075923122 -0.0063392293307017525 0 -0.06526218935520185 0 0
          -0.09545510549027597 0.09503427115325254 0 -0.017699633210734783 0 0
          0.0631565881761982 -0.06696008320475921 0 -0.09095146804076622 0 0
          -0.017086489150750263 0.00710321865882 0 -0.3672877924531017 0 0
          -0.20110559774232722 0.19657038567084137 0 -0.5560429713334563 0 0
          0.11958117938954488 -0.1221383526191004 0 0.060499320411213364 0 0
          -0.02832101183173136 0.033618146496214016 0 -0.028759492776302686 0 0
          -0.03548677193519009 0.035749540975534615 0 -0.09126416143623865 0 0
          0.04884378069955277 -0.05340120400232696 0 -0.04258156976052014 0 0
          -0.2779782209214514 0.30300568646602755 0 0.08908417740319458 0 0
          0.06777905448543986 -0.05430087314194843 0 -0.00535540879144937 0 0
          0.009471007109442445 -0.014825813014951622 0 -0.1611672394414498 0 0
          0.019621029413120335 -0.025569505058740533 0 -0.06263778750189622 0 0
          0.008754664555232576 -0.0056219611885587216 0 -0.014142534148996888 0 0
          -0.011294358459470289 -0.008863349048816768 0 -0.051746285458330904 0 0
          -0.02286529617651078 0.022570143638773344 0 0.0005006861718676301 0 0
          -0.0361467043834191 0.03506293432775864 0 -0.013271877508410669 0 0
          -0.013702409622647072 0.0156460835316304 0 -0.014328236031963055 0 0
          0.7498496976822216 -0.7286171796744496 0 -0.4618025170653667 0 0
          -0.32333341141226746 0.3419526286578539 0 -0.12203769393627618 0 0
          0.19251959794347462 -0.20583717169625132 0 0.04139125949888501 0 0
          -0.2789092412254171 0.2941462603351096 0 0.017258313355864432 0 0
          0.17994227054298945 -0.16933300580437458 0 0.19077631725790906 0 0
          -0.465770822984362 0.44789787017731086 0 0.9998274039951434 0 0
          <InformationKey name="L2_NORM_RANGE" location="vtkDataArray" length="2">
            <Value index="0">
              0.00016015452606
            </Value>
            <Value index="1">
              1.190466211
            </Value>
          </InformationKey>
        </DataArray>
        <DataArray type="Float64" Name="ALEdispl" NumberOfComponents="3" format="ascii" RangeMin="0" RangeMax="0">
          0 0 0 0 0 0
          0 0 0 0 0 0
          0 0 0 0 0 0
          0 0 0 0 0 0
          0 0 0 0 0 0
          0 0 0 0 0 0
          0 0 0 0 0 0
          0 0 0 0 0 0
          0 0 0 0 0 0
          0 0 0 0 0 0
          0 0 0 0 0 0
          0 0 0 0 0 0
          0 0 0 0 0 0
          0 0 0 0 0 0
          0 0 0 0 0 0
          0 0 0 0 0 0
          0 0 0 0 0 0
          0 0 0 0 0 0
          0 0 0 0 0 0
          0 0 0 0 0 0
          0 0 0 0 0 0
          0 0 0 0 0 0
          0 0 0 0 0 0
          0 0 0 0 0 0
          0 0 0 0 0 0
          0 0 0 0 0 0
          0 0 0 0 0 0
          0 0 0 0 0 0
          0 0 0 0 0 0
          0 0 0 0 0 0
          0 0 0 0 0 0
          0 0 0 0 0 0
          0 0 0 0 0 0
          0 0 0 0 0 0
          0 0 0 0 0 0
          0 0 0 0 0 0
          0 0 0 0 0 0
          0 0 0 0 0 0
          0 0 0 0 0 0
          0 0 0 0 0 0
          0 0 0 0 0 0
          0 0 0 0 0 0
          0 0 0 0 0 0
          0 0 0 0 0 0
          0 0 0 0 0 0
          0 0 0 0 0 0
          0 0 0 0 0 0
          0 0 0 0 0 0
          0 0 0
          <InformationKey name="L2_NORM_RANGE" location="vtkDataArray" length="2">
            <Value index="0">
              0
            </Value>
            <Value index="1">
              0
            </Value>
          </InformationKey>
        </DataArray>
        <DataArray type="Float64" Name="ALEveloc" NumberOfComponents="3" format="ascii" RangeMin="0" RangeMax="0">
          0 0 0 0 0 0
          0 0 0 0 0 0
          0 0 0 0 0 0
          0 0 0 0 0 0
          0 0 0 0 0 0
          0 0 0 0 0 0
          0 0 0 0 0 0
          0 0 0 0 0 0
          0 0 0 0 0 0
          0 0 0 0 0 0
          0 0 0 0 0 0
          0 0 0 0 0 0
          0 0 0 0 0 0
          0 0 0 0 0 0
          0 0 0 0 0 0
          0 0 0 0 0 0
          0 0 0 0 0 0
          0 0 0 0 0 0
          0 0 0 0 0 0
          0 0 0 0 0 0
          0 0 0 0 0 0
          0 0 0 0 0 0
          0 0 0 0 0 0
          0 0 0 0 0 0
          0 0 0 0 0 0
          0 0 0 0 0 0
          0 0 0 0 0 0
          0 0 0 0 0 0
          0 0 0 0 0 0
          0 0 0 0 0 0
          0 0 0 0 0 0
          0 0 0 0 0 0
          0 0 0 0 0 0
          0 0 0 0 0 0
          0 0 0 0 0 0
          0 0 0 0 0 0
          0 0 0 0 0 0
          0 0 0 0 0 0
          0 0 0 0 0 0
          0 0 0 0 0 0
          0 0 0 0 0 0
          0 0 0 0 0 0
          0 0 0 0 0 0
          0 0 0 0 0 0
          0 0 0 0 0 0
          0 0 0 0 0 0
          0 0 0 0 0 0
          0 0 0 0 0 0
          0 0 0
          <InformationKey name="L2_NORM_RANGE" location="vtkDataArray" length="2">
            <Value index="0">
              0
            </Value>
            <Value index="1">
              0
            </Value>
          </InformationKey>
        </DataArray>
      </PointData>
      <CellData>
        <DataArray type="UInt8" Name="vtkGhostType" format="ascii" RangeMin="0" RangeMax="0">
          0 0 0 0 0 0
          0 0 0 0 0 0
          0 0 0 0 0 0
          0 0 0 0 0 0
          0 0 0 0 0 0
          0 0 0 0 0 0
          0 0 0 0 0 0
          0 0 0 0 0 0
          0 0 0 0 0 0
          0 0 0 0 0 0
          0 0 0 0 0 0
          0 0 0 0 0 0
          0 0 0 0 0 0
          0 0 0 0 0 0
          0 0 0 0 0 0
          0 0 0 0 0 0
          0 0 0 0 0 0
          0 0 0 0 0 0
          0 0 0 0 0 0
          0 0 0 0 0 0
          0 0 0 0 0 0
          0 0 0 0 0 0
          0 0 0 0 0 0
          0 0 0 0 0 0
          0 0 0 0 0 0
          0 0 0 0
        </DataArray>
        <DataArray type="Float64" Name="PStrain" NumberOfComponents="6" format="ascii" RangeMin="0.1732050807568877" RangeMax="0.1732050807568877">
          0.09999999999999999 0.09999999999999999 0 0.09999999999999999 0 0
          0.09999999999999999 0.09999999999999999 0 0.09999999999999999 0 0
          0.09999999999999999 0.09999999999999999 0 0.09999999999999999 0 0
          0.09999999999999999 0.09999999999999999 0 0.09999999999999999 0 0
          0.09999999999999999 0.09999999999999999 0 0.09999999999999999 0 0
          0.09999999999999999 0.09999999999999999 0 0.09999999999999999 0 0
          0.09999999999999999 0.09999999999999999 0 0.09999999999999999 0 0
          0.09999999999999999 0.09999999999999999 0 0.09999999999999999 0 0
          0.09999999999999999 0.09999999999999999 0 0.09999999999999999 0 0
          0.09999999999999999 0.09999999999999999 0 0.09999999999999999 0 0
          0.09999999999999999 0.09999999999999999 0 0.09999999999999999 0 0
          0.09999999999999999 0.09999999999999999 0 0.09999999999999999 0 0
          0.09999999999999999 0.09999999999999999 0 0.09999999999999999 0 0
          0.09999999999999999 0.09999999999999999 0 0.09999999999999999 0 0
          0.09999999999999999 0.09999999999999999 0 0.09999999999999999 0 0
          0.09999999999999999 0.09999999999999999 0 0.09999999999999999 0 0
          0.09999999999999999 0.09999999999999999 0 0.09999999999999999 0 0
          0.09999999999999999 0.09999999999999999 0 0.09999999999999999 0 0
          0.09999999999999999 0.09999999999999999 0 0.09999999999999999 0 0
          0.09999999999999999 0.09999999999999999 0 0.09999999999999999 0 0
          0.09999999999999999 0.09999999999999999 0 0.09999999999999999 0 0
          0.09999999999999999 0.09999999999999999 0 0.09999999999999999 0 0
          0.09999999999999999 0.09999999999999999 0 0.09999999999999999 0 0
          0.09999999999999999 0.09999999999999999 0 0.09999999999999999 0 0
          0.09999999999999999 0.09999999999999999 0 0.09999999999999999 0 0
          0.09999999999999999 0.09999999999999999 0 0.09999999999999999 0 0
          0.09999999999999999 0.09999999999999999 0 0.09999999999999999 0 0
          0.09999999999999999 0.09999999999999999 0 0.09999999999999999 0 0
          0.09999999999999999 0.09999999999999999 0 0.09999999999999999 0 0
          0.09999999999999999 0.09999999999999999 0 0.09999999999999999 0 0
          0.09999999999999999 0.09999999999999999 0 0.09999999999999999 0 0
          0.09999999999999999 0.09999999999999999 0 0.09999999999999999 0 0
          0.09999999999999999 0.09999999999999999 0 0.09999999999999999 0 0
          0.09999999999999999 0.09999999999999999 0 0.09999999999999999 0 0
          0.09999999999999999 0.09999999999999999 0 0.09999999999999999 0 0
          0.09999999999999999 0.09999999999999999 0 0.09999999999999999 0 0
          0.09999999999999999 0.09999999999999999 0 0.09999999999999999 0 0
          0.09999999999999999 0.09999999999999999 0 0.09999999999999999 0 0
          0.09999999999999999 0.09999999999999999 0 0.09999999999999999 0 0
          0.09999999999999999 0.09999999999999999 0 0.09999999999999999 0 0
          0.09999999999999999 0.09999999999999999 0 0.09999999999999999 0 0
          0.09999999999999999 0.09999999999999999 0 0.09999999999999999 0 0
          0.09999999999999999 0.09999999999999999 0 0.09999999999999999 0 0
          0.09999999999999999 0.09999999999999999 0 0.09999999999999999 0 0
          0.09999999999999999 0.09999999999999999 0 0.09999999999999999 0 0
          0.09999999999999999 0.09999999999999999 0 0.09999999999999999 0 0
          0.09999999999999999 0.09999999999999999 0 0.09999999999999999 0 0
          0.09999999999999999 0.09999999999999999 0 0.09999999999999999 0 0
          0.09999999999999999 0.09999999999999999 0 0.09999999999999999 0 0
          0.09999999999999999 0.09999999999999999 0 0.09999999999999999 0 0
          0.09999999999999999 0.09999999999999999 0 0.09999999999999999 0 0
          0.09999999999999999 0.09999999999999999 0 0.09999999999999999 0 0
          0.09999999999999999 0.09999999999999999 0 0.09999999999999999 0 0
          0.09999999999999999 0.09999999999999999 0 0.09999999999999999 0 0
          0.09999999999999999 0.09999999999999999 0 0.09999999999999999 0 0
          0.09999999999999999 0.09999999999999999 0 0.09999999999999999 0 0
          0.09999999999999999 0.09999999999999999 0 0.09999999999999999 0 0
          0.09999999999999999 0.09999999999999999 0 0.09999999999999999 0 0
          0.09999999999999999 0.09999999999999999 0 0.09999999999999999 0 0
          0.09999999999999999 0.09999999999999999 0 0.09999999999999999 0 0
          0.09999999999999999 0.09999999999999999 0 0.09999999999999999 0 0
          0.09999999999999999 0.09999999999999999 0 0.09999999999999999 0 0
          0.09999999999999999 0.09999999999999999 0 0.09999999999999999 0 0
          0.09999999999999999 0.09999999999999999 0 0.09999999999999999 0 0
          0.09999999999999999 0.09999999999999999 0 0.09999999999999999 0 0
          0.09999999999999999 0.09999999999999999 0 0.09999999999999999 0 0
          0.09999999999999999 0.09999999999999999 0 0.09999999999999999 0 0
          0.09999999999999999 0.09999999999999999 0 0.09999999999999999 0 0
          0.09999999999999999 0.09999999999999999 0 0.09999999999999999 0 0
          0.09999999999999999 0.09999999999999999 0 0.09999999999999999 0 0
          0.09999999999999999 0.09999999999999999 0 0.09999999999999999 0 0
          0.09999999999999999 0.09999999999999999 0 0.09999999999999999 0 0
          0.09999999999999999 0.09999999999999999 0 0.09999999999999999 0 0
          0.09999999999999999 0.09999999999999999 0 0.09999999999999999 0 0
          0.09999999999999999 0.09999999999999999 0 0.09999999999999999 0 0
          0.09999999999999999 0.09999999999999999 0 0.09999999999999999 0 0
          0.09999999999999999 0.09999999999999999 0 0.09999999999999999 0 0
          0.09999999999999999 0.09999999999999999 0 0.09999999999999999 0 0
          0.09999999999999999 0.09999999999999999 0 0.09999999999999999 0 0
          0.09999999999999999 0.09999999999999999 0 0.09999999999999999 0 0
          0.09999999999999999 0.09999999999999999 0 0.09999999999999999 0 0
          0.09999999999999999 0.09999999999999999 0 0.09999999999999999 0 0
          0.09999999999999999 0.09999999999999999 0 0.09999999999999999 0 0
          0.09999999999999999 0.09999999999999999 0 0.09999999999999999 0 0
          0.09999999999999999 0.09999999999999999 0 0.09999999999999999 0 0
          0.09999999999999999 0.09999999999999999 0 0.09999999999999999 0 0
          0.09999999999999999 0.09999999999999999 0 0.09999999999999999 0 0
          0.09999999999999999 0.09999999999999999 0 0.09999999999999999 0 0
          0.09999999999999999 0.09999999999999999 0 0.09999999999999999 0 0
          0.09999999999999999 0.09999999999999999 0 0.09999999999999999 0 0
          0.09999999999999999 0.09999999999999999 0 0.09999999999999999 0 0
          0.09999999999999999 0.09999999999999999 0 0.09999999999999999 0 0
          0.09999999999999999 0.09999999999999999 0 0.09999999999999999 0 0
          0.09999999999999999 0.09999999999999999 0 0.09999999999999999 0 0
          0.09999999999999999 0.09999999999999999 0 0.09999999999999999 0 0
          0.09999999999999999 0.09999999999999999 0 0.09999999999999999 0 0
          0.09999999999999999 0.09999999999999999 0 0.09999999999999999 0 0
          0.09999999999999999 0.09999999999999999 0 0.09999999999999999 0 0
          0.09999999999999999 0.09999999999999999 0 0.09999999999999999 0 0
          0.09999999999999999 0.09999999999999999 0 0.09999999999999999 0 0
          0.09999999999999999 0.09999999999999999 0 0.09999999999999999 0 0
          0.09999999999999999 0.09999999999999999 0 0.09999999999999999 0 0
          0.09999999999999999 0.09999999999999999 0 0.09999999999999999 0 0
          0.09999999999999999 0.09999999999999999 0 0.09999999999999999 0 0
          0.09999999999999999 0.09999999999999999 0 0.09999999999999999 0 0
          0.09999999999999999 0.09999999999999999 0 0.09999999999999999 0 0
          0.09999999999999999 0.09999999999999999 0 0.09999999999999999 0 0
          0.09999999999999999 0.09999999999999999 0 0.09999999999999999 0 0
          0.09999999999999999 0.09999999999999999 0 0.09999999999999999 0 0
          0.09999999999999999 0.09999999999999999 0 0.09999999999999999 0 0
          0.09999999999999999 0.09999999999999999 0 0.09999999999999999 0 0
          0.09999999999999999 0.09999999999999999 0 0.09999999999999999 0 0