<?xml version="1.0"?>
<VTKFile type="UnstructuredGrid" version="0.1" byte_order="LittleEndian" header_type="UInt32" compressor="vtkZLibDataCompressor">
  <UnstructuredGrid>
    <Piece NumberOfPoints="97" NumberOfCells="154">
      <PointData>
        <DataArray type="Float64" Name="Velocity" NumberOfComponents="3" format="ascii" RangeMin="0" RangeMax="3.8783068709381485">
          0.7030245312299256 0.4696466199894912 0 1.1443122521326379 0 0
          0.870698147383727 -0.007634126523404954 0 0.9528286551531565 0.029730643539026273 0
          1.0540732023712238 0.0546432240192237 0 0.9960927016425463 0 0
          0.7544698333856382 -0.44590691214420497 0 1.0615381527616157 0 0
          1.0016036259221772 -0.04115728668765304 0 1.0046259191804052 0.0035684517323917556 0
          0.9979877876716277 0 0 0.9650519484845788 0 0
          1.0076854814520073 0 0 0.9977889638602514 0 0
          0.9970581832708201 0.002193725246078661 0 0.9978229604026536 0.002436648692207894 0
          1.0041969833503188 0 0 0.9937351991153897 0 0
          1.00181255033024 0.004422789639004793 0 0.9963175286499569 -0.002253145088936438 0
          0.9997819333750516 -0.002193783226803148 0 1.0156686646463833 0 0
          0.9927115566411309 0 0 1.0003810896346605 0.011637927282732977 0
          0.9974754026498902 -0.022505407292599047 0 1.0050973580413578 -0.011853109233000947 0
          1.0269821750858008 0 0 1.0306998876088325 0 0
          0.9743198717371486 -0.008667390464450472 0 1.0229377673152025 -0.08267669223843388 0
          0.9665568413104608 -0.04890550079274874 0 1.024935842673302 -0.04379131773248411 0
          1.0869870243813842 0 0 1.071847376910221 0 0
          1.0527674877264965 -0.1698455242398696 0 0.9368139699066633 -0.20636713876543678 0
          0.9128870445936992 -0.01476591699240737 0 1.017345911554481 0 0
          1.2732738440044067 -0.22710565011653627 0 1.0585701610923095 -0.43547851410894883 0
          0.7326501331541762 -0.37298600990349284 0 1.2906392639054696 -0.6045024600269628 0
          0.7821274248698029 -0.07508803117678346 0 1.0399970438069435 -0.8140952653031397 0
          0.9999387391499324 -0.6111897522913161 0 0.661614974173486 -0.5672804156957334 0
          1.1540011936137737 0 0 1.393303401455739 -0.6848539489537505 0
          0.4753656773639161 -0.2822579798894188 0 1.5575085865156024 -0.7564736635731496 0
          0.910448519579962 -1.0560433128810895 0 0.7341629302101756 -0.010592973127422994 0
          0.46407878289757254 -0.8233605661010241 0 1.5850694572306692 -1.3569996703513012 0
          0.5847798051030787 -0.3468580960065122 0 0.5069169887437381 -1.161945062648707 0
          1.2991821788590023 -0.8144009286048433 0 0.20553798830833003 -0.6667532872684123 0
          1.042183477727645 -1.8985793043591324 0 1.2960574127187883 0 0
          0.20187928994391735 -1.2523064775973591 0 0.371427285366411 -0.2800432836416593 0
          1.6780541024114122 -2.026154614556269 0 -0.14352574005400393 -0.5681885367981898 0
          0.29103722229073675 -2.257206024315144 0 2.695913063224775 -1.8151686464552905 0
          -0.020757649622663465 -0.7562702628507734 0 1.1726175649787838 -2.8037391629492854 0
          -1.0363168031287469 -0.9719777362217461 0 2.9889865394207984 -2.471279760028664 0
          0.7433633331321337 -0.3684245979718807 0 -0.6816055928332206 -2.3042076890671153 0
          0.8936602972020615 0 0 -0.053616512429826124 -0.3429753900217525 0
          1.595052748301938 0.4663530642588424 0 -0.7192527100483288 -0.8277167752649925 0
          -1.178669679476419 0.22304425911792047 0 -1.0619008494518163 1.2827549578024469 0
          0.14297185286948128 0 0 0.1471456813803636 -0.28204151301322167 0
          -0.2933750692039647 0.2045637678999232 0 -0.009010010481244678 -0.5475009822211662 0
          0 0 0 0.1542596222805456 0 0
          0 0 0 0 0 0
          0 0 0 0 0 0
          1.3535777074937123 -0.12060446121835286 0 1.644165534309887 -0.3666248631958418 0
          1.0913374231003548 0 0 1.96587693447128 0.8719873770903839 0
          2.830523499974058 -0.5371378905167431 0 2.7256516066988556 -1.1163153759047864 0
          1.6318838324231142 -1.0046146508875187 0 0.6471221295582207 2.3343678930659078 0
          0 0 0
          <InformationKey name="L2_NORM_RANGE" location="vtkDataArray" length="2">
            <Value index="0">
              0
            </Value>
            <Value index="1">
              3.8783068709
            </Value>
          </InformationKey>
        </DataArray>
        <DataArray type="Float64" Name="Pressure" format="ascii" RangeMin="-16.951387957252752" RangeMax="0.3622805980786659">
          0.05513813370312662 -0.1574818301065664 0.11037586335747465 -0.14122760088986963 -0.13848651205968315 -0.05968490285251741
          0.0735154836349036 -0.3346065534738806 -0.08617961075993152 -0.11641305055034354 -0.09692041612852348 -0.0512026343159466
          -0.13230644772819136 -0.09788463704108243 -0.10831895309678084 -0.10003694401631712 -0.11134999209469444 -0.09127675529738595
          -0.11847065961919379 -0.10013587561957574 -0.08970793672567764 -0.1272929789827079 -0.06271040558894428 -0.13669810678829333
          -0.10400472533298406 -0.06925093298537299 -0.10226518518620895 -0.04517283456059866 -0.1601771884906097 -0.10388834604050218
          -0.10786076657092458 0.05227931343714097 -0.2281074317699982 -0.05136960389934181 -0.014993069918975803 -0.1399354841571735
          -0.2173976114442789 -0.22908106152352578 -0.020457281237772906 -0.26357671351887735 -0.23122765238569534 -0.2653487318556485
          -0.4232688372667039 -0.6433248590709524 -0.07410719231278418 -0.5123657271340236 -0.4406109560124201 -0.842124809487646
          -0.39992371068810295 -0.5392451630275223 -0.5582475918911207 -0.5284402237360024 -0.7630937388995338 -2.2203608854124774
          -0.7005487399996737 -0.920105675438938 -0.004007609980864274 -0.7055471184563135 -2.799183363227213 -0.8213165284023798
          -1.1601631371842103 -0.5839721134847166 -2.6959226148632416 -0.991026350309075 -4.00766395172927 -3.911056276619131
          -1.830260836633466 -8.451682832706897 -3.414650618567377 -11.622993747115526 -1.2097448659136452 -12.57356108120534
          -0.744540829261322 -1.4300098855054413 -16.951387957252752 -2.702442369751872 -5.306533346697914 -11.594036242239865
          -0.4425686092047871 -1.676259915568552 -2.7367816146834234 -1.276318253096479 -3.4480779930641017 -0.72241169088862
          -2.254500438784403 -1.5731208191135022 -1.143847315491692 -0.8942783931935219 0.029464054011793805 -0.017849965857742123
          0.3622805980786659 -8.578828459758078 -3.7686593110377364 -1.9256085780996766 -1.0384765643123128 -10.46088981856734
          -6.054587460439503
        </DataArray>
        <DataArray type="Float64" Name="BTraction" NumberOfComponents="3" format="ascii" RangeMin="0" RangeMax="5.674475932856038">
          -0.04889936246116213 0.023367574234807106 0 0.006784654688439891 0.11201061382091773 0
          -0.11028609274697865 0.0012140161890793328 0 0 0 0
          0 0 0 0.0021278145694009804 0.08110607386167383 0
          -0.04987018077627383 -0.03870165657006452 0 0.005398626246324822 -0.2233329930611639 0
          0 0 0 0 0 0
          0.00011492937440025544 0.09044718479166855 0 -0.002456431582870867 -0.11032162003352755 0
          -0.0005823451590151062 -0.11468802100253679 0 -0.00009746422090999814 0.09670175436573525 0
          0 0 0 0 0 0
          0.00044632674040402377 -0.11801157608579768 0 -0.00015199953567754238 0.08862358563734653 0
          0 0 0 0 0 0
          0 0 0 0.0011232269051439192 -0.12216888686507302 0
          -0.00027827432029821884 0.06612330912254634 0 0 0 0
          0 0 0 0 0 0
          0.0030052999895959294 -0.12755335383625355 0 0.00014989461437048043 0.050169854081790324 0
          0 0 0 0 0 0
          0 0 0 0 0 0
          0.009024667752269643 -0.20764932306219364 0 -0.003180439501237102 -0.007758388386885193 0
          0 0 0 0 0 0
          0 0 0 0.013429554570358276 -0.2686979786990897 0
          0 0 0 0 0 0
          0 0 0 0 0 0
          0 0 0 0 0 0
          0 0 0 0 0 0
          0.03915774884248356 -0.4529712547474951 0 0 0 0
          0 0 0 0 0 0
          0 0 0 0 0 0
          0 0 0 0 0 0
          0 0 0 0 0 0
          0 0 0 0 0 0
          0 0 0 0.0576756164339575 -0.687136508971232 0
          0 0 0 0 0 0
          0 0 0 0 0 0
          0 0 0 0 0 0
          0 0 0 0 0 0
          0 0 0 0 0 0
          0 0 0 0 0 0
          0.020613411148852814 -0.6494857668747246 0 0 0 0
          0 0 0 0 0 0
          0 0 0 0 0 0
          -0.030792841298521424 -0.4544706884126032 0 0 0 0
          0 0 0 0 0 0
          -3.3837050476031543 -0.2732012004987673 0 -0.0007035051381241142 -0.6495766285374928 0
          -2.2993124900505357 0.032796787121258726 0 -1.6471686580544513 0.051801080979563194 0
          -1.1848057334141904 0.022981437695034853 0 -0.4666540953068947 -0.4007555951360033 0
          0 0 0 0 0 0
          -0.0058449840501675525 -0.1758614126436786 0 0 0 0
          0 0 0 0 0 0
          0 0 0 0 0 0
          -5.6619309108120355 -0.3771146692368281 0
          <InformationKey name="L2_NORM_RANGE" location="vtkDataArray" length="2">
            <Value index="0">
              0
            </Value>
            <Value index="1">
              5.6744759329
            </Value>
          </InformationKey>
        </DataArray>
        <DataArray type="Float64" Name="Sigma" NumberOfComponents="6" format="ascii" RangeMin="0.00007012105744893428" RangeMax="0.6639655056408282">
          -0.03626049898404798 0.036485083458482157 0 0.012178115977620368 0 0
          -0.0008779202332126835 0.0007144025685449896 0 0.006743523741778413 0 0
          -0.009098071347104828 0.00910438631922231 0 0.001307507452954611 0 0
          0.0018204762161652178 -0.001661599764154735 0 0.0007685029001006576 0 0
          -0.0019664978998352395 0.0018576444602406603 0 -0.0033937804935479502 0 0
          0.0016739752710640341 -0.0017531003828123019 0 0.0015557171859053257 0 0
          -0.018906701341475703 0.018790529868992205 0 -0.010124048654962817 0 0
          -0.0014784929322980544 0.0019933293146759397 0 -0.006950231593843278 0 0
          -0.0008878126591364807 0.0008597359281445614 0 -0.00037827464760693173 0 0
          -0.000999789140016848 0.0009864800093568075 0 -0.00042335905780642604 0 0
          0.00024923211221252443 -0.00020741551241236825 0 -0.000199505068993831 0 0
          0.0026657133787160907 -0.002879253337277924 0 0.005533217552387004 0 0
          0.0003745358595843608 -0.00027013423025711903 0 -0.0004440491184795461 0 0
          0.000007837321976997804 0.000014666774779301281 0 -0.00006812066352846881 0 0
          0.00014096317570409244 -0.00019764858099208124 0 0.00012719636238777175 0 0
          0.0001048159307387261 -0.00009387862774167518 0 -0.00018883547956401428 0 0
          -0.00033235895755191 0.00030949895012060276 0 -0.00026295012437818117 0 0
          -0.00003597367771035866 0.000023111309576516897 0 -0.00010197975422304015 0 0
          0.0002609320727604505 -0.00020963182819510652 0 -0.000372371511885674 0 0
          -0.0002527353913489433 0.00029278884746664665 0 0.00034681794490382253 0 0
          0.0002699051209605857 -0.0003263763902373067 0 0.0002494016356857812 0 0
          -0.0018248783693637146 0.001768432666410037 0 -0.001275381641011004 0 0
          -0.00139305606788045 0.0015165551433549895 0 -0.0004914762866652017 0 0
          0.001759805622734547 -0.0018389459254373507 0 -0.0000791429163298482 0 0
          -0.00009145941837411159 0.00017563183791978086 0 0.0016301521716092795 0 0
          -0.002714441121754288 0.002633058268970857 0 0.0008188655515791138 0 0
          -0.0015819886987884736 0.0017903891787948338 0 -0.00155354107812997 0 0
          0.0007792997035857032 -0.0008433126713041379 0 0.00044739359475908305 0 0
          0.0006291480774496335 -0.0007369960964164836 0 -0.001057661814866709 0 0
          -0.0002892057578351238 -0.00006480484863926949 0 0.007882924657410804 0 0
          0.0048884313054421554 -0.004549487392550476 0 0.005030104149366961 0 0
          -0.008747725411902729 0.009276269354989687 0 0.0019821710972982762 0 0
          -0.0006127889748694049 0.000725610739891512 0 -0.011438293910121043 0 0
          -0.008482605105719408 0.007768442244492907 0 -0.0003921732505192835 0 0
          -0.010834694500908213 0.011103036159288676 0 0.008323988044038874 0 0
          0.004636472266960694 -0.004796313172010392 0 0.017279705256885464 0 0
          0.011921144940305906 -0.012181791190299798 0 0.002720601197897292 0 0
          -0.007457792456505453 0.007040842727405168 0 -0.007256429008638829 0 0
          -0.021711043270091733 0.02150393914208563 0 0.011087593503865747 0 0
          -0.011057407796463642 0.010858454776630503 0 0.040887654711898855 0 0
          0.025525520509735434 -0.024735549014861375 0 0.025061890625524188 0 0
          -0.048848750834002135 0.0489675320485757 0 0.03381009533201494 0 0
          0.027199705916734526 -0.026962434967578674 0 -0.013664414064956389 0 0
          0.019475682508887374 -0.021419923177527285 0 0.013130925292358608 0 0
          -0.0210901133007509 0.022232988724561097 0 0.07130212471770893 0 0
          0.057807901393711204 -0.060536017270857306 0 0.12394240494332814 0 0
          -0.007313696825691307 0.00904882639844061 0 -0.04158677863432317 0 0
          -0.11361528520314132 0.11712733744682641 0 0.08496347787498064 0 0
          0.04456138276430183 -0.043355810915630115 0 0.03126073239940212 0 0
          0.08616684780438533 -0.08696229916125625 0 0.0010979600939579996 0 0
          -0.02224892751605652 0.027893408521876332 0 0.13550128483023385 0 0
          -0.0013914984881409586 0.0013795603344590344 0 -0.0019984554930374287 0 0
          0.029525132347610006 -0.03012691753270802 0 0.05983784310512839 0 0
          -0.05955018732100742 0.05218199042363793 0 0.011963374613192183 0 0
          0.09386362181075411 -0.09940725476289614 0 0.0025188925466741955 0 0
          0.04462421567019708 -0.044011225787942664 0 0.08245273665786405 0 0
          -0.06344204019633302 0.06232003876926242 0 0.027709931518666693 0 0
          0.07518796022326982 -0.07310820769273643 0 0.0393073515257831 0 0
          0.027144727290799343 -0.029031181561990357 0 0.26375525690749285 0 0
          0.06801474519556146 -0.07095103961899549 0 -0.06948706515044925 0 0
          0.11459346872988423 -0.11538838820952256 0 0.06841726299693979 0 0
          0.009803074036613312 -0.006059951021851971 0 -0.03412946176368616 0 0
          -0.3070183098240436 0.30899244924483676 0 0.36207267806528737 0 0
          0.026607329935076817 -0.02444746273615854 0 -0.0037628495268789766 0 0
          0.32879079919961146 -0.3287197758675963 0 0.3186068938698793 0 0
          -0.308597618333368 0.3124641159152525 0 0.05379932183768759 0 0
          0.13038873028985817 -0.13427365289358406 0 -0.05879711212056842 0 0
          -0.059186282105710135 0.06446623321842869 0 0.12486898567434238 0 0
          0.31949798807722035 -0.3153107663238084 0 -0.07612117788799116 0 0
          0.004480208337149044 -0.0011110961517395712 0 -0.36450851720138155 0 0
          0.059633154272798236 -0.059350625100173436 0 -0.044263753640855455 0 0
          0.03847350128146712 -0.039525518073931204 0 0.015261757902741084 0 0
          0.049165455472417144 -0.049757745555097176 0 -0.024951991377622575 0 0
          0.0018216441424787958 0.00025376069085409616 0 -0.04099240920914576 0 0
          0.11562464809291832 -0.12440997235038322 0 -0.2045250643117658 0 0
          -0.015870544436915098 0.011454804293144192 0 -0.13411480680599086 0 0
          -0.05719841710598695 0.06231658888305762 0 -0.4891499110876943 0 0
          -0.09840536227735827 0.08135386533343067 0 -0.15932843818804476 0 0
          0.10102619922341696 -0.10286085101830768 0 0.05394297219962955 0 0
          -0.028573152481783555 0.03271096701539538 0 -0.05334291579284121 0 0
          -0.07063288754002875 0.0701560652952406 0 -0.06170415179316504 0 0
          0.029743259829988232 -0.033719773778162765 0 -0.03546199856773129 0 0
          -0.3912445283397818 0.4075534594729789 0 0.34882386586452097 0 0
          0.06104843729734332 -0.05086635081823408 0 -0.004605279486698879 0 0
          0.025809554660245714 -0.03329255979956633 0 -0.12799858263589825 0 0
          0.020777829118402195 -0.023777625403648348 0 -0.039962630406406074 0 0
          0.0091597674406576 -0.006303769689645685 0 -0.015566987714744289 0 0
          -0.018937801121826456 0.0034068608193960973 0 -0.03548631512690493 0 0
          -0.023875846562421744 0.024742446392876635 0 0.004418411352955976 0 0
          -0.053028972886493775 0.05038295407948447 0 -0.016267070041427793 0 0
          -0.01962297000294212 0.020861196306282095 0 -0.018653958007328386 0 0
          0.3821702281045613 -0.3773709894733408 0 -0.1685705117046899 0 0
          -0.12664333307679576 0.1166131458598637 0 -0.2578159897803906 0 0
          -0.07519155855742374 0.07873882546699201 0 -0.15545355011037673 0 0
          -0.32205101831442995 0.32280457681207664 0 0.10129336695826316 0 0
          0.011316599142590408 -0.016798656978374835 0 0.5517782454767857 0 0
          0.006972067095930373 0.0034205411684398723 0 0.4098874789048087 0 0
          <InformationKey name="L2_NORM_RANGE" location="vtkDataArray" length="2">
            <Value index="0">
              7.0121057449e-05
            </Value>
            <Value index="1">
              0.66396550564
            </Value>
          </InformationKey>
        </DataArray>
        <DataArray type="Float64" Name="ALEdispl" NumberOfComponents="3" format="ascii" RangeMin="0" RangeMax="0">
          0 0 0 0 0 0
          0 0 0 0 0 0
          0 0 0 0 0 0
          0 0 0 0 0 0
          0 0 0 0 0 0
          0 0 0 0 0 0
          0 0 0 0 0 0
          0 0 0 0 0 0
          0 0 0 0 0 0
          0 0 0 0 0 0
          0 0 0 0 0 0
          0 0 0 0 0 0
          0 0 0 0 0 0
          0 0 0 0 0 0
          0 0 0 0 0 0
          0 0 0 0 0 0
          0 0 0 0 0 0
          0 0 0 0 0 0
          0 0 0 0 0 0
          0 0 0 0 0 0
          0 0 0 0 0 0
          0 0 0 0 0 0
          0 0 0 0 0 0
          0 0 0 0 0 0
          0 0 0 0 0 0
          0 0 0 0 0 0
          0 0 0 0 0 0
          0 0 0 0 0 0
          0 0 0 0 0 0
          0 0 0 0 0 0
          0 0 0 0 0 0
          0 0 0 0 0 0
          0 0 0 0 0 0
          0 0 0 0 0 0
          0 0 0 0 0 0
          0 0 0 0 0 0
          0 0 0 0 0 0
          0 0 0 0 0 0
          0 0 0 0 0 0
          0 0 0 0 0 0
          0 0 0 0 0 0
          0 0 0 0 0 0
          0 0 0 0 0 0
          0 0 0 0 0 0
          0 0 0 0 0 0
          0 0 0 0 0 0
          0 0 0 0 0 0
          0 0 0 0 0 0
          0 0 0
          <InformationKey name="L2_NORM_RANGE" location="vtkDataArray" length="2">
            <Value index="0">
              0
            </Value>
            <Value index="1">
              0
            </Value>
          </InformationKey>
        </DataArray>
        <DataArray type="Float64" Name="ALEveloc" NumberOfComponents="3" format="ascii" RangeMin="0" RangeMax="0">
          0 0 0 0 0 0
          0 0 0 0 0 0
          0 0 0 0 0 0
          0 0 0 0 0 0
          0 0 0 0 0 0
          0 0 0 0 0 0
          0 0 0 0 0 0
          0 0 0 0 0 0
          0 0 0 0 0 0
          0 0 0 0 0 0
          0 0 0 0 0 0
          0 0 0 0 0 0
          0 0 0 0 0 0
          0 0 0 0 0 0
          0 0 0 0 0 0
          0 0 0 0 0 0
          0 0 0 0 0 0
          0 0 0 0 0 0
          0 0 0 0 0 0
          0 0 0 0 0 0
          0 0 0 0 0 0
          0 0 0 0 0 0
          0 0 0 0 0 0
          0 0 0 0 0 0
          0 0 0 0 0 0
          0 0 0 0 0 0
          0 0 0 0 0 0
          0 0 0 0 0 0
          0 0 0 0 0 0
          0 0 0 0 0 0
          0 0 0 0 0 0
          0 0 0 0 0 0
          0 0 0 0 0 0
          0 0 0 0 0 0
          0 0 0 0 0 0
          0 0 0 0 0 0
          0 0 0 0 0 0
          0 0 0 0 0 0
          0 0 0 0 0 0
          0 0 0 0 0 0
          0 0 0 0 0 0
          0 0 0 0 0 0
          0 0 0 0 0 0
          0 0 0 0 0 0
          0 0 0 0 0 0
          0 0 0 0 0 0
          0 0 0 0 0 0
          0 0 0 0 0 0
          0 0 0
          <InformationKey name="L2_NORM_RANGE" location="vtkDataArray" length="2">
            <Value index="0">
              0
            </Value>
            <Value index="1">
              0
            </Value>
          </InformationKey>
        </DataArray>
      </PointData>
      <CellData>
        <DataArray type="UInt8" Name="vtkGhostType" format="ascii" RangeMin="0" RangeMax="0">
          0 0 0 0 0 0
          0 0 0 0 0 0
          0 0 0 0 0 0
          0 0 0 0 0 0
          0 0 0 0 0 0
          0 0 0 0 0 0
          0 0 0 0 0 0
          0 0 0 0 0 0
          0 0 0 0 0 0
          0 0 0 0 0 0
          0 0 0 0 0 0
          0 0 0 0 0 0
          0 0 0 0 0 0
          0 0 0 0 0 0
          0 0 0 0 0 0
          0 0 0 0 0 0
          0 0 0 0 0 0
          0 0 0 0 0 0
          0 0 0 0 0 0
          0 0 0 0 0 0
          0 0 0 0 0 0
          0 0 0 0 0 0
          0 0 0 0 0 0
          0 0 0 0 0 0
          0 0 0 0 0 0
          0 0 0 0
        </DataArray>
        <DataArray type="Float64" Name="PStrain" NumberOfComponents="6" format="ascii" RangeMin="0.1732050807568877" RangeMax="0.1732050807568877">
          0.09999999999999999 0.09999999999999999 0 0.09999999999999999 0 0
          0.09999999999999999 0.09999999999999999 0 0.09999999999999999 0 0
          0.09999999999999999 0.09999999999999999 0 0.09999999999999999 0 0
          0.09999999999999999 0.09999999999999999 0 0.09999999999999999 0 0
          0.09999999999999999 0.09999999999999999 0 0.09999999999999999 0 0
          0.09999999999999999 0.09999999999999999 0 0.09999999999999999 0 0
          0.09999999999999999 0.09999999999999999 0 0.09999999999999999 0 0
          0.09999999999999999 0.09999999999999999 0 0.09999999999999999 0 0
          0.09999999999999999 0.09999999999999999 0 0.09999999999999999 0 0
          0.09999999999999999 0.09999999999999999 0 0.09999999999999999 0 0
          0.09999999999999999 0.09999999999999999 0 0.09999999999999999 0 0
          0.09999999999999999 0.09999999999999999 0 0.09999999999999999 0 0
          0.09999999999999999 0.09999999999999999 0 0.09999999999999999 0 0
          0.09999999999999999 0.09999999999999999 0 0.09999999999999999 0 0
          0.09999999999999999 0.09999999999999999 0 0.09999999999999999 0 0
          0.09999999999999999 0.09999999999999999 0 0.09999999999999999 0 0
          0.09999999999999999 0.09999999999999999 0 0.09999999999999999 0 0
          0.09999999999999999 0.09999999999999999 0 0.09999999999999999 0 0
          0.09999999999999999 0.09999999999999999 0 0.09999999999999999 0 0
          0.09999999999999999 0.09999999999999999 0 0.09999999999999999 0 0
          0.09999999999999999 0.09999999999999999 0 0.09999999999999999 0 0
          0.09999999999999999 0.09999999999999999 0 0.09999999999999999 0 0
          0.09999999999999999 0.09999999999999999 0 0.09999999999999999 0 0
          0.09999999999999999 0.09999999999999999 0 0.09999999999999999 0 0
          0.09999999999999999 0.09999999999999999 0 0.09999999999999999 0 0
          0.09999999999999999 0.09999999999999999 0 0.09999999999999999 0 0
          0.09999999999999999 0.09999999999999999 0 0.09999999999999999 0 0
          0.09999999999999999 0.09999999999999999 0 0.09999999999999999 0 0
          0.09999999999999999 0.09999999999999999 0 0.09999999999999999 0 0
          0.09999999999999999 0.09999999999999999 0 0.09999999999999999 0 0
          0.09999999999999999 0.09999999999999999 0 0.09999999999999999 0 0
          0.09999999999999999 0.09999999999999999 0 0.09999999999999999 0 0
          0.09999999999999999 0.09999999999999999 0 0.09999999999999999 0 0
          0.09999999999999999 0.09999999999999999 0 0.09999999999999999 0 0
          0.09999999999999999 0.09999999999999999 0 0.09999999999999999 0 0
          0.09999999999999999 0.09999999999999999 0 0.09999999999999999 0 0
          0.09999999999999999 0.09999999999999999 0 0.09999999999999999 0 0
          0.09999999999999999 0.09999999999999999 0 0.09999999999999999 0 0
          0.09999999999999999 0.09999999999999999 0 0.09999999999999999 0 0
          0.09999999999999999 0.09999999999999999 0 0.09999999999999999 0 0
          0.09999999999999999 0.09999999999999999 0 0.09999999999999999 0 0
          0.09999999999999999 0.09999999999999999 0 0.09999999999999999 0 0
          0.09999999999999999 0.09999999999999999 0 0.09999999999999999 0 0
          0.09999999999999999 0.09999999999999999 0 0.09999999999999999 0 0
          0.09999999999999999 0.09999999999999999 0 0.09999999999999999 0 0
          0.09999999999999999 0.09999999999999999 0 0.09999999999999999 0 0
          0.09999999999999999 0.09999999999999999 0 0.09999999999999999 0 0
          0.09999999999999999 0.09999999999999999 0 0.09999999999999999 0 0
          0.09999999999999999 0.09999999999999999 0 0.09999999999999999 0 0
          0.09999999999999999 0.09999999999999999 0 0.09999999999999999 0 0
          0.09999999999999999 0.09999999999999999 0 0.09999999999999999 0 0
          0.09999999999999999 0.09999999999999999 0 0.09999999999999999 0 0
          0.09999999999999999 0.09999999999999999 0 0.09999999999999999 0 0
          0.09999999999999999 0.09999999999999999 0 0.09999999999999999 0 0
          0.09999999999999999 0.09999999999999999 0 0.09999999999999999 0 0
          0.09999999999999999 0.09999999999999999 0 0.09999999999999999 0 0
          0.09999999999999999 0.09999999999999999 0 0.09999999999999999 0 0
          0.09999999999999999 0.09999999999999999 0 0.09999999999999999 0 0
          0.09999999999999999 0.09999999999999999 0 0.09999999999999999 0 0
          0.09999999999999999 0.09999999999999999 0 0.09999999999999999 0 0
          0.09999999999999999 0.09999999999999999 0 0.09999999999999999 0 0
          0.09999999999999999 0.09999999999999999 0 0.09999999999999999 0 0
          0.09999999999999999 0.09999999999999999 0 0.09999999999999999 0 0
          0.09999999999999999 0.09999999999999999 0 0.09999999999999999 0 0
          0.09999999999999999 0.09999999999999999 0 0.09999999999999999 0 0
          0.09999999999999999 0.09999999999999999 0 0.09999999999999999 0 0
          0.09999999999999999 0.09999999999999999 0 0.09999999999999999 0 0
          0.09999999999999999 0.09999999999999999 0 0.09999999999999999 0 0
          0.09999999999999999 0.09999999999999999 0 0.09999999999999999 0 0
          0.09999999999999999 0.09999999999999999 0 0.09999999999999999 0 0
          0.09999999999999999 0.09999999999999999 0 0.09999999999999999 0 0
          0.09999999999999999 0.09999999999999999 0 0.09999999999999999 0 0
          0.09999999999999999 0.09999999999999999 0 0.09999999999999999 0 0
          0.09999999999999999 0.09999999999999999 0 0.09999999999999999 0 0
          0.09999999999999999 0.09999999999999999 0 0.09999999999999999 0 0
          0.09999999999999999 0.09999999999999999 0 0.09999999999999999 0 0
          0.09999999999999999 0.09999999999999999 0 0.09999999999999999 0 0
          0.09999999999999999 0.09999999999999999 0 0.09999999999999999 0 0
          0.09999999999999999 0.09999999999999999 0 0.09999999999999999 0 0
          0.09999999999999999 0.09999999999999999 0 0.09999999999999999 0 0
          0.09999999999999999 0.09999999999999999 0 0.09999999999999999 0 0
          0.09999999999999999 0.09999999999999999 0 0.09999999999999999 0 0
          0.09999999999999999 0.09999999999999999 0 0.09999999999999999 0 0
          0.09999999999999999 0.09999999999999999 0 0.09999999999999999 0 0
          0.09999999999999999 0.09999999999999999 0 0.09999999999999999 0 0
          0.09999999999999999 0.09999999999999999 0 0.09999999999999999 0 0
          0.09999999999999999 0.09999999999999999 0 0.09999999999999999 0 0
          0.09999999999999999 0.09999999999999999 0 0.09999999999999999 0 0
          0.09999999999999999 0.09999999999999999 0 0.09999999999999999 0 0
          0.09999999999999999 0.09999999999999999 0 0.09999999999999999 0 0
          0.09999999999999999 0.09999999999999999 0 0.09999999999999999 0 0
          0.09999999999999999 0.09999999999999999 0 0.09999999999999999 0 0
          0.09999999999999999 0.09999999999999999 0 0.09999999999999999 0 0
          0.09999999999999999 0.09999999999999999 0 0.09999999999999999 0 0
          0.09999999999999999 0.09999999999999999 0 0.09999999999999999 0 0
          0.09999999999999999 0.09999999999999999 0 0.09999999999999999 0 0
          0.09999999999999999 0.09999999999999999 0 0.09999999999999999 0 0
          0.09999999999999999 0.09999999999999999 0 0.09999999999999999 0 0
          0.09999999999999999 0.09999999999999999 0 0.09999999999999999 0 0
          0.09999999999999999 0.09999999999999999 0 0.09999999999999999 0 0
          0.09999999999999999 0.09999999999999999 0 0.09999999999999999 0 0
          0.09999999999999999 0.09999999999999999 0 0.09999999999999999 0 0
          0.09999999999999999 0.09999999999999999 0 0.09999999999999999 0 0
          0.09999999999999999 0.09999999999999999 0 0.09999999999999999 0 0
          0.09999999999999999 0.09999999999999999 0 0.09999999999999999 0 0
          0.09999999999999999 0.09999999999999999 0 0.09999999999999999 0 0
          0.09999999999999999 0.09999999999999999 0 0.09999999999999999 0 0
          0.09999999999999999 0.09999999999999999 0 0.09999999999999999 0 0
          0.09999999999999999 0.09999999999999999 0 0.09999999999999999 0 0
          0.09999999999999999 0.09999999999999999 0 0.09999999999999999 0 0
          0.09999999999999999 0.09999999999999999 0 0.09999999999999999 0 0
          0.09999999999999999 0.09999999999999999 0 0.09999999999999999 0 0