<?xml version="1.0"?>
<VTKFile type="UnstructuredGrid" version="0.1" byte_order="LittleEndian" header_type="UInt32" compressor="vtkZLibDataCompressor">
  <UnstructuredGrid>
    <Piece NumberOfPoints="94" NumberOfCells="150">
      <PointData>
        <DataArray type="Float64" Name="Velocity" NumberOfComponents="3" format="ascii" RangeMin="0" RangeMax="6.402183106286185">
          1.0826187456224357 0 0 1.3019263353197303 -0.11164199127784494 0
          1.4908813646322059 -0.3256179442371503 0 1.5047580118805322 0 0
          1.113779000034579 -0.8640341090702275 0 1.297538740437663 -0.32422520141003014 0
          2.315814841998595 -0.12629749140597435 0 2.9088395536521565 -0.9027901484355476 0
          1.9058024743310749 -1.2009874166327021 0 1.6393687583695082 0 0
          1.3812452331491918 -1.5046381904719008 0 1.7553376213941152 -0.17281943053888316 0
          1.163649333515207 -0.38698950368768303 0 3.153375421579088 -0.9849093039345899 0
          5.671975201948484 -1.4254405224898543 0 4.159726618331829 1.0923684702493537 0
          2.511142776928189 4.561047539276636 0 2.075883829429587 -0.4007021973003777 0
          -0.23805858275548308 0.15846311305206595 0 1.3206020266903336 0.623616663333284 0
          0 0 0 3.3389263254923467 1.6729217929384999 0
          1.6877549998823003 0.1853281893185936 0 0 0 0
          3.6601041642834935 5.252769367963042 0 1.988762314603746 -0.12949295806136463 0
          2.410502489264271 -0.30549884181386433 0 0 0 0
          0 0 0 1.745431671759392 0.35865650923699144 0
          2.735563710462862 0.250297628465878 0 1.7685092160225606 0 0
          0 0 0 0 0 0
          1.9732076728106989 1.5023173483940147 0 -0.8611452583747767 3.0402199890956894 0
          1.5867513952057437 0.367187208953346 0 0 0 0
          2.3285032417734035 0.4526985796617361 0 1.7301644076258182 0.1289445498469598 0
          0 0 0 1.2905962235694481 1.3646963383262085 0
          0.44133516947027207 -0.7556239672853602 0 0 0 0
          1.137755805609608 1.1482276127867077 0 2.9304881426503497 0.8923022282502205 0
          0.7556436556247574 0.08106657852745291 0 2.32144174157509 0.3673485888043214 0
          1.6200303574939041 0.10621074824838932 0 -0.314548803330303 -0.2397941850911559 0
          1.2480632050744 1.3629937368611453 0 0.5896313147107064 1.0256135634915224 0
          1.431677474903323 1.1142072690267195 0 0.835432891998874 1.732455460574612 0
          0.6316155487599392 0 0 0.46774415041955897 0.7261633000097782 0
          0.7485051783116955 0.5840030335034954 0 -0.05316895936398965 -0.008401520330945683 0
          0.7367562475096094 1.558142719889181 0 -0.5600428675713202 0.13471719556374565 0
          1.2627758406566214 0.8555675336083094 0 1.7223914914077958 1.5359641603267356 0
          1.1381503240382964 0 0 1.4545305435200695 1.411446156526306 0
          0.4808276736463521 0 0 0.9350488012270519 0.5123231709263999 0
          0.5423861249834536 0.5207383955674847 0 1.0625225079497767 0.2823595791756094 0
          0.1270291056492895 -0.04753850158906241 0 -1.0281672508183897 0 0
          1.0264030796989103 0.30292352731719047 0 0.9380280927598 0.580163266590651 0
          1.1150928318272526 1.0597179520432585 0 1.0758644493915381 1.0809059565295385 0
          0.6699339247767911 0.941001390628629 0 0.469514046377717 0 0
          0.9999999999999999 0 0 1 0 0
          0.9999999999999999 0 0 0.6806619302987298 0 0
          1 0 0 0.9999999999999999 0 0
          1 0 0 1 0 0
          1.2304680808338926 -0.17300399868786523 0 1.04009675752242 0 0
          0.08953719390857406 -3.014876743406764 0 3.7421933366027504 -3.0845920661533475 0
          2.380351607454288 -0.9245506263597326 0 1.3754331767048746 -0.8590669312767238 0
          1.6602363901603627 -0.4969240578115952 0 1.2182024097689015 -0.5719197349134496 0
          -1.9166646661959705 0.7311855834263163 0 0 0 0
          <InformationKey name="L2_NORM_RANGE" location="vtkDataArray" length="2">
            <Value index="0">
              0
            </Value>
            <Value index="1">
              6.4021831063
            </Value>
          </InformationKey>
        </DataArray>
        <DataArray type="Float64" Name="Pressure" format="ascii" RangeMin="-67.32580890995703" RangeMax="15.904729241824464">
          -1.800522467815662 -3.343305336721363 -3.1311495031281673 -6.3411164801243345 -1.1686759689752493 -3.8072415716017534
          -9.108895415779338 -11.63683273116679 -2.3848665557231232 -8.508232752483654 -2.530920556081102 -9.161793094847972
          2.6879063587644754 -6.880516708525679 -28.669408587697795 -15.327283626421387 -37.79113890756521 -4.881409267239584
          -22.19846952467004 -1.532871827657693 -67.32580890995703 -16.99369269490884 -13.298597352882794 -34.939645616425274
          -28.04514386539111 -10.530478234291206 -2.2912872463519465 -42.62215142159914 -28.10631828283979 -6.996994318981681
          -11.321070535663601 -14.240300055875881 -27.14673685955829 -15.388288084986565 -8.070773152768094 3.425744803848624
          -12.368214984678682 -17.582475162823123 -4.212514065029063 9.599023399379654 -4.618511756670694 -9.805501032424843
          -17.931288320038075 11.036562777671815 -7.4055308087968745 1.3756375269263716 -18.263520151602503 -12.901636880227597
          -12.84664833505032 -15.973092789521994 -13.114010306011462 -9.23448366946036 -5.287472123247433 -16.293538924214054
          -1.83633126073804 -9.60568918897601 -5.680808161741913 -13.052320750298366 -8.673223063725157 -11.210158027559814
          -10.727530954546832 -6.4918378163086805 -13.066393709975335 -7.864831216760139 -15.923081465266629 -8.829576978606845
          -5.188760326228167 -8.68499371684316 -5.607365905639217 -7.2231049016048665 -9.401531268176152 -10.17901408889569
          -9.913535299518287 -5.787177451835205 -6.284726337767793 -1.025700141250585 -1.534466301866807 -6.064981770430702
          -5.984919408325642 -6.208279818835657 -7.314102532028924 -10.03867958983234 -8.68999079154605 -3.049061891708348
          -1.8111458917357444 -1.0877956802165998 -14.490939931487933 -23.30522787814894 -8.929196482475213 -1.1139968030932108
          -3.8943029420200093 -1.0873887607849624 -14.103396399646071 15.904729241824464
        </DataArray>
        <DataArray type="Float64" Name="BTraction" NumberOfComponents="3" format="ascii" RangeMin="0" RangeMax="41.73311504285943">
          -0.004489315898230527 2.4645402474590465 0 0 0 0
          0 0 0 0.019942232622949856 5.986373767625059 0
          0 0 0 0 0 0
          0 0 0 0 0 0
          0 0 0 0.016180189659628707 9.143206846647908 0
          0 0 0 0 0 0
          0 0 0 0 0 0
          0 0 0 0 0 0
          0 0 0 0 0 0
          0 0 0 0 0 0
          -34.011549235727145 -24.184032123826004 0 0 0 0
          0 0 0 -30.85057388595605 -0.9931230696632656 0
          0 0 0 0 0 0
          0 0 0 22.49773162638028 -20.69288357655464 0
          30.068717443625953 -0.4921314410681511 0 0 0 0
          0 0 0 -0.006713048466244705 13.100109935954793 0
          25.041547818749027 0.020827408801370007 0 17.71158181482893 0.14876072642316124 0
          0 0 0 0 0 0
          0 0 0 15.276692140573578 0.025991275358687484 0
          0 0 0 0 0 0
          4.351283396016919 -0.08566705537712971 0 0 0 0
          0 0 0 -2.8652796156127827 3.349721869970074 0
          0 0 0 0 0 0
          0 0 0 0 0 0
          0 0 0 0 0 0
          0 0 0 0 0 0
          0 0 0 0 0 0
          0.03745752181884165 -2.074352726517562 0 0 0 0
          0 0 0 0 0 0
          0 0 0 0 0 0
          0 0 0 0 0 0
          -0.018830707919787668 11.244004113439647 0 0 0 0
          -0.03919106944487421 -12.04708102746111 0 0 0 0
          0 0 0 0 0 0
          0 0 0 -0.2169856838505075 -7.710887815910088 0
          0 0 0 0 0 0
          0 0 0 0 0 0
          0 0 0 -0.032494191666910685 -3.0755507950074996 0
          -1.5259822485054453 2.6783412452688657 0 -5.2456197150150015 -0.005729338419500226 0
          -6.201153500310873 -0.020876316898657328 0 -0.012357799289354486 -4.939922030369792 0
          -7.491514983777488 -0.061830916161374705 0 -9.350475132405093 -0.11523058228304354 0
          -8.019496882186768 -0.08136570102745132 0 -2.85613140566682 -1.7769647548738405 0
          0 0 0 -0.0045220809799096555 1.0560588473653325 0
          0 0 0 0 0 0
          0 0 0 0 0 0
          0 0 0 0 0 0
          0 0 0 10.251804896627142 -0.16783590084952954 0
          <InformationKey name="L2_NORM_RANGE" location="vtkDataArray" length="2">
            <Value index="0">
              0
            </Value>
            <Value index="1">
              41.733115043
            </Value>
          </InformationKey>
        </DataArray>
        <DataArray type="Float64" Name="Sigma" NumberOfComponents="6" format="ascii" RangeMin="0.0032351560173940917" RangeMax="1.6172788567567442">
          -0.012807140866956633 0.014733173900206347 0 -0.012847739442745988 0 0
          -0.023844853766468076 0.02337916657182217 0 0.0000376781181217244 0 0
          -0.03312087944205046 0.032650415601024906 0 -0.01198136956991606 0 0
          -0.03011128725933473 0.025707669909619445 0 0.028180585542156328 0 0
          -0.23816207963536734 0.2552239121976197 0 0.00867360422227554 0 0
          -0.03476651520040095 0.04035932335149516 0 -0.012913433826491743 0 0
          -0.02291059644885078 0.012758519902848 0 0.00979626829344108 0 0
          0.15820231323178183 -0.17511624923287478 0 0.04669841531455788 0 0
          -0.3373047957679792 0.36107415703546564 0 -0.17668854236661868 0 0
          -0.01393412233805736 0.014232128724274873 0 0.01923716259731288 0 0
          -0.34414019794069894 0.34501567920505527 0 -0.32134181408265716 0 0
          -0.0477253552868631 0.04728711165395264 0 -0.09973943948726458 0 0
          -0.3264608322943885 0.34889439722512605 0 0.005059438458716675 0 0
          0.5736384763772149 -0.548643425083305 0 -0.40677123030637397 0 0
          -0.07096437022232856 0.03926368999589386 0 0.23242150403465406 0 0
          0.0007353762011315934 0.012790860111356495 0 -0.7901278846337458 0 0
          0.2970901583175857 -0.26770293124278316 0 -0.11716609815154588 0 0
          0.08929101386714136 -0.08501991475655271 0 -0.06160269747973123 0 0
          0.443087943572479 -0.4233255894445194 0 -0.06460290948997754 0 0
          0.46034127449761053 -0.48582847133401225 0 -0.37813625506156245 0 0
          -0.020150774560684565 -0.07505182836740842 0 0.8143463977167461 0 0
          0.1272864663933608 -0.15272197050506775 0 0.4915943992497786 0 0
          0.0036078064871625185 -0.006162126509300517 0 0.008740550126922285 0 0
          -0.47554086374913473 0.449310744370672 0 1.2994851109582966 0 0
          -0.9731751326495994 1.0722914675722461 0 0.7202166828646741 0 0
          0.34141737192275806 -0.3281887685596649 0 -0.29138469504724773 0 0
          0.4423235890342472 -0.4098695125203379 0 -0.030367743206288933 0 0
          -0.21440736055097956 0.08668727990649253 0 -0.3693332926554811 0 0
          -0.18846403152213412 0.17628887799256693 0 -0.6863888720257894 0 0
          0.024010285563943516 -0.03509931522357229 0 -0.007806949229265616 0 0
          0.5615718009460453 -0.5889743808065067 0 0.3921632064022584 0 0
          0.00907289470617413 -0.007323024208584685 0 -0.007283553720883502 0 0
          -0.21969033632593937 0.22863340913405386 0 0.142465439919725 0 0
          0.05494476878599839 -0.04947466043736523 0 0.18426165275501608 0 0
          -0.14635153726347583 0.11300285733164507 0 -0.30061351592463265 0 0
          -0.13672142081584734 0.223913386095213 0 0.4220559121742964 0 0
          -0.054779715730389464 0.05132951292507483 0 -0.0628350326040799 0 0
          0.13747233710692847 -0.14377994040328643 0 0.015132792385092258 0 0
          0.15780183831415684 -0.1173871272640003 0 0.06125686734742943 0 0
          0.0728819101601598 -0.060491058485795175 0 0.1067284513264947 0 0
          -0.04912374679736996 0.05042318144565103 0 -0.10959259136084723 0 0
          -0.335350020349538 0.31808296964217186 0 0.10773731341468437 0 0
          -0.04209328480863844 0.05135074962229701 0 -0.007392595036513447 0 0
          -0.20212813886076603 0.21404729628406327 0 -0.09593845151562876 0 0
          0.08480652829548972 -0.09190720473590379 0 0.18431943973112214 0 0
          0.09661037908916278 -0.09099832574063806 0 0.10123048567227831 0 0
          -0.018126585702462457 0.007988793487168386 0 -0.22156197573248818 0 0
          0.13452503128566423 -0.1549124335020826 0 0.00862936871324981 0 0
          0.08003887624453962 -0.07796240520151908 0 -0.0019410665487556715 0 0
          -0.08360184117816911 0.07817617789132122 0 -0.03924877241684804 0 0
          0.01595396493426701 -0.045929668363090634 0 -0.14031217926151546 0 0
          0.13993731874984294 -0.14588468970825694 0 -0.04821769577850024 0 0
          0.10856931215162646 -0.07456113687125318 0 -0.02240886088569368 0 0
          -0.11767695345344485 0.11395044824889013 0 -0.01873172741009347 0 0
          0.03892582570101519 -0.03738269615439596 0 -0.026275517680464364 0 0
          -0.11451731765503104 0.1079460311200251 0 0.03939137708636943 0 0
          0.14708049771855894 -0.1517804144847147 0 -0.11324346284516794 0 0
          -0.039421655112091045 0.039183026339462364 0 -0.013503639185757508 0 0
          -0.057667706703762145 0.07317812507635771 0 0.052475798265734355 0 0
          -0.03220889970013443 0.03825838754616247 0 -0.02711983291735951 0 0
          0.07139815135910521 -0.06833830878984487 0 -0.024642042959662235 0 0
          0.022017414322210084 -0.014485628865943349 0 0.026204302340955582 0 0
          0.03566185716787026 -0.03922668943173418 0 -0.0291029618361584 0 0
          -0.034464454093080785 0.038956561826193 0 0.0344812522923086 0 0
          0.1380195470232319 -0.1502272656734458 0 -0.024510285123077107 0 0
          -0.0198274098060754 0.013605076275721596 0 0.026289562872530738 0 0
          -0.13404525476937082 0.13672733375541654 0 0.06295210398864742 0 0
          0.020244371624306277 -0.0197315448418746 0 0.02939951528462493 0 0
          -0.0838219756064145 0.08611439328147386 0 -0.09690221815669367 0 0
          0.08763360469947337 -0.08611100194927407 0 0.3418679985637012 0 0
          0.03086806573003313 -0.03384921275272383 0 0.06986399743695493 0 0
          0.05355199921059968 -0.059475684601705714 0 0.07737903524578787 0 0
          0.015816024773186596 -0.017170914052345842 0 0.03583017751460306 0 0
          -0.016917935614202496 0.0226493953727243 0 0.007425613050735712 0 0
          -0.0556730672117826 0.050530544402488824 0 0.04738693948245922 0 0
          -0.21541560004681634 0.22361413032572355 0 -0.041878974599154184 0 0
          0.012621881769051714 -0.010541647512702913 0 0.010160020288010305 0 0
          -0.0023123364587636086 0.0013978713938717973 0 0.0017791262250185318 0 0
          -0.011233701609163095 0.015401518036884568 0 0.01759991317447717 0 0
          -0.11917206311201639 0.11343672356456194 0 0.02165887735893167 0 0
          0.007288774918819358 -0.0021226143664453212 0 0.05618617777111323 0 0
          0.011192509751957595 -0.01565712412233518 0 0.1393988855159441 0 0
          -0.019392969559120586 0.019766069739029588 0 0.079107425739048 0 0
          0.014962869744417863 -0.002279759736363341 0 0.027215724053752454 0 0
          -0.0201564165744319 0.01936477390100988 0 0.010886484241190831 0 0
          -0.00678046511932811 0.006429805683610426 0 -0.004124817714851917 0 0
          -0.07406545793537848 0.08424940063978538 0 0.10467935893140784 0 0
          -0.36126420502849876 0.3100164946055172 0 0.08202762696545904 0 0
          -0.311338808124679 0.31681762152266574 0 0.07950473877857131 0 0
          0.015195882011942555 -0.023213240373489888 0 -0.0503654827877214 0 0
          0.0190735331389145 -0.03152410640814663 0 0.05148354241873896 0 0
          -0.031531510398870415 0.033055608322116056 0 0.028450502138439526 0 0
          -0.2713465648540872 0.2688645739975748 0 -0.644761718668271 0 0
          -0.265597877370775 0.29245470918018696 0 -0.014921186031204459 0 0
          <InformationKey name="L2_NORM_RANGE" location="vtkDataArray" length="2">
            <Value index="0">
              0.0032351560174
            </Value>
            <Value index="1">
              1.6172788568
            </Value>
          </InformationKey>
        </DataArray>
        <DataArray type="Float64" Name="ALEdispl" NumberOfComponents="3" format="ascii" RangeMin="0" RangeMax="0">
          0 0 0 0 0 0
          0 0 0 0 0 0
          0 0 0 0 0 0
          0 0 0 0 0 0
          0 0 0 0 0 0
          0 0 0 0 0 0
          0 0 0 0 0 0
          0 0 0 0 0 0
          0 0 0 0 0 0
          0 0 0 0 0 0
          0 0 0 0 0 0
          0 0 0 0 0 0
          0 0 0 0 0 0
          0 0 0 0 0 0
          0 0 0 0 0 0
          0 0 0 0 0 0
          0 0 0 0 0 0
          0 0 0 0 0 0
          0 0 0 0 0 0
          0 0 0 0 0 0
          0 0 0 0 0 0
          0 0 0 0 0 0
          0 0 0 0 0 0
          0 0 0 0 0 0
          0 0 0 0 0 0
          0 0 0 0 0 0
          0 0 0 0 0 0
          0 0 0 0 0 0
          0 0 0 0 0 0
          0 0 0 0 0 0
          0 0 0 0 0 0
          0 0 0 0 0 0
          0 0 0 0 0 0
          0 0 0 0 0 0
          0 0 0 0 0 0
          0 0 0 0 0 0
          0 0 0 0 0 0
          0 0 0 0 0 0
          0 0 0 0 0 0
          0 0 0 0 0 0
          0 0 0 0 0 0
          0 0 0 0 0 0
          0 0 0 0 0 0
          0 0 0 0 0 0
          0 0 0 0 0 0
          0 0 0 0 0 0
          0 0 0 0 0 0
          <InformationKey name="L2_NORM_RANGE" location="vtkDataArray" length="2">
            <Value index="0">
              0
            </Value>
            <Value index="1">
              0
            </Value>
          </InformationKey>
        </DataArray>
        <DataArray type="Float64" Name="ALEveloc" NumberOfComponents="3" format="ascii" RangeMin="0" RangeMax="0">
          0 0 0 0 0 0
          0 0 0 0 0 0
          0 0 0 0 0 0
          0 0 0 0 0 0
          0 0 0 0 0 0
          0 0 0 0 0 0
          0 0 0 0 0 0
          0 0 0 0 0 0
          0 0 0 0 0 0
          0 0 0 0 0 0
          0 0 0 0 0 0
          0 0 0 0 0 0
          0 0 0 0 0 0
          0 0 0 0 0 0
          0 0 0 0 0 0
          0 0 0 0 0 0
          0 0 0 0 0 0
          0 0 0 0 0 0
          0 0 0 0 0 0
          0 0 0 0 0 0
          0 0 0 0 0 0
          0 0 0 0 0 0
          0 0 0 0 0 0
          0 0 0 0 0 0
          0 0 0 0 0 0
          0 0 0 0 0 0
          0 0 0 0 0 0
          0 0 0 0 0 0
          0 0 0 0 0 0
          0 0 0 0 0 0
          0 0 0 0 0 0
          0 0 0 0 0 0
          0 0 0 0 0 0
          0 0 0 0 0 0
          0 0 0 0 0 0
          0 0 0 0 0 0
          0 0 0 0 0 0
          0 0 0 0 0 0
          0 0 0 0 0 0
          0 0 0 0 0 0
          0 0 0 0 0 0
          0 0 0 0 0 0
          0 0 0 0 0 0
          0 0 0 0 0 0
          0 0 0 0 0 0
          0 0 0 0 0 0
          0 0 0 0 0 0
          <InformationKey name="L2_NORM_RANGE" location="vtkDataArray" length="2">
            <Value index="0">
              0
            </Value>
            <Value index="1">
              0
            </Value>
          </InformationKey>
        </DataArray>
      </PointData>
      <CellData>
        <DataArray type="UInt8" Name="vtkGhostType" format="ascii" RangeMin="0" RangeMax="1">
          0 0 0 0 0 0
          0 0 1 0 0 1
          0 1 0 0 1 1
          1 0 0 0 0 0
          1 1 0 1 1 0
          1 1 0 1 0 0
          0 0 0 0 0 0
          0 0 0 0 0 0
          0 0 0 0 0 0
          0 0 0 0 0 0
          0 0 0 0 0 0
          0 0 0 0 0 0
          0 0 0 0 0 0
          0 0 0 0 0 0
          0 1 0 0 0 0
          0 0 0 1 0 0
          0 0 0 0 0 1
          0 0 0 0 0 0
          0 0 0 0 0 0
          0 0 0 0 0 0
          0 0 0 0 0 0
          0 0 0 0 0 0
          0 1 0 0 0 0
          0 0 0 0 0 0
          0 0 0 0 0 0
        </DataArray>
        <DataArray type="Float64" Name="PStrain" NumberOfComponents="6" format="ascii" RangeMin="0.1732050807568877" RangeMax="0.1732050807568877">
          0.09999999999999999 0.09999999999999999 0 0.09999999999999999 0 0
          0.09999999999999999 0.09999999999999999 0 0.09999999999999999 0 0
          0.09999999999999999 0.09999999999999999 0 0.09999999999999999 0 0
          0.09999999999999999 0.09999999999999999 0 0.09999999999999999 0 0
          0.09999999999999999 0.09999999999999999 0 0.09999999999999999 0 0
          0.09999999999999999 0.09999999999999999 0 0.09999999999999999 0 0
          0.09999999999999999 0.09999999999999999 0 0.09999999999999999 0 0
          0.09999999999999999 0.09999999999999999 0 0.09999999999999999 0 0
          0.09999999999999999 0.09999999999999999 0 0.09999999999999999 0 0
          0.09999999999999999 0.09999999999999999 0 0.09999999999999999 0 0
          0.09999999999999999 0.09999999999999999 0 0.09999999999999999 0 0
          0.09999999999999999 0.09999999999999999 0 0.09999999999999999 0 0
          0.09999999999999999 0.09999999999999999 0 0.09999999999999999 0 0
          0.09999999999999999 0.09999999999999999 0 0.09999999999999999 0 0
          0.09999999999999999 0.09999999999999999 0 0.09999999999999999 0 0
          0.09999999999999999 0.09999999999999999 0 0.09999999999999999 0 0
          0.09999999999999999 0.09999999999999999 0 0.09999999999999999 0 0
          0.09999999999999999 0.09999999999999999 0 0.09999999999999999 0 0
          0.09999999999999999 0.09999999999999999 0 0.09999999999999999 0 0
          0.09999999999999999 0.09999999999999999 0 0.09999999999999999 0 0
          0.09999999999999999 0.09999999999999999 0 0.09999999999999999 0 0
          0.09999999999999999 0.09999999999999999 0 0.09999999999999999 0 0
          0.09999999999999999 0.09999999999999999 0 0.09999999999999999 0 0
          0.09999999999999999 0.09999999999999999 0 0.09999999999999999 0 0
          0.09999999999999999 0.09999999999999999 0 0.09999999999999999 0 0
          0.09999999999999999 0.09999999999999999 0 0.09999999999999999 0 0
          0.09999999999999999 0.09999999999999999 0 0.09999999999999999 0 0
          0.09999999999999999 0.09999999999999999 0 0.09999999999999999 0 0
          0.09999999999999999 0.09999999999999999 0 0.09999999999999999 0 0
          0.09999999999999999 0.09999999999999999 0 0.09999999999999999 0 0
          0.09999999999999999 0.09999999999999999 0 0.09999999999999999 0 0
          0.09999999999999999 0.09999999999999999 0 0.09999999999999999 0 0
          0.09999999999999999 0.09999999999999999 0 0.09999999999999999 0 0
          0.09999999999999999 0.09999999999999999 0 0.09999999999999999 0 0
          0.09999999999999999 0.09999999999999999 0 0.09999999999999999 0 0
          0.09999999999999999 0.09999999999999999 0 0.09999999999999999 0 0
          0.09999999999999999 0.09999999999999999 0 0.09999999999999999 0 0
          0.09999999999999999 0.09999999999999999 0 0.09999999999999999 0 0
          0.09999999999999999 0.09999999999999999 0 0.09999999999999999 0 0
          0.09999999999999999 0.09999999999999999 0 0.09999999999999999 0 0
          0.09999999999999999 0.09999999999999999 0 0.09999999999999999 0 0
          0.09999999999999999 0.09999999999999999 0 0.09999999999999999 0 0
          0.09999999999999999 0.09999999999999999 0 0.09999999999999999 0 0
          0.09999999999999999 0.09999999999999999 0 0.09999999999999999 0 0
          0.09999999999999999 0.09999999999999999 0 0.09999999999999999 0 0
          0.09999999999999999 0.09999999999999999 0 0.09999999999999999 0 0
          0.09999999999999999 0.09999999999999999 0 0.09999999999999999 0 0
          0.09999999999999999 0.09999999999999999 0 0.09999999999999999 0 0
          0.09999999999999999 0.09999999999999999 0 0.09999999999999999 0 0
          0.09999999999999999 0.09999999999999999 0 0.09999999999999999 0 0
          0.09999999999999999 0.09999999999999999 0 0.09999999999999999 0 0
          0.09999999999999999 0.09999999999999999 0 0.09999999999999999 0 0
          0.09999999999999999 0.09999999999999999 0 0.09999999999999999 0 0
          0.09999999999999999 0.09999999999999999 0 0.09999999999999999 0 0
          0.09999999999999999 0.09999999999999999 0 0.09999999999999999 0 0
          0.09999999999999999 0.09999999999999999 0 0.09999999999999999 0 0
          0.09999999999999999 0.09999999999999999 0 0.09999999999999999 0 0
          0.09999999999999999 0.09999999999999999 0 0.09999999999999999 0 0
          0.09999999999999999 0.09999999999999999 0 0.09999999999999999 0 0
          0.09999999999999999 0.09999999999999999 0 0.09999999999999999 0 0
          0.09999999999999999 0.09999999999999999 0 0.09999999999999999 0 0
          0.09999999999999999 0.09999999999999999 0 0.09999999999999999 0 0
          0.09999999999999999 0.09999999999999999 0 0.09999999999999999 0 0
          0.09999999999999999 0.09999999999999999 0 0.09999999999999999 0 0
          0.09999999999999999 0.09999999999999999 0 0.09999999999999999 0 0
          0.09999999999999999 0.09999999999999999 0 0.09999999999999999 0 0
          0.09999999999999999 0.09999999999999999 0 0.09999999999999999 0 0
          0.09999999999999999 0.09999999999999999 0 0.09999999999999999 0 0
          0.09999999999999999 0.09999999999999999 0 0.09999999999999999 0 0
          0.09999999999999999 0.09999999999999999 0 0.09999999999999999 0 0
          0.09999999999999999 0.09999999999999999 0 0.09999999999999999 0 0
          0.09999999999999999 0.09999999999999999 0 0.09999999999999999 0 0
          0.09999999999999999 0.09999999999999999 0 0.09999999999999999 0 0
          0.09999999999999999 0.09999999999999999 0 0.09999999999999999 0 0
          0.09999999999999999 0.09999999999999999 0 0.09999999999999999 0 0
          0.09999999999999999 0.09999999999999999 0 0.09999999999999999 0 0
          0.09999999999999999 0.09999999999999999 0 0.09999999999999999 0 0
          0.09999999999999999 0.09999999999999999 0 0.09999999999999999 0 0
          0.09999999999999999 0.09999999999999999 0 0.09999999999999999 0 0
          0.09999999999999999 0.09999999999999999 0 0.09999999999999999 0 0
          0.09999999999999999 0.09999999999999999 0 0.09999999999999999 0 0
          0.09999999999999999 0.09999999999999999 0 0.09999999999999999 0 0
          0.09999999999999999 0.09999999999999999 0 0.09999999999999999 0 0
          0.09999999999999999 0.09999999999999999 0 0.09999999999999999 0 0
          0.09999999999999999 0.09999999999999999 0 0.09999999999999999 0 0
          0.09999999999999999 0.09999999999999999 0 0.09999999999999999 0 0
          0.09999999999999999 0.09999999999999999 0 0.09999999999999999 0 0
          0.09999999999999999 0.09999999999999999 0 0.09999999999999999 0 0
          0.09999999999999999 0.09999999999999999 0 0.09999999999999999 0 0
          0.09999999999999999 0.09999999999999999 0 0.09999999999999999 0 0
          0.09999999999999999 0.09999999999999999 0 0.09999999999999999 0 0
          0.09999999999999999 0.09999999999999999 0 0.09999999999999999 0 0
          0.09999999999999999 0.09999999999999999 0 0.09999999999999999 0 0
          0.09999999999999999 0.09999999999999999 0 0.09999999999999999 0 0
          0.09999999999999999 0.09999999999999999 0 0.09999999999999999 0 0
          0.09999999999999999 0.09999999999999999 0 0.09999999999999999 0 0
          0.09999999999999999 0.09999999999999999 0 0.09999999999999999 0 0
          0.09999999999999999 0.09999999999999999 0 0.09999999999999999 0 0
          0.09999999999999999 0.09999999999999999 0 0.09999999999999999 0 0
          0.09999999999999999 0.09999999999999999 0 0.09999999999999999 0 0
          0.09999999999999999 0.09999999999999999 0 0.09999999999999999 0 0
          0.09999999999999999 0.09999999999999999 0 0.09999999999999999 0 0
          0.09999999999999999 0.09999999999999999 0 0.09999999999999999 0 0
          0.09999999999999999 0.09999999999999999 0 0.09999999999999999 0 0
          0.09999999999999999 0.09999999999999999 0 0.09999999999999999 0 0
          0.09999999999999999 0.09999999999999999 0 0.09999999999999999 0 0
          0.09999999999999999 0.09999999999999999 0 0.09999999999999999 0 0
          0.09999999999999999 0.09999999999999999 0 0.09999999999999999 0 0
          0.09999999999999999 0.09999999999999999 0 0.09999999999999999 0 0
          0.09999999999999999 0.09999999999999999 0 0.09999999999999999 0 0
          0.09999999999999999 0.09999999999999999 0 0.09999999999999999 0 0
          0.09999999999999999 0.09999999999999999 0 0.09999999999999999 0 0
          0.09999999999999999 0.09999999999999999 0 0.09999999999999999 0 0
          0.09999999999999999 0.09999999999999999 0 0.09999999999999999 0 0
          0.09999999999999999 0.09999999999999999 0 0.09999999999999999 0 0
          0.09999999999999999 0.09999999999999999 0 0.09999999999999999 0 0
          0.09999999999999999 0.09999999999999999 0 0.09999999999999999 0 0
          0.09999999999999999 0.09999999999999999 0 0.09999999999999999 0 0
          0.09999999999999999 0.09999999999999999 0 0.09999999999999999 0 0
          0.09999999999999999 0.09999999999999999 0 0.09999999999999999 0 0
          0.09999999999999999 0.09999999999999999 0 0.09999999999999999 0 0
          0.09999999999999999 0.09999999999999999 0 0.09999999999999999 0 0
          0.09999999999999999 0.09999999999999999 0 0.09999999999999999 0 0
          0.09999999999999999 0.09999999999999999 0 0.09999999999999999 0 0
          0.09999999999999999 0.09999999999999999 0 0.09999999999999999 0 0
          0.09999999999999999 0.09999999999999999 0 0.09999999999999999 0 0
          0.09999999999999999 0.09999999999999999 0 0.09999999999999999 0 0
          0.09999999999999999 0.09999999999999999 0 0.09999999999999999 0 0
          0.09999999999999999 0.09999999999999999 0 0.09999999999999999 0 0