<?xml version="1.0"?>
<VTKFile type="UnstructuredGrid" version="0.1" byte_order="LittleEndian" header_type="UInt32" compressor="vtkZLibDataCompressor">
  <UnstructuredGrid>
    <Piece NumberOfPoints="97" NumberOfCells="154">
      <PointData>
        <DataArray type="Float64" Name="Velocity" NumberOfComponents="3" format="ascii" RangeMin="0" RangeMax="4.192339818879672">
          0.6936352054925654 0.48246390482113 0 1.1457416831310885 0 0
          0.8682695916865302 -0.007909216268426418 0 0.9533956010754955 0.029983162672745353 0
          1.054616644454865 0.05527843901395213 0 0.9959234727099382 0 0
          0.7510197057056058 -0.45331427281174835 0 1.0619889371088795 0 0
          1.0014319725759917 -0.04155674857103467 0 1.0043913470901613 0.0037084242745132555 0
          0.9982633002933899 0 0 0.9642430083715954 0 0
          1.008080452304747 0 0 0.997775733579711 0 0
          0.9969363019116413 0.002276194417548274 0 0.9978442911201089 0.002448760927379498 0
          1.004035369747463 0 0 0.9935482060025194 0 0
          1.002099296358378 0.004388635440414144 0 0.9962420891758907 -0.0018639226637445305 0
          0.9997324272001048 -0.0018935015391657742 0 1.0152069767988778 0 0
          0.9922963595244465 0 0 1.0007442228983368 0.011893295914634361 0
          0.997578957691279 -0.02180610231794287 0 1.0038172885898518 -0.011085757217682193 0
          1.0272279168826814 0 0 1.0305596775789219 0 0
          0.9748824319486776 -0.008302051338310449 0 1.0221203868695263 -0.07867338791709298 0
          0.9679952083530429 -0.0471664643971092 0 1.022859590973933 -0.042775569618060255 0
          1.0876657074586833 0 0 1.0669145870122798 0 0
          1.0505034235654602 -0.16755783654706555 0 0.9378722594869848 -0.20085815850095703 0
          0.9160368175556128 -0.01108514731148574 0 1.016967376242974 0 0
          1.267695541617633 -0.2192300575652862 0 1.0553620364783007 -0.42160344010869 0
          0.7397067472078567 -0.36630406104489954 0 1.2757526882480834 -0.5995301100742985 0
          0.7902734599214881 -0.07380717598792784 0 1.0401539148219838 -0.8016830330223312 0
          1.0113450214221222 -0.5884263675372731 0 0.6523340245392276 -0.5256869620642088 0
          1.159823200249007 0 0 1.3510489856036982 -0.6678032362609053 0
          0.4884292437705447 -0.2653138987400337 0 1.5942968815521048 -0.7417289126297502 0
          0.9047992367232504 -1.049508430141382 0 0.7334381800680391 0.00131204910341964 0
          0.46358959393740456 -0.8128425367726055 0 1.6001872388889478 -1.31928063117334 0
          0.6040571783679567 -0.3353901823847089 0 0.5401428959878664 -1.155484365253528 0
          1.295989012538488 -0.7844240281958043 0 0.2224144817697314 -0.6475811991472679 0
          1.0625108635833656 -1.8366604454533493 0 1.3205209352849945 0 0
          0.21277508551635305 -1.2306637008851289 0 0.38074950673602925 -0.27512976214591783 0
          1.5977425469635296 -1.854464180972765 0 -0.13680554215550883 -0.5734747861632182 0
          0.31751613766319364 -2.1061648611928727 0 2.6604440112915606 -1.717343246300854 0
          0.02735277149714225 -0.7444611143956685 0 1.159773413315552 -2.870193261732279 0
          -0.9428411517296542 -1.01046441010476 0 3.129865294831124 -2.789203541008745 0
          0.7788171240315341 -0.3697843879919498 0 -0.8048518355617719 -2.465697909444169 0
          0.9015982041707995 0 0 -0.04530383618463109 -0.3546851336851395 0
          1.6848924454409822 0.10400237985076655 0 -0.6924855627816092 -0.8569524188981974 0
          -1.1442663770966797 0.19853872692291435 0 -1.2113738542276355 1.2004071117448 0
          0.1376142739859906 0 0 0.16572528585627938 -0.3034588714849916 0
          -0.30115012414384795 0.13008189312569454 0 -0.008896397151941118 -0.5636092230720146 0
          0 0 0 0.16487027132171628 0 0
          0 0 0 0 0 0
          0 0 0 0 0 0
          1.347751045244286 -0.11517030042477511 0 1.6170925538799314 -0.35939777516966603 0
          1.086817515457937 0 0 1.959416332939434 0.9040747156088593 0
          2.6872735435859605 -0.8859228587614862 0 2.736474227387912 -1.1747918705871832 0
          1.5042093811812276 -0.9756298450049621 0 0.7438075412864846 2.6353694542286266 0
          0 0 0
          <InformationKey name="L2_NORM_RANGE" location="vtkDataArray" length="2">
            <Value index="0">
              0
            </Value>
            <Value index="1">
              4.1923398189
            </Value>
          </InformationKey>
        </DataArray>
        <DataArray type="Float64" Name="Pressure" format="ascii" RangeMin="-18.10132664560557" RangeMax="0.34887870880284144">
          0.05089631866505778 -0.15932940688731523 0.11793504631969093 -0.15970202059803112 -0.14608646760011737 -0.056546045770429085
          0.08370893113009237 -0.369225310079766 -0.08572586505757368 -0.12246737919696961 -0.10274789492583436 -0.04413899162594204
          -0.1449201379938271 -0.10473687249625616 -0.11065163440699181 -0.10559049865924613 -0.11445167380083351 -0.09807586483853793
          -0.12191842288145359 -0.10665296993453124 -0.09379719348085068 -0.12878466151052442 -0.06805702049112136 -0.1399207210167792
          -0.10931788255897679 -0.0684698338964871 -0.10534133899179496 -0.04935900606836495 -0.1600774105349585 -0.09665470517925831
          -0.11075793574756707 0.04990148505195116 -0.2079365716471147 -0.046758816667891195 -0.007474912877846865 -0.12896157321774432
          -0.19748475468117255 -0.19024869189858115 -0.02329178206596 -0.2333023350832379 -0.2198501782393236 -0.24456107443882294
          -0.38783021571583887 -0.5864197251621373 -0.05947917644884741 -0.4258304208473059 -0.4038590571166804 -0.7838361325118408
          -0.3570008845007207 -0.6823195673389584 -0.47599957212853766 -0.47848959806898494 -0.6880502903171688 -2.189969589782605
          -0.6489584566622196 -0.7861226070744244 -0.03455077186684946 -0.6216737714944933 -2.8369014326207926 -0.7793523085319016
          -1.0682726650212349 -0.5532628671568202 -2.276773502504399 -0.9246104896580881 -3.501657971038358 -3.9965630419699147
          -1.647413544821024 -7.336517696426221 -3.1151005546826998 -12.001734018591542 -1.1443919174271553 -12.159685614130584
          -0.6648426454806765 -1.2999676501487374 -18.10132664560557 -2.499363797317917 -4.998035810869403 -12.261317368040292
          -0.29499393959239856 -1.4913059615441933 -2.645997757141207 -1.059642344486465 -3.6191360242452717 -0.5574778824771973
          -2.167818869463425 -1.3509058450271203 -0.8848646276525629 -0.6188205004081564 0.023188601135699483 0.03415459948498084
          0.34887870880284144 -9.02612042658516 -2.978436650772249 -2.3627964854007906 -0.9498024347993199 -11.904453408544978
          -6.202547471423054
        </DataArray>
        <DataArray type="Float64" Name="BTraction" NumberOfComponents="3" format="ascii" RangeMin="0" RangeMax="5.812971433191219">
          -0.04889282985039021 0.02525130909630268 0 0.006887200879029649 0.11372656279778338 0
          -0.11662233958864157 0.0012609359123816183 0 0 0 0
          0 0 0 0.002156307043835064 0.0802921575892422 0
          -0.05488189247822671 -0.04099261383560739 0 0.005584316912802696 -0.24356419346976058 0
          0 0 0 0 0 0
          0.00011926118841386805 0.0949209412690497 0 -0.002533752405064031 -0.11348497625105183 0
          -0.0005848890239102131 -0.12241770471020068 0 -0.00009946303311781813 0.10335738115686223 0
          0 0 0 0 0 0
          0.00043545115170749596 -0.12264228209526619 0 -0.00016445303118416715 0.09520335224402528 0
          0 0 0 0 0 0
          0 0 0 0.0010694638296076563 -0.12417662870650727 0
          -0.00024293273086986513 0.07151686720371431 0 0 0 0
          0 0 0 0 0 0
          0.003007522248727463 -0.12680896729950553 0 0.00022870131257389143 0.053205428454993826 0
          0 0 0 0 0 0
          0 0 0 0 0 0
          0.008962070153361545 -0.18880321445576478 0 -0.0034410923398784524 -0.008178095732795694 0
          0 0 0 0 0 0
          0 0 0 0.013095477274822064 -0.23350061262045618 0
          0 0 0 0 0 0
          0 0 0 0 0 0
          0 0 0 0 0 0
          0 0 0 0 0 0
          0.0401818262943072 -0.4155666104433595 0 0 0 0
          0 0 0 0 0 0
          0 0 0 0 0 0
          0 0 0 0 0 0
          0 0 0 0 0 0
          0 0 0 0 0 0
          0 0 0 0.05934577408462046 -0.6418876503730592 0
          0 0 0 0 0 0
          0 0 0 0 0 0
          0 0 0 0 0 0
          0 0 0 0 0 0
          0 0 0 0 0 0
          0 0 0 0 0 0
          0.020254524786488266 -0.5660470079447836 0 0 0 0
          0 0 0 0 0 0
          0 0 0 0 0 0
          -0.03212182034785468 -0.31492444238109185 0 0 0 0
          0 0 0 0 0 0
          -3.4991133875514953 -0.2668416964251743 0 -0.00021814639361821873 -0.4684659227652678 0
          -2.2363714029784525 0.04445691444809817 0 -1.443850196342684 0.05460808608504815 0
          -0.929564612472063 0.02395848004796163 0 -0.33247658732572816 -0.27846031079810113 0
          0 0 0 0 0 0
          -0.005854102535120562 -0.16829370648024508 0 0 0 0
          0 0 0 0 0 0
          0 0 0 0 0 0
          -5.798891342379447 -0.4043464880197141 0
          <InformationKey name="L2_NORM_RANGE" location="vtkDataArray" length="2">
            <Value index="0">
              0
            </Value>
            <Value index="1">
              5.8129714332
            </Value>
          </InformationKey>
        </DataArray>
        <DataArray type="Float64" Name="Sigma" NumberOfComponents="6" format="ascii" RangeMin="0.00007320093448071388" RangeMax="0.6920915477287493">
          -0.03675772638113446 0.03697756407888975 0 0.012348839680575818 0 0
          -0.001225245453000403 0.0010620477024167446 0 0.006850842222734538 0 0
          -0.009383987882269856 0.00939193302979043 0 0.0013562320653295735 0 0
          0.002031670095517933 -0.0018702127889883477 0 0.0007431619958876757 0 0
          -0.0020256770394232325 0.0019157329069728424 0 -0.003461315059025888 0 0
          0.0017510895053539062 -0.001833732756488735 0 0.001570996702663927 0 0
          -0.019094924547721586 0.018973221964321833 0 -0.010208152467604401 0 0
          -0.001463418599023625 0.001987113915103584 0 -0.007259238342006535 0 0
          -0.0008960146764251893 0.0008668999029186892 0 -0.00034158309254727427 0 0
          -0.0010903841324207291 0.0010758945187833826 0 -0.00042867823921404895 0 0
          0.00028045952234631035 -0.00023565603587445406 0 -0.0001969867703798574 0 0
          0.002651570403106429 -0.0028678176210865003 0 0.00573920435881437 0 0
          0.0004140007389781844 -0.0003074005018076794 0 -0.0004950646628667618 0 0
          -0.000006919558205604491 0.000027506544262014523 0 -0.00006748249066128824 0 0
          0.0001535477070043365 -0.00021095517070156308 0 0.00014115557311813836 0 0
          0.00011336241419349422 -0.00010038140882391839 0 -0.00020063055988300992 0 0
          -0.00035688448142900064 0.00033243048743728095 0 -0.00024961156388604073 0 0
          -0.000020029636022901566 0.000007388525670120047 0 -0.00012148673879876191 0 0
          0.00024950246279777837 -0.00019761470427475972 0 -0.00038256592027973335 0 0
          -0.00023979450205895207 0.0002817823425630029 0 0.0003242487047616939 0 0
          0.0002691845220952267 -0.0003296783147849017 0 0.00026108320980666527 0 0
          -0.0017946089816978004 0.0017391820785932466 0 -0.0011980691224001143 0 0
          -0.001311924560230793 0.0014408605399811201 0 -0.0004885010066024113 0 0
          0.0016847203333540059 -0.001766504374624232 0 -0.00011853520453970957 0 0
          -0.000091081080056898 0.00017154672948016493 0 0.0015747694076754066 0 0
          -0.002567302628159714 0.002492059127032144 0 0.0006912781319392177 0 0
          -0.0015660923125054664 0.0017779096444672162 0 -0.0015556960238752187 0 0
          0.0006767307404795786 -0.000760145513142627 0 0.0006905505847710821 0 0
          0.0006182842311079018 -0.0007166508683853626 0 -0.0009867172945857761 0 0
          -0.00034159662228505703 -0.000010704185857168005 0 0.0077051632616190555 0 0
          0.004761547187224235 -0.0044333232384556704 0 0.004695569936622257 0 0
          -0.008419381283749444 0.008956902137822333 0 0.0020889886469064455 0 0
          -0.0007311131222078575 0.0008134072586397289 0 -0.011535727117715566 0 0
          -0.008265235448197229 0.0075794120782087205 0 -0.0009306921206989202 0 0
          -0.010323597865435227 0.010601522786434017 0 0.007569510676796289 0 0
          0.004813474440822677 -0.004965943515893326 0 0.01718785445586492 0 0
          0.011502062632340585 -0.011735591145155001 0 0.002647258769074449 0 0
          -0.007436140606287659 0.007013334346805144 0 -0.006428532402124392 0 0
          -0.02134817001883196 0.021046137401427863 0 0.011240079341657976 0 0
          -0.011769505164200963 0.011629091032736722 0 0.040277991499211636 0 0
          0.025110398984431643 -0.02442273941775013 0 0.023483996199689397 0 0
          -0.04656182735012728 0.04696400291420515 0 0.03216054563207287 0 0
          0.026566538289039363 -0.026304239756036272 0 -0.01378506190024064 0 0
          0.020516293466314207 -0.022448734886193224 0 0.013096637395640279 0 0
          -0.017798790571015702 0.018468179817779214 0 0.06753722150509142 0 0
          0.05601435560276274 -0.0588286205871441 0 0.1238539161623368 0 0
          -0.007615969761921701 0.009338602962758154 0 -0.04285362117514701 0 0
          -0.13361207898228572 0.13830356689154102 0 0.08927171172072244 0 0
          0.043616897728637416 -0.042219377825866246 0 0.02970837818934373 0 0
          0.099067112215472 -0.10149880798140212 0 0.006043271109903856 0 0
          -0.022918883430488143 0.02920809692849694 0 0.13946344234376878 0 0
          -0.0029805358072057557 0.0030518417334927097 0 -0.0022990900313218537 0 0
          0.03297778664713789 -0.0337951839623303 0 0.06385225047033935 0 0
          -0.04948213448121311 0.041693814806828426 0 0.00765167536070779 0 0
          0.09388707866574889 -0.0996548940392712 0 0.005096702199214889 0 0
          0.03686913126074924 -0.035305531752743986 0 0.06936192053139742 0 0
          -0.026555462247417227 0.02558675790959046 0 -0.008916539445709665 0 0
          0.07130909335558824 -0.06924027108971176 0 0.03422199149949928 0 0
          0.012299470253251345 -0.015532035599649163 0 0.2360817387837012 0 0
          0.06569691478523002 -0.0688357561981274 0 -0.07180356279000122 0 0
          0.10048340570440158 -0.10099494677591438 0 0.05780959052572743 0 0
          0.009717207473656885 -0.00571708730669101 0 -0.03298263569636901 0 0
          -0.3310419688364857 0.33293061692350284 0 0.3688132546215131 0 0
          0.025564010580917874 -0.023610004477869068 0 -0.004208985938549208 0 0
          0.3450839151866018 -0.34730406158309574 0 0.33586353141322894 0 0
          -0.324236029614052 0.32810546924605966 0 0.11449552443806221 0 0
          0.1315048677024454 -0.13476216352834514 0 -0.03913027354873442 0 0
          -0.03964128938546381 0.04829677830352889 0 0.21234631502913354 0 0
          0.30455747453428766 -0.30063079156165096 0 -0.07401917105000849 0 0
          -0.007900239991858737 0.00888506584999725 0 -0.35276778444385204 0 0
          0.05998926989188632 -0.059580267440374715 0 -0.041090989141158996 0 0
          0.08923306215028395 -0.0890460883518781 0 0.04463420604836585 0 0
          0.049030689731209935 -0.04976777142433443 0 -0.02425516544597236 0 0
          0.0016862931510760043 0.00014646382014316334 0 -0.04383180979420884 0 0
          0.08925341792774408 -0.09874933213207948 0 -0.23705144037916753 0 0
          -0.007985763688747604 0.003349011006392611 0 -0.12154982546854401 0 0
          -0.050882631473353715 0.05506336238372032 0 -0.5176519271710388 0 0
          -0.09977240741305544 0.08427830674075854 0 -0.2000534528406835 0 0
          0.10264551705408581 -0.10462474280692792 0 0.05591484062898178 0 0
          -0.028059138109387403 0.03285310239777201 0 -0.05146523769861148 0 0
          -0.06262095765244162 0.06141045676720815 0 -0.05595285023340374 0 0
          0.03264264369297987 -0.036692368051714296 0 -0.03610359227033129 0 0
          -0.38193550778526697 0.3991320894068008 0 0.335350775915511 0 0
          0.06300967646823034 -0.05235982676871933 0 -0.00531657815986564 0 0
          0.02672599508900906 -0.03380934503186396 0 -0.1419962785146823 0 0
          0.021473331243255744 -0.025185356336876165 0 -0.04024398142719762 0 0
          0.0086555603475014 -0.00575607167920939 0 -0.01642202011889139 0 0
          -0.01747267259034541 0.0012443386699590323 0 -0.037722067441041236 0 0
          -0.022834811842420432 0.023527542264109757 0 0.00378550369960476 0 0
          -0.0517652203930547 0.0492528302518237 0 -0.015697427206169155 0 0
          -0.018764091748319334 0.020177346145949838 0 -0.01830304944604452 0 0
          0.45598338171143543 -0.4496675312279085 0 -0.26242899496811894 0 0
          -0.1595161862312645 0.1516479355456939 0 -0.261597036299373 0 0
          -0.04120598116431412 0.04378977275290165 0 -0.0935769673296085 0 0
          -0.32640090041341224 0.32841004777056293 0 0.09248130548188985 0 0
          -0.0010201223536721593 -0.007374935262009247 0 0.5713662120114231 0 0
          -0.07341460178830819 0.08151768908642079 0 0.4429426527558116 0 0
          <InformationKey name="L2_NORM_RANGE" location="vtkDataArray" length="2">
            <Value index="0">
              7.3200934481e-05
            </Value>
            <Value index="1">
              0.69209154773
            </Value>
          </InformationKey>
        </DataArray>
        <DataArray type="Float64" Name="ALEdispl" NumberOfComponents="3" format="ascii" RangeMin="0" RangeMax="0">
          0 0 0 0 0 0
          0 0 0 0 0 0
          0 0 0 0 0 0
          0 0 0 0 0 0
          0 0 0 0 0 0
          0 0 0 0 0 0
          0 0 0 0 0 0
          0 0 0 0 0 0
          0 0 0 0 0 0
          0 0 0 0 0 0
          0 0 0 0 0 0
          0 0 0 0 0 0
          0 0 0 0 0 0
          0 0 0 0 0 0
          0 0 0 0 0 0
          0 0 0 0 0 0
          0 0 0 0 0 0
          0 0 0 0 0 0
          0 0 0 0 0 0
          0 0 0 0 0 0
          0 0 0 0 0 0
          0 0 0 0 0 0
          0 0 0 0 0 0
          0 0 0 0 0 0
          0 0 0 0 0 0
          0 0 0 0 0 0
          0 0 0 0 0 0
          0 0 0 0 0 0
          0 0 0 0 0 0
          0 0 0 0 0 0
          0 0 0 0 0 0
          0 0 0 0 0 0
          0 0 0 0 0 0
          0 0 0 0 0 0
          0 0 0 0 0 0
          0 0 0 0 0 0
          0 0 0 0 0 0
          0 0 0 0 0 0
          0 0 0 0 0 0
          0 0 0 0 0 0
          0 0 0 0 0 0
          0 0 0 0 0 0
          0 0 0 0 0 0
          0 0 0 0 0 0
          0 0 0 0 0 0
          0 0 0 0 0 0
          0 0 0 0 0 0
          0 0 0 0 0 0
          0 0 0
          <InformationKey name="L2_NORM_RANGE" location="vtkDataArray" length="2">
            <Value index="0">
              0
            </Value>
            <Value index="1">
              0
            </Value>
          </InformationKey>
        </DataArray>
        <DataArray type="Float64" Name="ALEveloc" NumberOfComponents="3" format="ascii" RangeMin="0" RangeMax="0">
          0 0 0 0 0 0
          0 0 0 0 0 0
          0 0 0 0 0 0
          0 0 0 0 0 0
          0 0 0 0 0 0
          0 0 0 0 0 0
          0 0 0 0 0 0
          0 0 0 0 0 0
          0 0 0 0 0 0
          0 0 0 0 0 0
          0 0 0 0 0 0
          0 0 0 0 0 0
          0 0 0 0 0 0
          0 0 0 0 0 0
          0 0 0 0 0 0
          0 0 0 0 0 0
          0 0 0 0 0 0
          0 0 0 0 0 0
          0 0 0 0 0 0
          0 0 0 0 0 0
          0 0 0 0 0 0
          0 0 0 0 0 0
          0 0 0 0 0 0
          0 0 0 0 0 0
          0 0 0 0 0 0
          0 0 0 0 0 0
          0 0 0 0 0 0
          0 0 0 0 0 0
          0 0 0 0 0 0
          0 0 0 0 0 0
          0 0 0 0 0 0
          0 0 0 0 0 0
          0 0 0 0 0 0
          0 0 0 0 0 0
          0 0 0 0 0 0
          0 0 0 0 0 0
          0 0 0 0 0 0
          0 0 0 0 0 0
          0 0 0 0 0 0
          0 0 0 0 0 0
          0 0 0 0 0 0
          0 0 0 0 0 0
          0 0 0 0 0 0
          0 0 0 0 0 0
          0 0 0 0 0 0
          0 0 0 0 0 0
          0 0 0 0 0 0
          0 0 0 0 0 0
          0 0 0
          <InformationKey name="L2_NORM_RANGE" location="vtkDataArray" length="2">
            <Value index="0">
              0
            </Value>
            <Value index="1">
              0
            </Value>
          </InformationKey>
        </DataArray>
      </PointData>
      <CellData>
        <DataArray type="UInt8" Name="vtkGhostType" format="ascii" RangeMin="0" RangeMax="0">
          0 0 0 0 0 0
          0 0 0 0 0 0
          0 0 0 0 0 0
          0 0 0 0 0 0
          0 0 0 0 0 0
          0 0 0 0 0 0
          0 0 0 0 0 0
          0 0 0 0 0 0
          0 0 0 0 0 0
          0 0 0 0 0 0
          0 0 0 0 0 0
          0 0 0 0 0 0
          0 0 0 0 0 0
          0 0 0 0 0 0
          0 0 0 0 0 0
          0 0 0 0 0 0
          0 0 0 0 0 0
          0 0 0 0 0 0
          0 0 0 0 0 0
          0 0 0 0 0 0
          0 0 0 0 0 0
          0 0 0 0 0 0
          0 0 0 0 0 0
          0 0 0 0 0 0
          0 0 0 0 0 0
          0 0 0 0
        </DataArray>
        <DataArray type="Float64" Name="PStrain" NumberOfComponents="6" format="ascii" RangeMin="0.1732050807568877" RangeMax="0.1732050807568877">
          0.09999999999999999 0.09999999999999999 0 0.09999999999999999 0 0
          0.09999999999999999 0.09999999999999999 0 0.09999999999999999 0 0
          0.09999999999999999 0.09999999999999999 0 0.09999999999999999 0 0
          0.09999999999999999 0.09999999999999999 0 0.09999999999999999 0 0
          0.09999999999999999 0.09999999999999999 0 0.09999999999999999 0 0
          0.09999999999999999 0.09999999999999999 0 0.09999999999999999 0 0
          0.09999999999999999 0.09999999999999999 0 0.09999999999999999 0 0
          0.09999999999999999 0.09999999999999999 0 0.09999999999999999 0 0
          0.09999999999999999 0.09999999999999999 0 0.09999999999999999 0 0
          0.09999999999999999 0.09999999999999999 0 0.09999999999999999 0 0
          0.09999999999999999 0.09999999999999999 0 0.09999999999999999 0 0
          0.09999999999999999 0.09999999999999999 0 0.09999999999999999 0 0
          0.09999999999999999 0.09999999999999999 0 0.09999999999999999 0 0
          0.09999999999999999 0.09999999999999999 0 0.09999999999999999 0 0
          0.09999999999999999 0.09999999999999999 0 0.09999999999999999 0 0
          0.09999999999999999 0.09999999999999999 0 0.09999999999999999 0 0
          0.09999999999999999 0.09999999999999999 0 0.09999999999999999 0 0
          0.09999999999999999 0.09999999999999999 0 0.09999999999999999 0 0
          0.09999999999999999 0.09999999999999999 0 0.09999999999999999 0 0
          0.09999999999999999 0.09999999999999999 0 0.09999999999999999 0 0
          0.09999999999999999 0.09999999999999999 0 0.09999999999999999 0 0
          0.09999999999999999 0.09999999999999999 0 0.09999999999999999 0 0
          0.09999999999999999 0.09999999999999999 0 0.09999999999999999 0 0
          0.09999999999999999 0.09999999999999999 0 0.09999999999999999 0 0
          0.09999999999999999 0.09999999999999999 0 0.09999999999999999 0 0
          0.09999999999999999 0.09999999999999999 0 0.09999999999999999 0 0
          0.09999999999999999 0.09999999999999999 0 0.09999999999999999 0 0
          0.09999999999999999 0.09999999999999999 0 0.09999999999999999 0 0
          0.09999999999999999 0.09999999999999999 0 0.09999999999999999 0 0
          0.09999999999999999 0.09999999999999999 0 0.09999999999999999 0 0
          0.09999999999999999 0.09999999999999999 0 0.09999999999999999 0 0
          0.09999999999999999 0.09999999999999999 0 0.09999999999999999 0 0
          0.09999999999999999 0.09999999999999999 0 0.09999999999999999 0 0
          0.09999999999999999 0.09999999999999999 0 0.09999999999999999 0 0
          0.09999999999999999 0.09999999999999999 0 0.09999999999999999 0 0
          0.09999999999999999 0.09999999999999999 0 0.09999999999999999 0 0
          0.09999999999999999 0.09999999999999999 0 0.09999999999999999 0 0
          0.09999999999999999 0.09999999999999999 0 0.09999999999999999 0 0
          0.09999999999999999 0.09999999999999999 0 0.09999999999999999 0 0
          0.09999999999999999 0.09999999999999999 0 0.09999999999999999 0 0
          0.09999999999999999 0.09999999999999999 0 0.09999999999999999 0 0
          0.09999999999999999 0.09999999999999999 0 0.09999999999999999 0 0
          0.09999999999999999 0.09999999999999999 0 0.09999999999999999 0 0
          0.09999999999999999 0.09999999999999999 0 0.09999999999999999 0 0
          0.09999999999999999 0.09999999999999999 0 0.09999999999999999 0 0
          0.09999999999999999 0.09999999999999999 0 0.09999999999999999 0 0
          0.09999999999999999 0.09999999999999999 0 0.09999999999999999 0 0
          0.09999999999999999 0.09999999999999999 0 0.09999999999999999 0 0
          0.09999999999999999 0.09999999999999999 0 0.09999999999999999 0 0
          0.09999999999999999 0.09999999999999999 0 0.09999999999999999 0 0
          0.09999999999999999 0.09999999999999999 0 0.09999999999999999 0 0
          0.09999999999999999 0.09999999999999999 0 0.09999999999999999 0 0
          0.09999999999999999 0.09999999999999999 0 0.09999999999999999 0 0
          0.09999999999999999 0.09999999999999999 0 0.09999999999999999 0 0
          0.09999999999999999 0.09999999999999999 0 0.09999999999999999 0 0
          0.09999999999999999 0.09999999999999999 0 0.09999999999999999 0 0
          0.09999999999999999 0.09999999999999999 0 0.09999999999999999 0 0
          0.09999999999999999 0.09999999999999999 0 0.09999999999999999 0 0
          0.09999999999999999 0.09999999999999999 0 0.09999999999999999 0 0
          0.09999999999999999 0.09999999999999999 0 0.09999999999999999 0 0
          0.09999999999999999 0.09999999999999999 0 0.09999999999999999 0 0
          0.09999999999999999 0.09999999999999999 0 0.09999999999999999 0 0
          0.09999999999999999 0.09999999999999999 0 0.09999999999999999 0 0
          0.09999999999999999 0.09999999999999999 0 0.09999999999999999 0 0
          0.09999999999999999 0.09999999999999999 0 0.09999999999999999 0 0
          0.09999999999999999 0.09999999999999999 0 0.09999999999999999 0 0
          0.09999999999999999 0.09999999999999999 0 0.09999999999999999 0 0
          0.09999999999999999 0.09999999999999999 0 0.09999999999999999 0 0
          0.09999999999999999 0.09999999999999999 0 0.09999999999999999 0 0
          0.09999999999999999 0.09999999999999999 0 0.09999999999999999 0 0
          0.09999999999999999 0.09999999999999999 0 0.09999999999999999 0 0
          0.09999999999999999 0.09999999999999999 0 0.09999999999999999 0 0
          0.09999999999999999 0.09999999999999999 0 0.09999999999999999 0 0
          0.09999999999999999 0.09999999999999999 0 0.09999999999999999 0 0
          0.09999999999999999 0.09999999999999999 0 0.09999999999999999 0 0
          0.09999999999999999 0.09999999999999999 0 0.09999999999999999 0 0
          0.09999999999999999 0.09999999999999999 0 0.09999999999999999 0 0
          0.09999999999999999 0.09999999999999999 0 0.09999999999999999 0 0
          0.09999999999999999 0.09999999999999999 0 0.09999999999999999 0 0
          0.09999999999999999 0.09999999999999999 0 0.09999999999999999 0 0
          0.09999999999999999 0.09999999999999999 0 0.09999999999999999 0 0
          0.09999999999999999 0.09999999999999999 0 0.09999999999999999 0 0
          0.09999999999999999 0.09999999999999999 0 0.09999999999999999 0 0
          0.09999999999999999 0.09999999999999999 0 0.09999999999999999 0 0
          0.09999999999999999 0.09999999999999999 0 0.09999999999999999 0 0
          0.09999999999999999 0.09999999999999999 0 0.09999999999999999 0 0
          0.09999999999999999 0.09999999999999999 0 0.09999999999999999 0 0
          0.09999999999999999 0.09999999999999999 0 0.09999999999999999 0 0
          0.09999999999999999 0.09999999999999999 0 0.09999999999999999 0 0
          0.09999999999999999 0.09999999999999999 0 0.09999999999999999 0 0
          0.09999999999999999 0.09999999999999999 0 0.09999999999999999 0 0
          0.09999999999999999 0.09999999999999999 0 0.09999999999999999 0 0
          0.09999999999999999 0.09999999999999999 0 0.09999999999999999 0 0
          0.09999999999999999 0.09999999999999999 0 0.09999999999999999 0 0
          0.09999999999999999 0.09999999999999999 0 0.09999999999999999 0 0
          0.09999999999999999 0.09999999999999999 0 0.09999999999999999 0 0
          0.09999999999999999 0.09999999999999999 0 0.09999999999999999 0 0
          0.09999999999999999 0.09999999999999999 0 0.09999999999999999 0 0
          0.09999999999999999 0.09999999999999999 0 0.09999999999999999 0 0
          0.09999999999999999 0.09999999999999999 0 0.09999999999999999 0 0
          0.09999999999999999 0.09999999999999999 0 0.09999999999999999 0 0
          0.09999999999999999 0.09999999999999999 0 0.09999999999999999 0 0
          0.09999999999999999 0.09999999999999999 0 0.09999999999999999 0 0
          0.09999999999999999 0.09999999999999999 0 0.09999999999999999 0 0
          0.09999999999999999 0.09999999999999999 0 0.09999999999999999 0 0
          0.09999999999999999 0.09999999999999999 0 0.09999999999999999 0 0
          0.09999999999999999 0.09999999999999999 0 0.09999999999999999 0 0
          0.09999999999999999 0.09999999999999999 0 0.09999999999999999 0 0
          0.09999999999999999 0.09999999999999999 0 0.09999999999999999 0 0
          0.09999999999999999 0.09999999999999999 0 0.09999999999999999 0 0
          0.09999999999999999 0.09999999999999999 0 0.09999999999999999 0 0
          0.09999999999999999 0.09999999999999999 0 0.09999999999999999 0 0