<?xml version="1.0"?>
<VTKFile type="UnstructuredGrid" version="0.1" byte_order="LittleEndian" header_type="UInt32" compressor="vtkZLibDataCompressor">
  <UnstructuredGrid>
    <Piece NumberOfPoints="27" NumberOfCells="16">
      <PointData>
        <DataArray type="Float64" Name="Displacement" NumberOfComponents="3" format="ascii" RangeMin="0" RangeMax="0.00021431837348080663">
          0 0 0 -3.3789990894758053e-7 -1.3920468273270769e-7 0
          0 0 0 -0.000015877843829276213 -0.00001306865649660427 0
          -0.00001351444210648043 -0.000014200179095750328 0 -0.000012430170244996143 -0.000015705270306826753 0
          0.00005008496804860783 0.00009148137116022303 0 0.00004476222830000992 0.00009161265342551346 0
          0.000041886917342120016 0.00009224746661471864 0 -0.00008230587283193846 -0.0001565441652107064 0
          -0.00007765224110322318 -0.00015740683845333345 0 -0.00007619876172339111 -0.000158667235267849 0
          0.00005790931779947614 0.00008988711503382215 0 0.00006139894747163756 0.0000897675338989588 0
          0.00006756101992452075 0.00008986078801913242 0 -0.00001079150404613071 0.0000715093572603406 0
          -0.000015103569652905021 0.0000723701830246103 0 -0.000020218672401146015 0.00007300318177255113 0
          -0.000037359112375148655 -0.00006351814661903442 0 -0.000042961703444723625 -0.00006342477844251449 0
          -0.000049392019162189194 -0.00006312219897995016 0 0.000030849773074154526 -0.00012918922188170242 0
          0.000036521499120292295 -0.00013040995260904642 0 0.00004273981105691301 -0.00013160657006751212 0
          0.000056668839737107155 0.00018977466266453582 0 0.0000731707979203526 0.00019199033996377917 0
          0.00009007205168113099 0.00019447208210283086 0
          <InformationKey name="L2_NORM_RANGE" location="vtkDataArray" length="2">
            <Value index="0">
              0
            </Value>
            <Value index="1">
              0.00021431837348
            </Value>
          </InformationKey>
        </DataArray>
      </PointData>
      <CellData>
        <DataArray type="UInt8" Name="vtkGhostType" format="ascii" RangeMin="0" RangeMax="0">
          0 0 0 0 0 0
          0 0 0 0 0 0
          0 0 0 0
        </DataArray>
        <DataArray type="Float64" Name="Stress" NumberOfComponents="6" format="ascii" RangeMin="21.02368454061316" RangeMax="191.9695183748318">
          -8.19462613444464 14.7499933197091 0 -12.541176629345056 0 0
          69.00756394757539 34.13263220356616 0 49.625533645180326 0 0
          -135.60139308024338 -37.21449497375135 0 -89.21117770468682 0 0
          168.42928482760232 71.08524017608775 0 58.57269523109909 0 0
          -98.14525098610979 -42.008401226869985 0 -11.606524373222591 0 0
          -37.33292102730361 -24.411369826786576 0 3.2091044359046546 0 0
          103.10384689466645 45.811694171023994 0 -24.97924386578312 0 0
          42.253895460988886 -2.334270096084932 0 13.523250275628389 0 0
          -10.638006556537652 12.71780615196716 0 -14.930896157629668 0 0
          76.33151661055409 38.23607448018449 0 54.57698517281537 0 0
          -143.346865894066 -38.44320095060004 0 -92.27337164970153 0 0
          165.50543089436334 67.74655373638483 0 55.64068682331215 0 0
          -87.21857507345078 -38.558160321913604 0 -2.9217194066422714 0 0
          -35.92205877353378 -24.18180578301343 0 -4.409024401832337 0 0
          90.45237826429447 44.57946420980016 0 -25.789842509565837 0 0
          31.25511496294326 -2.289595747745029 0 16.699264787139395 0 0
          <InformationKey name="L2_NORM_RANGE" location="vtkDataArray" length="2">
            <Value index="0">
              21.023684541
            </Value>
            <Value index="1">
              191.96951837
            </Value>
          </InformationKey>
        </DataArray>
        <DataArray type="Float64" Name="Strain" NumberOfComponents="6" format="ascii" RangeMin="0.000025474905218164194" RangeMax="0.00021760084745116887">
          -0.000010242561551413715 0.00001365911404069946 0 -0.000026128232552932794 0 0
          0.000045042173583483735 0.000008703316103738987 0 0.0001034181695223778 0 0
          -0.00009617543683046402 0.0000062563290718783645 0 -0.00018575798052939134 0 0
          0.00011315044496198857 0.000011674794939668372 0 0.00012211913910386521 0 0
          -0.00006571062741727594 -0.000007260323068291931 0 -0.00002417089238976509 0 0
          -0.000022806416711122777 -0.000009349042855976981 0 0.0000066844315709690835 0 0
          0.00006864984173729736 0.000008943126094372947 0 -0.000052068119220728684 0 0
          0.00003362682540111913 -0.000012822310919763567 0 0.00002818482095121717 0 0
          -0.000011621627775939959 0.000012707696717814676 0 -0.000031106773000932974 0 0
          0.00004970056957020705 0.000010003902437450724 0 0.0001137408366494246 0 0
          -0.00010189716307258627 0.000007315634170871576 0 -0.00019212906720718654 0 0
          0.00011173228263343221 0.000009825939436177167 0 0.00011600248985870796 0 0
          -0.00005807954482987876 -0.000007411354541058296 0 -0.00000608605572234969 0 0
          -0.00002176419223068469 -0.000009536941288623418 0 -0.000009183544156675215 0 0
          0.00005907999149205314 0.000011275836579244997 0 -0.00005375448858681512 0 0
          0.00002502056965229727 -0.000009922680895639717 0 0.000034800735446195465 0 0
          <InformationKey name="L2_NORM_RANGE" location="vtkDataArray" length="2">
            <Value index="0">
              2.5474905218e-05
            </Value>
            <Value index="1">
              0.00021760084745
            </Value>
          </InformationKey>
        </DataArray>
      </CellData>
      <Points>
        <DataArray type="Float32" Name="Points" NumberOfComponents="3" format="ascii" RangeMin="0" RangeMax="10.000499987515525">
          0 0.10000000149011612 0 0 0.05000000074505806 0
          0 0 0 1.25 0.10000000149011612 0
          1.25 0.05000000074505806 0 1.25 0 0
          2.5 0.10000000149011612 0 2.5 0.05000000074505806 0
          2.5 0 0 3.75 0.10000000149011612 0
          3.75 0.05000000074505806 0 3.75 0 0
          5 0.10000000149011612 0 5 0.05000000074505806 0
          5 0 0 6.25 0.10000000149011612 0
          6.25 0.05000000074505806 0 6.25 0 0
          7.5 0.10000000149011612 0 7.5 0.05000000074505806 0
          7.5 0 0 8.75 0.10000000149011612 0
          8.75 0.05000000074505806 0 8.75 0 0
          10 0.10000000149011612 0 10 0.05000000074505806 0
          10 0 0
          <InformationKey name="L2_NORM_RANGE" location="vtkDataArray" length="2">
            <Value index="0">
              0
            </Value>
            <Value index="1">
              10.000499988
            </Value>
          </InformationKey>
        </DataArray>
      </Points>
      <Cells>
        <DataArray type="Int64" Name="connectivity" format="ascii" RangeMin="0" RangeMax="26">
          5 4 1 2 8 7
          4 5 11 10 7 8
          14 13 10 11 17 16
          13 14 20 19 16 17
          23 22 19 20 26 25
          22 23 4 3 0 1
          7 6 3 4 10 9
          6 7 13 12 9 10
          16 15 12 13 19 18
          15 16 22 21 18 19
          25 24 21 22
        </DataArray>
        <DataArray type="Int64" Name="offsets" format="ascii" RangeMin="4" RangeMax="64">
          4 8 12 16 20 24
          28 32 36 40 44 48
          52 56 60 64
        </DataArray>
        <DataArray type="UInt8" Name="types" format="ascii" RangeMin="9" RangeMax="9">
          9 9 9 9 9 9
          9 9 9 9 9 9
          9 9 9 9
        </DataArray>
      </Cells>
    </Piece>
  </UnstructuredGrid>
</VTKFile>
