<?xml version="1.0"?>
<VTKFile type="UnstructuredGrid" version="0.1" byte_order="LittleEndian" header_type="UInt32" compressor="vtkZLibDataCompressor">
  <UnstructuredGrid>
    <Piece NumberOfPoints="33" NumberOfCells="20">
      <PointData>
        <DataArray type="Float64" Name="sld_BC" NumberOfComponents="3" format="ascii" RangeMin="0" RangeMax="0">
          0 0 0 0 0 0
          0 0 0 0 0 0
          0 0 0 0 0 0
          0 0 0 0 0 0
          0 0 0 0 0 0
          0 0 0 0 0 0
          0 0 0 0 0 0
          0 0 0 0 0 0
          0 0 0 0 0 0
          0 0 0 0 0 0
          0 0 0 0 0 0
          0 0 0 0 0 0
          0 0 0 0 0 0
          0 0 0 0 0 0
          0 0 0 0 0 0
          0 0 0 0 0 0
          0 0 0
          <InformationKey name="L2_NORM_RANGE" location="vtkDataArray" length="2">
            <Value index="0">
              0
            </Value>
            <Value index="1">
              0
            </Value>
          </InformationKey>
        </DataArray>
        <DataArray type="Float64" Name="sld_FIXNO" NumberOfComponents="3" format="ascii" RangeMin="1.4142135623730951" RangeMax="1.4142135623730951">
          -1 -1 0 -1 -1 0
          -1 -1 0 -1 -1 0
          -1 -1 0 -1 -1 0
          -1 -1 0 -1 -1 0
          -1 -1 0 -1 -1 0
          -1 -1 0 -1 -1 0
          -1 -1 0 -1 -1 0
          -1 -1 0 -1 -1 0
          -1 -1 0 -1 -1 0
          -1 -1 0 -1 -1 0
          -1 -1 0 -1 -1 0
          -1 -1 0 -1 -1 0
          -1 -1 0 -1 -1 0
          1 1 0 -1 -1 0
          -1 -1 0 -1 -1 0
          1 1 0 -1 -1 0
          1 1 0
          <InformationKey name="L2_NORM_RANGE" location="vtkDataArray" length="2">
            <Value index="0">
              1.4142135624
            </Value>
            <Value index="1">
              1.4142135624
            </Value>
          </InformationKey>
        </DataArray>
        <DataArray type="Float64" Name="Disp" NumberOfComponents="3" format="ascii" RangeMin="0" RangeMax="0.000016026912226873513">
          0.00001588438682088513 0.0000021326440988590797 0 0.000013766806922003643 0.000002121667996763175 0
          0.000011655134241143623 0.000002089905673943072 0 0.000015878846421233002 2.537703059429918e-8 0
          0.000009575090846929201 0.0000020269487733062666 0 0.000013756783450274158 2.4185249475608025e-8 0
          0.000007563425035755849 0.000001923161005704433 0 0.00001163596464258645 2.245470445826728e-8 0
          0.00001588008763368093 -0.000002081240580292726 0 0.000005665790541553524 0.0000017690950330796446 0
          0.000009543818366350695 2.020008727255999e-8 0 0.000013761526065340369 -0.0000020724229344056524 0
          0.000007516832506054778 1.758712566324558e-8 0 0.0000039370839650182 0.0000015555901269717814 0
          0.000011648611509234516 -0.000002044261429631323 0 0.000005600823494242086 1.4709868239503491e-8 0
          0.00000956787852923061 -0.0000019859721418416214 0 0.0000024419703884671935 0.0000012733122605212706 0
          0.000003850837932470649 1.1651914391205909e-8 0 0.000007555684766027447 -0.0000018875533402675054 0
          0.0000012500750480872279 9.153800477040998e-7 0 0.000005657724366082787 -0.0000017393573916603792 0
          0.0000023307854511733555 8.466347849389664e-9 0 4.6899419795423815e-7 4.584445471630767e-7 0
          0.0000039288103940393665 -0.0000015320602097260217 0 0.000001115871681986909 5.1388423096511975e-9 0
          0 0 0 0.000002433589762799892 -0.0000012561948346335932 0
          2.734644714953584e-7 1.5692809046203853e-9 0 0.0000012415453679933776 -9.047432096504645e-7 0
          0 0 0 4.605833239679059e-7 -4.539440101512312e-7 0
          0 0 0
          <InformationKey name="L2_NORM_RANGE" location="vtkDataArray" length="2">
            <Value index="0">
              0
            </Value>
            <Value index="1">
              1.6026912227e-05
            </Value>
          </InformationKey>
        </DataArray>
        <DataArray type="Float64" Name="Sld_traction" NumberOfComponents="3" format="ascii" RangeMin="0" RangeMax="2026.30294797525">
          6.904473178312989 7.856780644584527 0 -30.165385899205212 -29.308368884342556 0
          -102.70892314619101 -47.87568792452329 0 19.699564687962457 -1.7513850607788362 0
          -204.35168898526547 -65.486778666206 0 0 0 0
          -333.5257494678593 -81.99410255351945 0 0 0 0
          -5.189067554101745 -8.709899038388059 0 -489.64284797055507 -98.05743809625345 0
          0 0 0 -58.08127837948171 32.06627121076714 0
          0 0 0 -672.3915107649291 -113.409555478144 0
          -132.9702058467238 50.317943465303806 0 0 0 0
          -236.09641215279615 67.2144592296398 0 -879.1360622138905 -130.30810594691994 0
          0 0 0 -366.41316437459295 83.27612429485968 0
          -1123.2701773689168 -132.40097475959155 0 -523.2043379093816 98.96017571582487 0
          0 0 0 -1306.3668771772245 -241.03857500127364 0
          -706.4077322048578 114.04405399595298 0 0 0 0
          -1318.9508625395954 -1538.269241446128 0 -913.7232999749239 130.88744758347943 0
          0 0 0 -1159.7169569327593 133.20864655489325 0
          -481.7703449637268 -15.390417866199883 0 -1336.169187237717 236.3860377422037 0
          -1314.1098647163788 1515.3031034585401 0
          <InformationKey name="L2_NORM_RANGE" location="vtkDataArray" length="2">
            <Value index="0">
              0
            </Value>
            <Value index="1">
              2026.302948
            </Value>
          </InformationKey>
        </DataArray>
        <DataArray type="Float64" Name="Fld_traction" NumberOfComponents="3" format="ascii" RangeMin="0" RangeMax="38.933301540779375">
          24.67932429551474 -0.12163278767950166 0 38.37619781624456 6.562728855721488 0
          37.893774162151644 4.093324593407342 0 15.181981123488999 -4.0224252377378145 0
          37.021894852574725 2.7357525077661267 0 0 0 0
          36.701071901850135 1.866683698895048 0 0 0 0
          12.988899351875778 -2.486453130668075 0 36.38810270355283 1.1946221760886215 0
          0 0 0 10.736337898639242 -2.126548774747999 0
          0 0 0 35.95797755595229 0.6927765275038554 0
          6.837277419122896 -0.5894713637423393 0 0 0 0
          4.662767291891296 -0.2201097706215457 0 35.514279535605084 0.3551024931408791 0
          0 0 0 3.2580894131566973 -0.02364586806348845 0
          35.25343619612528 0.1335363663164684 0 2.4049976314161143 0.10041231861229069 0
          0 0 0 34.99169680166171 0.020653636013152222 0
          1.665687602763638 0.16380802474395117 0 0 0 0
          17.71585145616853 -17.158832486174617 0 1.2003147101439986 0.1867963755847816 0
          0 0 0 0.8090469374155492 0.15612282174826786 0
          0 0 0 0.6306922310262413 0.05811761667984901 0
          0.32638175722236523 0.32475143367901543 0
          <InformationKey name="L2_NORM_RANGE" location="vtkDataArray" length="2">
            <Value index="0">
              0
            </Value>
            <Value index="1">
              38.933301541
            </Value>
          </InformationKey>
        </DataArray>
        <DataArray type="Float64" Name="Velocity" NumberOfComponents="3" format="ascii" RangeMin="0" RangeMax="0.0006410764890749405">
          0.0006353754728354053 0.00008530576395436319 0 0.0005506722768801458 0.000084866719870527 0
          0.0004662053696457449 0.00008359622695772288 0 0.0006351538568493201 0.0000010150812237719672 0
          0.00038300363387716807 0.00008107795093225068 0 0.0005502713380109664 9.67409979024321e-7 0
          0.000302537001430234 0.00007692644022817732 0 0.00046543858570345805 8.981881783306912e-7 0
          0.0006352035053472373 -0.00008324962321170905 0 0.00022663162166214096 0.0000707638013231858 0
          0.00038175273465402784 8.080034909023996e-7 0 0.0005504610426136147 -0.00008289691737622609 0
          0.00030067330024219113 7.034850265298231e-7 0 0.00015748335860072803 0.00006222360507887125 0
          0.0004659444603693807 -0.00008177045718525292 0 0.00022403293976968344 5.883947295801396e-7 0
          0.0003827151411692244 -0.00007943888567366487 0 0.00009767881553868774 0.00005093249042085083 0
          0.000154033517298826 4.6607657564823634e-7 0 0.0003022273906410979 -0.00007550213361070022 0
          0.00005000300192348912 0.000036615201908164 0 0.0002263089746433115 -0.00006957429566641517 0
          0.00009323141804693423 3.3865391397558654e-7 0 0.000018759767918169525 0.000018337781886523067 0
          0.00015715241576157467 -0.00006128240838904087 0 0.000044634867279476364 2.055536923860479e-7 0
          0 0 0 0.00009734359051199569 -0.00005024779338534373 0
          0.000010938578859814338 6.277123618481541e-8 0 0.000049661814719735114 -0.00003618972838601858 0
          0 0 0 0.000018423332958716238 -0.00001815776040604925 0
          0 0 0
          <InformationKey name="L2_NORM_RANGE" location="vtkDataArray" length="2">
            <Value index="0">
              0
            </Value>
            <Value index="1">
              0.00064107648907
            </Value>
          </InformationKey>
        </DataArray>
      </PointData>
      <CellData>
        <DataArray type="UInt8" Name="vtkGhostType" format="ascii" RangeMin="0" RangeMax="0">
          0 0 0 0 0 0
          0 0 0 0 0 0
          0 0 0 0 0 0
          0 0
        </DataArray>
        <DataArray type="Float64" Name="Gauss Stress" NumberOfComponents="6" format="ascii" RangeMin="30.940125939271446" RangeMax="1504.8640982866748">
          476.3462262185163 1412.8333334877066 0 203.99068328127282 0 0
          -490.55582430118307 -1404.1216622053785 0 198.95076444626528 0 0
          -97.33750497555158 1031.5679294972683 0 183.13088408794334 0 0
          62.81616323849448 -1022.9360402043412 0 184.259090859792 0 0
          -19.306661110648207 847.325283664635 0 165.5255393624882 0 0
          -15.261925011084543 -838.9873332674975 0 166.00132852580202 0 0
          -30.21854978062123 659.6217075036 0 147.42564523830526 0 0
          -4.02310309746332 -651.8271235156583 0 147.77621212178278 0 0
          -28.89221968331195 496.493076616554 0 128.84368846628314 0 0
          -5.099209536973262 -489.5546605076327 0 129.3633729399265 0 0
          -29.201324787638896 354.3658221879222 0 109.78175675538196 0 0
          -4.323746942246984 -348.7204115484871 0 110.53765442763799 0 0
          -29.13750169914431 234.0920564698499 0 90.24029473506945 0 0
          -3.5386901992228275 -230.2863640510165 0 91.32902845604923 0 0
          -29.251842592633697 135.9617972748467 0 69.99626867933954 0 0
          -2.173358484014706 -134.66740340733222 0 71.41934206831417 0 0
          -28.787669674742837 60.75961620306317 0 48.25743014722106 0 0
          -0.3590597288323458 -62.96391617776736 0 50.290863619713015 0 0
          -31.29920950894512 8.31547871783164 0 24.924446933882955 0 0
          4.494502409178685 -14.950170908278668 0 26.7129787003457 0 0
          <InformationKey name="L2_NORM_RANGE" location="vtkDataArray" length="2">
            <Value index="0">
              30.940125939
            </Value>
            <Value index="1">
              1504.8640983
            </Value>
          </InformationKey>
        </DataArray>
        <DataArray type="Float64" Name="Gauss Strain" NumberOfComponents="6" format="ascii" RangeMin="3.863065980168992e-7" RangeMax="0.000006217060188792647">
          -0.0000019552849055137766 0.000004600101823959424 0 0.0000028558560571311116 0 0
          0.0000018712011259081063 -0.000004523782451720804 0 0.0000027853237728148763 0 0
          -0.0000032972223472649276 0.000004605098632523563 0 0.0000025638308775145124 0 0
          0.000003128035516913873 -0.000004472246879161368 0 0.000002579628878262342 0 0
          -0.000002453607234248478 0.000003612805173081046 0 0.0000023173554089114922 0 0
          0.000002285056991388479 -0.0000034810319405609302 0 0.0000023240208378779333 0 0
          -0.000001973864439674955 0.000002855010530627977 0 0.0000020639576786746474 0 0
          0.0000018082139513486695 -0.0000027264209303268228 0 0.000002068868407369759 0 0
          -0.0000015115315473712698 0.0000021661616580181953 0 0.0000018038107562228663 0 0
          0.0000013493333396036313 -0.000002041858625817516 0 0.0000018110881798677329 0 0
          -0.0000011148720189257944 0.0000015700960369208206 0 0.0000015369440801150439 0 0
          9.582556640963524e-7 -0.0000014525229296014075 0 0.0000015475277450949767 0 0
          -7.778364547184057e-7 0.0000010647695903309717 0 0.000001263363867120263 0 0
          6.299383829427851e-7 -9.57296186571144e-7 0 0.000001278606717312307 0 0
          -5.035513618023567e-7 6.529438265762133e-7 0 9.799476640909729e-7 0 0
          3.679401704287377e-7 -5.595184395523757e-7 0 9.99870934441931e-7 0 0
          -2.9103537788066625e-7 3.357955679489377e-7 0 6.756040101322716e-7 0 0
          1.7479073018134006e-7 -2.634433315107376e-7 0 7.040721373419408e-7 0 0
          -1.5474008449589682e-7 1.2256273948518803e-7 0 3.4894227122661666e-7 0 0
          6.073734212797e-8 -7.53753760240894e-8 0 3.7398170494269796e-7 0 0
          <InformationKey name="L2_NORM_RANGE" location="vtkDataArray" length="2">
            <Value index="0">
              3.8630659802e-07
            </Value>
            <Value index="1">
              6.2170601888e-06
            </Value>
          </InformationKey>
        </DataArray>
        <DataArray type="Float64" Name="Btraction" NumberOfComponents="3" format="ascii" RangeMin="0.25770372144004733" RangeMax="19.252694780043186">
          13.176887064457558 -4.284544712540367 0 0.23926849706215159 0.09571726258971607 0
          17.561283249446745 0.03854750058240516 0 0.3599347921104476 0.05356010960702921 0
          17.69192893293259 0.12215971486433687 0 0.502340411889887 0.08572979933326236 0
          17.86806427288934 0.2619697551611836 0 0.7165005782269092 0.08765110008218319 0
          18.08652006487628 0.4718496758981192 0 1.017671308544938 0.06605508583906047 0
          18.272293651350743 0.7653264687459174 0 1.4157717611432026 0.019191612637200553 0
          18.430741688606215 1.1506090516652936 0 1.9802141762619982 -0.06093890967125853 0
          18.728917253681594 1.7072692752933665 0 2.8750111777535468 -0.20239528359097123 0
          19.067492994599053 2.664013362282207 0 4.393403829440534 -0.6790050346225847 0
          15.763880527939822 1.6102740170104966 0 7.042720118841194 -1.627219592101472 0
          <InformationKey name="L2_NORM_RANGE" location="vtkDataArray" length="2">
            <Value index="0">
              0.25770372144
            </Value>
            <Value index="1">
              19.25269478
            </Value>
          </InformationKey>
        </DataArray>
      </CellData>
      <Points>
        <DataArray type="Float32" Name="Points" NumberOfComponents="3" format="ascii" RangeMin="1.4500000476837158" RangeMax="1.6286497021092299">
          1.4500000476837158 0.5 0 1.4500000476837158 0.44999998807907104 0
          1.4500000476837158 0.4000000059604645 0 1.5 0.5 0
          1.4500000476837158 0.3499999940395355 0 1.5 0.44999998807907104 0
          1.4500000476837158 0.30000001192092896 0 1.5 0.4000000059604645 0
          1.5499999523162842 0.5 0 1.4500000476837158 0.25 0
          1.5 0.3499999940395355 0 1.5499999523162842 0.44999998807907104 0
          1.5 0.30000001192092896 0 1.4500000476837158 0.20000000298023224 0
          1.5499999523162842 0.4000000059604645 0 1.5 0.25 0
          1.5499999523162842 0.3499999940395355 0 1.4500000476837158 0.15000000596046448 0
          1.5 0.20000000298023224 0 1.5499999523162842 0.30000001192092896 0
          1.4500000476837158 0.10000000149011612 0 1.5499999523162842 0.25 0
          1.5 0.15000000596046448 0 1.4500000476837158 0.05000000074505806 0
          1.5499999523162842 0.20000000298023224 0 1.5 0.10000000149011612 0
          1.4500000476837158 0 0 1.5499999523162842 0.15000000596046448 0
          1.5 0.05000000074505806 0 1.5499999523162842 0.10000000149011612 0
          1.5 0 0 1.5499999523162842 0.05000000074505806 0
          1.5499999523162842 0 0
          <InformationKey name="L2_NORM_RANGE" location="vtkDataArray" length="2">
            <Value index="0">
              1.4500000477
            </Value>
            <Value index="1">
              1.6286497021
            </Value>
          </InformationKey>
        </DataArray>
      </Points>
      <Cells>
        <DataArray type="Int64" Name="connectivity" format="ascii" RangeMin="0" RangeMax="32">
          30 28 23 26 32 31
          28 30 28 25 20 23
          31 29 25 28 25 22
          17 20 29 27 22 25
          22 18 13 17 27 24
          18 22 18 15 9 13
          24 21 15 18 15 12
          6 9 21 19 12 15
          12 10 4 6 19 16
          10 12 10 7 2 4
          16 14 7 10 7 5
          1 2 14 11 5 7
          5 3 0 1 11 8
          3 5
        </DataArray>
        <DataArray type="Int64" Name="offsets" format="ascii" RangeMin="4" RangeMax="80">
          4 8 12 16 20 24
          28 32 36 40 44 48
          52 56 60 64 68 72
          76 80
        </DataArray>
        <DataArray type="UInt8" Name="types" format="ascii" RangeMin="9" RangeMax="9">
          9 9 9 9 9 9
          9 9 9 9 9 9
          9 9 9 9 9 9
          9 9
        </DataArray>
      </Cells>
    </Piece>
  </UnstructuredGrid>
</VTKFile>
