<?xml version="1.0"?>
<VTKFile type="UnstructuredGrid" version="0.1" byte_order="LittleEndian" header_type="UInt32" compressor="vtkZLibDataCompressor">
  <UnstructuredGrid>
    <Piece NumberOfPoints="33" NumberOfCells="20">
      <PointData>
        <DataArray type="Float64" Name="sld_BC" NumberOfComponents="3" format="ascii" RangeMin="0" RangeMax="0">
          0 0 0 0 0 0
          0 0 0 0 0 0
          0 0 0 0 0 0
          0 0 0 0 0 0
          0 0 0 0 0 0
          0 0 0 0 0 0
          0 0 0 0 0 0
          0 0 0 0 0 0
          0 0 0 0 0 0
          0 0 0 0 0 0
          0 0 0 0 0 0
          0 0 0 0 0 0
          0 0 0 0 0 0
          0 0 0 0 0 0
          0 0 0 0 0 0
          0 0 0 0 0 0
          0 0 0
          <InformationKey name="L2_NORM_RANGE" location="vtkDataArray" length="2">
            <Value index="0">
              0
            </Value>
            <Value index="1">
              0
            </Value>
          </InformationKey>
        </DataArray>
        <DataArray type="Float64" Name="sld_FIXNO" NumberOfComponents="3" format="ascii" RangeMin="1.4142135623730951" RangeMax="1.4142135623730951">
          -1 -1 0 -1 -1 0
          -1 -1 0 -1 -1 0
          -1 -1 0 -1 -1 0
          -1 -1 0 -1 -1 0
          -1 -1 0 -1 -1 0
          -1 -1 0 -1 -1 0
          -1 -1 0 -1 -1 0
          -1 -1 0 -1 -1 0
          -1 -1 0 -1 -1 0
          -1 -1 0 -1 -1 0
          -1 -1 0 -1 -1 0
          -1 -1 0 -1 -1 0
          -1 -1 0 -1 -1 0
          1 1 0 -1 -1 0
          -1 -1 0 -1 -1 0
          1 1 0 -1 -1 0
          1 1 0
          <InformationKey name="L2_NORM_RANGE" location="vtkDataArray" length="2">
            <Value index="0">
              1.4142135624
            </Value>
            <Value index="1">
              1.4142135624
            </Value>
          </InformationKey>
        </DataArray>
        <DataArray type="Float64" Name="Disp" NumberOfComponents="3" format="ascii" RangeMin="0" RangeMax="0.00001295326412163794">
          0.000012837431379082333 0.0000017284116964036556 0 0.000011128190797214024 0.000001718658176694593 0
          0.000009425195083459961 0.0000016917403216503897 0 0.00001283200714166985 2.8024502444513714e-8 0
          0.000007748686225311109 0.0000016399275719042817 0 0.00001111899202069681 2.6640827113366322e-8 0
          0.0000061275057783752845 0.0000015558231757419436 0 0.000009408551705288725 2.471724318062017e-8 0
          0.000012832742291290937 -0.0000016714523133174183 0 0.000004597395428964381 0.0000014318659979014993 0
          0.000007722428888510822 2.2235521921832386e-8 0 0.000011122641438705898 -0.000001664263596107137 0
          0.000006089105964000277 1.9362904080345186e-8 0 0.000003201665055748797 0.0000012604343215902032 0
          0.000009418416714394398 -0.0000016413993966366592 0 0.000004544370079805711 1.6199476197209127e-8 0
          0.000007741192238294184 -0.0000015947476390401596 0 0.000001991914694144451 0.0000010334659283557047 0
          0.000003131552106415807 1.283709902313407e-8 0 0.000006119453256750798 -0.0000015165594774413377 0
          0.0000010243792869701148 7.446302906393961e-7 0 0.000004588984252548596 -0.0000013990707040249702 0
          0.0000019015259882250416 9.335448733030076e-9 0 3.8721910051702236e-7 3.7389283329764333e-7 0
          0.0000031930306355679636 -0.0000012344793261835653 0 9.150091128815583e-7 5.6878394150883e-9 0
          0 0 0 0.0000019831495448773837 -0.0000010145773880927485 0
          2.2717606170372517e-7 1.7997028002775364e-9 0 0.0000010154813766850197 -7.328679061687064e-7 0
          0 0 0 3.784622890886737e-7 -3.688710862523984e-7 0
          0 0 0
          <InformationKey name="L2_NORM_RANGE" location="vtkDataArray" length="2">
            <Value index="0">
              0
            </Value>
            <Value index="1">
              1.2953264122e-05
            </Value>
          </InformationKey>
        </DataArray>
        <DataArray type="Float64" Name="Sld_traction" NumberOfComponents="3" format="ascii" RangeMin="0" RangeMax="1657.38240198924">
          7.787218801449249 6.237517133858298 0 -21.097456060687914 -24.100096023889 0
          -79.58931796591062 -38.25933769688059 0 17.09736601356529 -1.4109454568400042 0
          -160.03918248310703 -52.08937379840951 0 0 0 0
          -262.11690846010833 -65.38353648760187 0 0 0 0
          -4.736027056544548 -6.62407260911765 0 -386.2409236405077 -78.74179414657809 0
          0 0 0 -49.456873771308096 27.089675681135738 0
          0 0 0 -532.9915273002139 -91.94176005484918 0
          -109.82593862646503 40.95672594162251 0 0 0 0
          -191.64066198718632 54.03845475292033 0 -700.9684099179949 -106.82988097731035 0
          0 0 0 -294.78076475030974 66.84395266168295 0
          -901.839701515342 -109.99747946680817 0 -419.53238285513424 79.7697200271962 0
          0 0 0 -1056.7584986177906 -201.36725170501848 0
          -566.6785139920845 92.65655968755723 0 0 0 0
          -1078.1094903250303 -1258.8075124079637 0 -735.2428338663872 107.43702261804762 0
          0 0 0 -937.9423829374546 110.79999060207842 0
          -398.6632550329838 -17.453803926624317 0 -1085.8657207560661 196.49648069816766 0
          -1072.1062620736227 1233.4412300743088 0
          <InformationKey name="L2_NORM_RANGE" location="vtkDataArray" length="2">
            <Value index="0">
              0
            </Value>
            <Value index="1">
              1657.382402
            </Value>
          </InformationKey>
        </DataArray>
        <DataArray type="Float64" Name="Fld_traction" NumberOfComponents="3" format="ascii" RangeMin="0" RangeMax="38.50312982967757">
          24.46270791504871 -0.3398882108287555 0 38.0329372080278 5.998891065123682 0
          37.391150379717374 3.5120625715745355 0 14.857129857778109 -3.6379398303907213 0
          36.379396514010246 2.1672693981331492 0 0 0 0
          35.91852850342235 1.3565533286587659 0 0 0 0
          12.301430646110946 -1.576149099837406 0 35.49142971171804 0.7779246718136812 0
          0 0 0 9.84068776202328 -0.9361191018315321 0
          0 0 0 35.00804914579453 0.39608081085615576 0
          6.187239259351211 0.462754567954165 0 0 0 0
          4.043954272170393 0.7516450932363197 0 34.593835190428535 0.17537180392340326 0
          0 0 0 2.6011897372024917 0.820816642712166 0
          34.36778994406611 0.05127921496598298 0 1.6778539610805214 0.7635204896167004 0
          0 0 0 34.18459870938281 0.002697698573774812 0
          0.962193500844973 0.6310448425147327 0 0 0 0
          17.329829617858934 -16.787773896450908 0 0.5177496518711879 0.4372565393265491 0
          0 0 0 0.3021732205340451 0.24248114669881865 0
          0 0 0 0.3031495100736973 0.06490372174644574 0
          0.19802208164121932 0.20076065911725663 0
          <InformationKey name="L2_NORM_RANGE" location="vtkDataArray" length="2">
            <Value index="0">
              0
            </Value>
            <Value index="1">
              38.50312983
            </Value>
          </InformationKey>
        </DataArray>
        <DataArray type="Float64" Name="Velocity" NumberOfComponents="3" format="ascii" RangeMin="0" RangeMax="0.000029594296043233146">
          -0.000028979844131820048 -0.0000031817864198248116 0 -0.000024882082613340346 -0.000003386430061329062 0
          -0.00002029318305559209 -0.000003676771145551742 0 -0.00002915741403958878 9.781043863660136e-7 0
          -0.000015379794299407947 -0.000003828820881063456 0 -0.000025112223856523907 9.296093808373371e-7 0
          -0.000010454736261743635 -0.0000036958815965232828 0 -0.000020527761301071095 8.601160873198073e-7 0
          -0.000029140678919698437 0.0000051617042140719575 0 -0.000005951137464645594 -0.000003227691632806919 0
          -0.000015542293690115963 7.708197411318312e-7 0 -0.000025083048172509212 0.00000527848498747577 0
          -0.000010514265428520486 6.68443445095537e-7 0 -0.000002300103430529361 -0.0000024644182906799105 0
          -0.00002054327026449192 0.000005425115052184427 0 -0.000005903934360883465 5.567248625748077e-7 0
          -0.000015656460494150774 0.000005392782608985082 0 1.6532482265863458e-7 -0.000001533624779224359 0
          -0.000002172970821256819 4.3898633874819134e-7 0 -0.000010751991638844734 0.000005049745224943938 0
          0.0000012916762064357164 -6.38722979811643e-7 0 -0.000006261341684326774 0.0000043538185017954146 0
          3.1651408034618543e-7 3.1733516665879226e-7 0 0.0000011982785039096275 -5.7261920387346686e-8 0
          -0.000002619124565566239 0.000003351611414011006 0 0.0000013889347488958684 1.9117038205954503e-7 0
          0 0 0 -1.5863352974488715e-7 0.0000021759707074064493 0
          0.0000011168969802102657 5.63676410721473e-8 0 9.60760218880293e-7 0.0000010354510391070925 0
          0 0 0 8.71063366601475e-7 2.2341400273780384e-7 0
          0 0 0
          <InformationKey name="L2_NORM_RANGE" location="vtkDataArray" length="2">
            <Value index="0">
              0
            </Value>
            <Value index="1">
              2.9594296043e-05
            </Value>
          </InformationKey>
        </DataArray>
      </PointData>
      <CellData>
        <DataArray type="UInt8" Name="vtkGhostType" format="ascii" RangeMin="0" RangeMax="0">
          0 0 0 0 0 0
          0 0 0 0 0 0
          0 0 0 0 0 0
          0 0
        </DataArray>
        <DataArray type="Float64" Name="Gauss Stress" NumberOfComponents="6" format="ascii" RangeMin="26.383330586541682" RangeMax="1228.484989210623">
          387.5123575287339 1152.8463605373345 0 173.0745806702112 0 0
          -400.4020434695041 -1140.915353618228 0 167.83234632735022 0 0
          -84.21900897087815 835.8322223874812 0 152.83241985946844 0 0
          50.133313489577745 -823.966872418271 0 154.01305303728822 0 0
          -20.320014842273338 682.877626861035 0 136.4202940601354 0 0
          -13.928674273867813 -671.3022120206662 0 136.93428700799348 0 0
          -29.179164602024173 529.3459825079744 0 120.04137788584929 0 0
          -4.792566954652841 -518.3732505249072 0 120.4782430323371 0 0
          -28.054867624090477 397.55698945737646 0 103.78051131929477 0 0
          -5.702115689342094 -387.5960802720256 0 104.41265147519682 0 0
          -28.294004936325422 283.90889782124697 0 87.66143147906534 0 0
          -5.054010695925726 -275.4691318993913 0 88.57617668468794 0 0
          -28.227603192796337 188.38801470189344 0 71.682783824975 0 0
          -4.344373342700209 -182.10076697482484 0 72.9659930390539 0 0
          -28.336889118765104 110.50966894548833 0 55.65698028561603 0 0
          -3.110914625448494 -107.11243977791614 0 57.3179135659765 0 0
          -27.93718409602733 50.17960279154569 0 38.855322821247924 0 0
          -1.5005713481256926 -50.72485081890833 0 41.17343725882776 0 0
          -30.434147001726398 6.364699090461549 0 21.322883944284285 0 0
          2.6204570138032643 -11.937721220339837 0 23.381705454115256 0 0
          <InformationKey name="L2_NORM_RANGE" location="vtkDataArray" length="2">
            <Value index="0">
              26.383330587
            </Value>
            <Value index="1">
              1228.4849892
            </Value>
          </InformationKey>
        </DataArray>
        <DataArray type="Float64" Name="Gauss Strain" NumberOfComponents="6" format="ascii" RangeMin="3.353082688165183e-7" RangeMax="0.0000050863290779851555">
          -0.000001600421879799363 0.0000037569008268789617 0 0.00000242303493405352 0 0
          0.0000015128709856399025 -0.0000036707371878219597 0 0.0000023496616572898054 0 0
          -0.0000026940598958080653 0.0000037462875464855383 0 0.0000021396528658647703 0 0
          0.000002517658455894467 -0.0000036010538995712164 0 0.0000021561838322263336 0 0
          -0.0000019974070655237597 0.000002924969161433033 0 0.0000019098827061643226 0 0
          0.0000018211409587715055 -0.000002780480922365269 0 0.000001917081498644725 0 0
          -0.000001604725054282774 0.00000230494658692848 0 0.0000016805784156722617 0 0
          0.0000014313131674742463 -0.0000021637559007858793 0 0.0000016866963378153432 0 0
          -0.0000012309924011522089 0.000001748288125380526 0 0.000001452926598329006 0 0
          0.0000010613182360730278 -0.0000016119419187776705 0 0.0000014617777367060651 0 0
          -9.137811604886803e-7 0.0000012716378975236031 0 0.000001227259719297914 0 0
          7.500856330916461e-7 -0.0000011428214371778103 0 0.0000012400668458455046 0 0
          -6.460431688504187e-7 8.702656013881427e-7 0 0.0000010035588142845303 0 0
          4.916351958456078e-7 -7.526600989127274e-7 0 0.000001021524106588346 0 0
          -4.284424090228444e-7 5.434833075662615e-7 0 7.791976659761709e-7 0 0
          2.868487043866663e-7 -4.4116216185718926e-7 0 8.024508846050511e-7 0 0
          -2.5783923032762774e-7 2.889782418774578e-7 0 5.439745149633055e-7 0 0
          1.3572706195064121e-7 -2.0884293874812165e-7 0 5.764281534981228e-7 0 0
          -1.4564462580413107e-7 1.119473036631513e-7 0 2.9852038738544777e-7 0 0
          4.443150435073928e-8 -5.7475746745305756e-8 0 3.273438789620637e-7 0 0
          <InformationKey name="L2_NORM_RANGE" location="vtkDataArray" length="2">
            <Value index="0">
              3.3530826882e-07
            </Value>
            <Value index="1">
              5.086329078e-06
            </Value>
          </InformationKey>
        </DataArray>
        <DataArray type="Float64" Name="Btraction" NumberOfComponents="3" format="ascii" RangeMin="0.1418076442760045" RangeMax="19.005346661405703">
          12.878607081810438 -4.196269049469283 0 0.12529289792872916 0.06641609521592559 0
          17.138097163362232 0.013494228384939444 0 0.15133068265193558 0.07684621711131608 0
          17.240406283623663 0.05666275472234655 0 0.20498071810130825 0.16993442150634194 0
          17.400471084055766 0.14286315369488975 0 0.3699857881790402 0.26707534546032047 0
          17.624869714378143 0.2935013706674592 0 0.6600118654813735 0.34864133303285827 0
          17.852489553785098 0.5336195001181117 0 1.0697609245707531 0.39608428308221655 0
          18.074481254358147 0.8809556816979787 0 1.661286002343221 0.39311543398712134 0
          18.442636723431903 1.419832992426921 0 2.557798382880401 0.3035999152976212 0
          18.856021896936294 2.3777384091745546 0 4.006981755343623 -0.11834113346934177 0
          15.62391128076913 1.4147507135737316 0 6.789640125972264 -1.3035222325570317 0
          <InformationKey name="L2_NORM_RANGE" location="vtkDataArray" length="2">
            <Value index="0">
              0.14180764428
            </Value>
            <Value index="1">
              19.005346661
            </Value>
          </InformationKey>
        </DataArray>
      </CellData>
      <Points>
        <DataArray type="Float32" Name="Points" NumberOfComponents="3" format="ascii" RangeMin="1.4500000476837158" RangeMax="1.6286497021092299">
          1.4500000476837158 0.5 0 1.4500000476837158 0.44999998807907104 0
          1.4500000476837158 0.4000000059604645 0 1.5 0.5 0
          1.4500000476837158 0.3499999940395355 0 1.5 0.44999998807907104 0
          1.4500000476837158 0.30000001192092896 0 1.5 0.4000000059604645 0
          1.5499999523162842 0.5 0 1.4500000476837158 0.25 0
          1.5 0.3499999940395355 0 1.5499999523162842 0.44999998807907104 0
          1.5 0.30000001192092896 0 1.4500000476837158 0.20000000298023224 0
          1.5499999523162842 0.4000000059604645 0 1.5 0.25 0
          1.5499999523162842 0.3499999940395355 0 1.4500000476837158 0.15000000596046448 0
          1.5 0.20000000298023224 0 1.5499999523162842 0.30000001192092896 0
          1.4500000476837158 0.10000000149011612 0 1.5499999523162842 0.25 0
          1.5 0.15000000596046448 0 1.4500000476837158 0.05000000074505806 0
          1.5499999523162842 0.20000000298023224 0 1.5 0.10000000149011612 0
          1.4500000476837158 0 0 1.5499999523162842 0.15000000596046448 0
          1.5 0.05000000074505806 0 1.5499999523162842 0.10000000149011612 0
          1.5 0 0 1.5499999523162842 0.05000000074505806 0
          1.5499999523162842 0 0
          <InformationKey name="L2_NORM_RANGE" location="vtkDataArray" length="2">
            <Value index="0">
              1.4500000477
            </Value>
            <Value index="1">
              1.6286497021
            </Value>
          </InformationKey>
        </DataArray>
      </Points>
      <Cells>
        <DataArray type="Int64" Name="connectivity" format="ascii" RangeMin="0" RangeMax="32">
          30 28 23 26 32 31
          28 30 28 25 20 23
          31 29 25 28 25 22
          17 20 29 27 22 25
          22 18 13 17 27 24
          18 22 18 15 9 13
          24 21 15 18 15 12
          6 9 21 19 12 15
          12 10 4 6 19 16
          10 12 10 7 2 4
          16 14 7 10 7 5
          1 2 14 11 5 7
          5 3 0 1 11 8
          3 5
        </DataArray>
        <DataArray type="Int64" Name="offsets" format="ascii" RangeMin="4" RangeMax="80">
          4 8 12 16 20 24
          28 32 36 40 44 48
          52 56 60 64 68 72
          76 80
        </DataArray>
        <DataArray type="UInt8" Name="types" format="ascii" RangeMin="9" RangeMax="9">
          9 9 9 9 9 9
          9 9 9 9 9 9
          9 9 9 9 9 9
          9 9
        </DataArray>
      </Cells>
    </Piece>
  </UnstructuredGrid>
</VTKFile>
