<?xml version="1.0"?>
<VTKFile type="UnstructuredGrid" version="0.1" byte_order="LittleEndian" header_type="UInt32" compressor="vtkZLibDataCompressor">
  <UnstructuredGrid>
    <Piece NumberOfPoints="33" NumberOfCells="20">
      <PointData>
        <DataArray type="Float64" Name="sld_BC" NumberOfComponents="3" format="ascii" RangeMin="0" RangeMax="0">
          0 0 0 0 0 0
          0 0 0 0 0 0
          0 0 0 0 0 0
          0 0 0 0 0 0
          0 0 0 0 0 0
          0 0 0 0 0 0
          0 0 0 0 0 0
          0 0 0 0 0 0
          0 0 0 0 0 0
          0 0 0 0 0 0
          0 0 0 0 0 0
          0 0 0 0 0 0
          0 0 0 0 0 0
          0 0 0 0 0 0
          0 0 0 0 0 0
          0 0 0 0 0 0
          0 0 0
          <InformationKey name="L2_NORM_RANGE" location="vtkDataArray" length="2">
            <Value index="0">
              0
            </Value>
            <Value index="1">
              0
            </Value>
          </InformationKey>
        </DataArray>
        <DataArray type="Float64" Name="sld_FIXNO" NumberOfComponents="3" format="ascii" RangeMin="1.4142135623730951" RangeMax="1.4142135623730951">
          -1 -1 0 -1 -1 0
          -1 -1 0 -1 -1 0
          -1 -1 0 -1 -1 0
          -1 -1 0 -1 -1 0
          -1 -1 0 -1 -1 0
          -1 -1 0 -1 -1 0
          -1 -1 0 -1 -1 0
          -1 -1 0 -1 -1 0
          -1 -1 0 -1 -1 0
          -1 -1 0 -1 -1 0
          -1 -1 0 -1 -1 0
          -1 -1 0 -1 -1 0
          -1 -1 0 -1 -1 0
          1 1 0 -1 -1 0
          -1 -1 0 -1 -1 0
          1 1 0 -1 -1 0
          1 1 0
          <InformationKey name="L2_NORM_RANGE" location="vtkDataArray" length="2">
            <Value index="0">
              1.4142135624
            </Value>
            <Value index="1">
              1.4142135624
            </Value>
          </InformationKey>
        </DataArray>
        <DataArray type="Float64" Name="Disp" NumberOfComponents="3" format="ascii" RangeMin="0" RangeMax="0.000013647124320609524">
          0.00001352527139071546 0.0000018196252442923051 0 0.000011724025118200768 0.0000018096329902999679 0
          0.000009928854799847703 0.000001781688207726594 0 0.000013519857374786512 2.7530280021960486e-8 0
          0.00000816123195523023 0.000001727426142561958 0 0.000011714683190678053 2.6183890609458062e-8 0
          0.000006451798148043138 0.0000016389209428352169 0 0.000009911687664634383 2.4297420098465553e-8 0
          0.000013520702838541682 -0.0000017637225118695388 0 0.00000483857269028364 0.0000015081729562815154 0
          0.00000813388091718104 2.1859315620464407e-8 0 0.000011718564546763816 -0.0000017562125986591796 0
          0.000006411574540025144 1.903589894393811e-8 0 0.00000336753023183891 0.0000013272113774648706 0
          0.00000992215996798501 -0.0000017322311568385205 0 0.000004782862623290089 1.5926636767689132e-8 0
          0.000008153820874341568 -0.0000016830338127191382 0 0.0000020932684328762316 0.0000010876968007867797 0
          0.000003293773796246999 1.2621908759369116e-8 0 0.000006443831074963006 -0.0000016003397886111729 0
          0.0000010750800718188743 7.831955638821316e-7 0 0.000004830251492680189 -0.0000014759453395389622 0
          0.0000019981767117444574 9.180068896303413e-9 0 4.0551187383663737e-7 3.929623229081614e-7 0
          0.000003358987418369316 -0.0000013017019973508649 0 9.600964428775811e-7 5.592233199038078e-9 0
          0 0 0 0.000002084598444784755 -0.000001069127703675971 0
          2.374726214712103e-7 1.7622863430762193e-9 0 0.0000010662696348445067 -7.716308341477863e-7 0
          0 0 0 3.9683453495597004e-7 -3.880291743121437e-7 0
          0 0 0
          <InformationKey name="L2_NORM_RANGE" location="vtkDataArray" length="2">
            <Value index="0">
              0
            </Value>
            <Value index="1">
              1.3647124321e-05
            </Value>
          </InformationKey>
        </DataArray>
        <DataArray type="Float64" Name="Sld_traction" NumberOfComponents="3" format="ascii" RangeMin="0" RangeMax="1740.4623096945697">
          7.506823301205683 6.64006964556684 0 -23.20768005073382 -25.22805653609078 0
          -84.80631098981449 -40.42264717614481 0 17.62787119231503 -1.3514099965802482 0
          -170.04995899553919 -55.13837512693989 0 0 0 0
          -278.3118867849737 -69.17987575654129 0 0 0 0
          -4.768571061961792 -7.002446404495709 0 -409.7524435910274 -83.15508106384095 0
          0 0 0 -51.17048728896315 28.16033642972328 0
          0 0 0 -564.7173853758616 -96.82843126517784 0
          -114.76399094763357 43.06059471773514 0 0 0 0
          -201.42675535346444 57.037488719442415 0 -741.4916700809783 -112.13528463848016 0
          0 0 0 -310.79211578745753 70.59786206807621 0
          -952.0903910013081 -115.00578741144624 0 -442.8886151883603 84.15181463434116 0
          0 0 0 -1113.2349862633585 -210.17807494521753 0
          -598.2753510582858 97.52321830322465 0 0 0 0
          -1132.3327283714575 -1321.753246156864 0 -775.6414608280002 112.73784300549937 0
          0 0 0 -988.086831579384 115.81343212796016 0
          -417.1992692494874 -17.112989904015862 0 -1142.3241273805359 205.35913706519108 0
          -1126.5074744545273 1296.8046214216408 0
          <InformationKey name="L2_NORM_RANGE" location="vtkDataArray" length="2">
            <Value index="0">
              0
            </Value>
            <Value index="1">
              1740.4623097
            </Value>
          </InformationKey>
        </DataArray>
        <DataArray type="Float64" Name="Fld_traction" NumberOfComponents="3" format="ascii" RangeMin="0" RangeMax="38.28936999752351">
          24.29535209995038 -0.24801422938957352 0 37.80090354311027 6.096519181609014 0
          37.227607437158134 3.633832660411203 0 14.806477594386973 -3.592227985863134 0
          36.27685698632189 2.293834286556588 0 0 0 0
          35.866700111029 1.4723632222592573 0 0 0 0
          12.396329527750458 -1.7046050796346328 0 35.47802799140687 0.87164404127893 0
          0 0 0 10.036000286865937 -1.187353350396017 0
          0 0 0 35.01228598736805 0.4612654126626903 0
          6.345988037840422 0.22601450616585395 0 0 0 0
          4.193427277700895 0.5264201276117745 0 34.59255601002269 0.21443628796172126 0
          0 0 0 2.75658491317226 0.6200964497605834 0
          34.36062279285565 0.06983350201946115 0 1.8460959629272835 0.6044355303025584 0
          0 0 0 34.162328416819264 0.007100197965685273 0
          1.1198929296997482 0.521347858897914 0 0 0 0
          17.31307648224232 -16.770851493478343 0 0.6642021212122505 0.38311644686848495 0
          0 0 0 0.3952211368366131 0.22804295132120636 0
          0 0 0 0.3474612007227125 0.06548217359647285 0
          0.21235614060507477 0.2140602743861408 0
          <InformationKey name="L2_NORM_RANGE" location="vtkDataArray" length="2">
            <Value index="0">
              0
            </Value>
            <Value index="1">
              38.289369998
            </Value>
          </InformationKey>
        </DataArray>
        <DataArray type="Float64" Name="Velocity" NumberOfComponents="3" format="ascii" RangeMin="0" RangeMax="0.0004164833626980049">
          0.0004127487833626071 0.00005564919798995818 0 0.00035779129421961687 0.00005528593947317414 0
          0.0003031653218833133 0.00005433847447380894 0 0.000412540705484486 9.874183988232907e-7 0
          0.00024949886299664123 0.000052608277251009526 0 0.00035744521372147397 9.40723313496952e-7 0
          0.00019766145051965388 0.00004989064580777309 0 0.0003025740380822006 8.725785311777599e-7 0
          0.00041258161614011633 -0.00005365011576290865 0 0.00014871692194028677 0.000045952139675910496 0
          0.00024861064816719263 7.840074795465211e-7 0 0.00035758392578948963 -0.00005337125440337914 0
          0.00019640157742773032 6.816987798793046e-7 0 0.00010397541108109713 0.000040535215220207315 0
          0.00030290830788151657 -0.000052565039825826036 0 0.00014700549008859684 5.693429413203883e-7 0
          0.00024921487675869976 -0.000051017903396124986 0 0.00006504097618099136 0.000033347154473903535 0
          0.00010172579259555995 4.5022864336980143e-7 0 0.00019735669982413683 -0.000048510339316445596 0
          0.00003371230582976317 0.000024134061174544966 0 0.00014839929991061347 -0.000044800941825490906 0
          0.00006213636191931052 3.264484682091601e-7 0 0.000012893707864368978 0.000012178011444052107 0
          0.00010364933228165085 -0.000039625779774802143 0 0.000030176686198443462 1.9741738814359769e-7 0
          0 0 0 0.000064710481438915 -0.00003268685283938812 0
          0.000007664286612662055 5.9078824570832026e-8 0 0.00003337552354334419 -0.000023724935029419314 0
          0 0 0 0.000012561313072772761 -0.000012005895390340425 0
          0 0 0
          <InformationKey name="L2_NORM_RANGE" location="vtkDataArray" length="2">
            <Value index="0">
              0
            </Value>
            <Value index="1">
              0.0004164833627
            </Value>
          </InformationKey>
        </DataArray>
      </PointData>
      <CellData>
        <DataArray type="UInt8" Name="vtkGhostType" format="ascii" RangeMin="0" RangeMax="0">
          0 0 0 0 0 0
          0 0 0 0 0 0
          0 0 0 0 0 0
          0 0
        </DataArray>
        <DataArray type="Float64" Name="Gauss Stress" NumberOfComponents="6" format="ascii" RangeMin="27.25495660407818" RangeMax="1290.8882211742882">
          407.62057210089654 1211.5661746804167 0 179.84791668773386 0 0
          -420.63591320415776 -1200.1083025271303 0 174.65227091699202 0 0
          -87.00491467891732 880.2562747962764 0 159.56942724570638 0 0
          53.001126927745304 -868.8703965887962 0 160.7401891816061 0 0
          -19.932136952448246 720.296796273658 0 142.97043248781677 0 0
          -14.196862331999256 -709.2084826466977 0 143.47773192235752 0 0
          -29.252709815377415 559.033053520046 0 126.25916865606443 0 0
          -4.5772018196616955 -548.5377118182506 0 126.67499999004355 0 0
          -28.082345343045418 420.1009445714368 0 109.50321540557461 0 0
          -5.514949860872491 -410.5801397715171 0 110.10634892948042 0 0
          -28.332247226985658 299.9345469978086 0 92.72377634218381 0 0
          -4.828845884563023 -291.8785541660434 0 93.59819943054612 0 0
          -28.256794418615847 198.74270896607752 0 75.92404961657897 0 0
          -4.092557961242889 -192.76508242122875 0 77.15922418816425 0 0
          -28.35120608608652 116.2422891107884 0 58.91108518776589 0 0
          -2.8191174331369453 -113.06836730360475 0 60.51531337014896 0 0
          -27.92165229818628 52.561588515163514 0 40.94854794425029 0 0
          -1.156341191908684 -53.228899133585216 0 43.195528549731094 0 0
          -30.382311267485917 6.894086601344416 0 22.055235858624723 0 0
          3.108999372346082 -12.450361163540622 0 24.044859934928628 0 0
          <InformationKey name="L2_NORM_RANGE" location="vtkDataArray" length="2">
            <Value index="0">
              27.254956604
            </Value>
            <Value index="1">
              1290.8882212
            </Value>
          </InformationKey>
        </DataArray>
        <DataArray type="Float64" Name="Gauss Strain" NumberOfComponents="6" format="ascii" RangeMin="3.454493470155981e-7" RangeMax="0.000005341275588325346">
          -0.0000016803832199596693 0.00000394721908113238 0 0.00000251786074353628 0 0
          0.0000015936286512224782 -0.000003862694672729372 0 0.0000024451414821726457 0 0
          -0.0000028301490418713993 0.000003940666882085164 0 0.0000022339708672388434 0 0
          0.0000026554321933547342 -0.000003797680751288502 0 0.0000022503638451608275 0 0
          -0.000002100552238787356 0.000003081042208072371 0 0.0000020015844913121653 0 0
          0.0000019261515776664018 -0.0000029389377004807042 0 0.0000020086898847984802 0 0
          -0.0000016881581465510997 0.000002429837300005344 0 0.0000017676273859321644 0 0
          0.0000015166778186553873 -0.000002291050541697315 0 0.0000017734510394586639 0 0
          -0.0000012942311365116144 0.0000018430491298682128 0 0.0000015330443880431759 0 0
          0.0000011264594663995542 -0.0000017089995549279813 0 0.00000154148957200016 0 0
          -9.588137466765012e-7 0.000001339052404097929 0 0.0000012981325069637779 0 0
          7.969775717570071e-7 -0.0000012123717551826285 0 0.000001310375207717248 0 0
          -6.751589975151351e-7 9.138369077010822e-7 0 0.0000010629365144602685 0 0
          5.225528310059957e-7 -7.981554429326021e-7 0 0.0000010802293661278461 0 0
          -4.445539153186129e-7 5.676003404231356e-7 0 8.247551263295114e-7 0 0
          3.0475081527758796e-7 -4.669941449098048e-7 0 8.47214492045298e-7 0 0
          -2.644435709298065e-7 2.989390747304421e-7 0 5.732796650378605e-7 0 0
          1.4418415096584258e-7 -2.2032380322944967e-7 0 6.047374343743085e-7 0 0
          -1.4690920313586986e-7 1.1402558854067825e-7 0 3.0877331443831603e-7 0 0
          4.79187717838947e-8 -6.099675570192531e-8 0 3.366280416989437e-7 0 0
          <InformationKey name="L2_NORM_RANGE" location="vtkDataArray" length="2">
            <Value index="0">
              3.4544934702e-07
            </Value>
            <Value index="1">
              5.3412755883e-06
            </Value>
          </InformationKey>
        </DataArray>
        <DataArray type="Float64" Name="Btraction" NumberOfComponents="3" format="ascii" RangeMin="0.15643278026748111" RangeMax="18.914209616855793">
          12.868851224765397 -4.190937823878164 0 0.13995433533194682 0.0698856119956534 0
          17.13073780241873 0.0192334249962866 0 0.1856705843898314 0.0733812812294198 0
          17.23829470071958 0.0710674474952956 0 0.26485581451221585 0.15278984954742283 0
          17.401210499347684 0.16892542515610287 0 0.4460237627279996 0.2261160764415997 0
          17.622578494693727 0.33322736348540505 0 0.7414972231567579 0.281445847300118 0
          17.836182025608963 0.5860018158845468 0 1.1506702190248856 0.3061329950157855 0
          18.03588927433772 0.9415493772039611 0 1.7375030477182887 0.28662914434308945 0
          18.376116105870004 1.481916736741948 0 2.634853828885329 0.1881086584444071 0
          18.757127745067102 2.432587960505054 0 4.09549708117659 -0.24033471105754073 0
          15.524063910765163 1.4621262380548603 0 6.800701780534356 -1.3242082663744417 0
          <InformationKey name="L2_NORM_RANGE" location="vtkDataArray" length="2">
            <Value index="0">
              0.15643278027
            </Value>
            <Value index="1">
              18.914209617
            </Value>
          </InformationKey>
        </DataArray>
      </CellData>
      <Points>
        <DataArray type="Float32" Name="Points" NumberOfComponents="3" format="ascii" RangeMin="1.4500000476837158" RangeMax="1.6286497021092299">
          1.4500000476837158 0.5 0 1.4500000476837158 0.44999998807907104 0
          1.4500000476837158 0.4000000059604645 0 1.5 0.5 0
          1.4500000476837158 0.3499999940395355 0 1.5 0.44999998807907104 0
          1.4500000476837158 0.30000001192092896 0 1.5 0.4000000059604645 0
          1.5499999523162842 0.5 0 1.4500000476837158 0.25 0
          1.5 0.3499999940395355 0 1.5499999523162842 0.44999998807907104 0
          1.5 0.30000001192092896 0 1.4500000476837158 0.20000000298023224 0
          1.5499999523162842 0.4000000059604645 0 1.5 0.25 0
          1.5499999523162842 0.3499999940395355 0 1.4500000476837158 0.15000000596046448 0
          1.5 0.20000000298023224 0 1.5499999523162842 0.30000001192092896 0
          1.4500000476837158 0.10000000149011612 0 1.5499999523162842 0.25 0
          1.5 0.15000000596046448 0 1.4500000476837158 0.05000000074505806 0
          1.5499999523162842 0.20000000298023224 0 1.5 0.10000000149011612 0
          1.4500000476837158 0 0 1.5499999523162842 0.15000000596046448 0
          1.5 0.05000000074505806 0 1.5499999523162842 0.10000000149011612 0
          1.5 0 0 1.5499999523162842 0.05000000074505806 0
          1.5499999523162842 0 0
          <InformationKey name="L2_NORM_RANGE" location="vtkDataArray" length="2">
            <Value index="0">
              1.4500000477
            </Value>
            <Value index="1">
              1.6286497021
            </Value>
          </InformationKey>
        </DataArray>
      </Points>
      <Cells>
        <DataArray type="Int64" Name="connectivity" format="ascii" RangeMin="0" RangeMax="32">
          30 28 23 26 32 31
          28 30 28 25 20 23
          31 29 25 28 25 22
          17 20 29 27 22 25
          22 18 13 17 27 24
          18 22 18 15 9 13
          24 21 15 18 15 12
          6 9 21 19 12 15
          12 10 4 6 19 16
          10 12 10 7 2 4
          16 14 7 10 7 5
          1 2 14 11 5 7
          5 3 0 1 11 8
          3 5
        </DataArray>
        <DataArray type="Int64" Name="offsets" format="ascii" RangeMin="4" RangeMax="80">
          4 8 12 16 20 24
          28 32 36 40 44 48
          52 56 60 64 68 72
          76 80
        </DataArray>
        <DataArray type="UInt8" Name="types" format="ascii" RangeMin="9" RangeMax="9">
          9 9 9 9 9 9
          9 9 9 9 9 9
          9 9 9 9 9 9
          9 9
        </DataArray>
      </Cells>
    </Piece>
  </UnstructuredGrid>
</VTKFile>
