<?xml version="1.0"?>
<VTKFile type="UnstructuredGrid" version="0.1" byte_order="LittleEndian" header_type="UInt32" compressor="vtkZLibDataCompressor">
  <UnstructuredGrid>
    <Piece NumberOfPoints="15" NumberOfCells="12">
      <PointData>
        <DataArray type="Float64" Name="Velocity" NumberOfComponents="3" format="ascii" RangeMin="0" RangeMax="0.06403429033979904">
          0.012717969661497974 -0.009965011067470109 0 0 0 0
          0 0 0 0.04048915838588635 -0.011637488805301688 0
          0 0 0 0.018059373506690513 -0.02328058546099082 0
          0.04032442397803071 -0.01957949819204111 0 0.017108184709274 -0.011836256559737829 0
          0.03327129637140602 -0.007872528710237803 0 0 0 0
          0 0 0 0 0 0
          0.004592700180633569 -0.06386937798642234 0 0.020809237730384456 -0.03709024962419216 0
          0 0 0
          <InformationKey name="L2_NORM_RANGE" location="vtkDataArray" length="2">
            <Value index="0">
              0
            </Value>
            <Value index="1">
              0.06403429034
            </Value>
          </InformationKey>
        </DataArray>
        <DataArray type="Float64" Name="Pressure" format="ascii" RangeMin="5.667684603673676" RangeMax="6.459597588815325">
          6.214673190089996 6.221597541933822 6.459597588815325 5.973959997993414 5.993170912866876 6.194743954690987
          5.934498206590535 6.174001553019048 5.900584117163203 5.7409639849552025 5.78573482014578 5.667684603673676
          6.15600877500704 5.872884118961718 5.8554408408756045
        </DataArray>
        <DataArray type="Float64" Name="Temperature" format="ascii" RangeMin="239.99999999993796" RangeMax="959.9999999997517">
          644.6231810032698 959.9999999997517 959.9999999997516 641.7872867331832 959.9999999997517 591.269097574713
          589.651509978998 597.4945607432843 598.9278698057836 663.1076629306596 959.9999999997517 574.5630526132622
          559.9243093929448 564.8875360173215 239.99999999993796
        </DataArray>
        <DataArray type="Float64" Name="Density" format="ascii" RangeMin="0.3641272016928719" RangeMax="1.4565088067714875">
          0.5422735699343296 0.3641272016928719 0.36412720169287194 0.5446697384804907 0.3641272016928719 0.5912064659880112
          0.5928283192856018 0.5850465202398005 0.5836464309774403 0.5271574031887186 0.3641272016928719 0.6083964362747781
          0.6243024418854982 0.6188171827787465 1.4565088067714875
        </DataArray>
        <DataArray type="Float64" Name="stream" format="ascii" RangeMin="-0.0024165923600547273" RangeMax="0.01711733288523329">
          -0.0018850838785079765 -0.0024165923600547273 -0.0024165923600547273 0.0023650829863214127 -0.0004343887265932335 0.0005073908565588545
          0.005711886007493275 0.0037943193865264645 0.008700375134347767 0.0034286373796626906 0 0.00877581923777583
          0.010806575082695297 0.012872857908646474 0.01711733288523329
        </DataArray>
      </PointData>
      <CellData>
        <DataArray type="UInt8" Name="vtkGhostType" format="ascii" RangeMin="0" RangeMax="0">
          0 0 0 0 0 0
          0 0 0 0 0 0
        </DataArray>
        <DataArray type="Float64" Name="blocks" format="ascii" RangeMin="0" RangeMax="0.3333333333333334">
          0 0 0 0.3333333333333333 0.3333333333333334 0.3333333333333333
          0 0 0.3333333333333334 0 0.3333333333333333 0.3333333333333333
        </DataArray>
      </CellData>
      <Points>
        <DataArray type="Float32" Name="Points" NumberOfComponents="3" format="ascii" RangeMin="0.4000000059604645" RangeMax="1.280624854933515">
          0.20000000298023224 0.6000000238418579 0 0 0.6000000238418579 0
          0 0.4000000059604645 0 0.20000000298023224 0.800000011920929 0
          0 0.800000011920929 0 0.4000000059604645 0.6000000238418579 0
          0.4000000059604645 0.800000011920929 0 0.6000000238418579 0.6000000238418579 0
          0.6000000238418579 0.800000011920929 0 0.20000000298023224 1 0
          0 1 0 0.4000000059604645 1 0
          0.800000011920929 0.6000000238418579 0 0.800000011920929 0.800000011920929 0
          1 0.800000011920929 0
          <InformationKey name="L2_NORM_RANGE" location="vtkDataArray" length="2">
            <Value index="0">
              0.40000000596
            </Value>
            <Value index="1">
              1.2806248549
            </Value>
          </InformationKey>
        </DataArray>
      </Points>
      <Cells>
        <DataArray type="Int64" Name="connectivity" format="ascii" RangeMin="0" RangeMax="14">
          0 1 2 0 3 1
          3 4 1 5 6 0
          6 3 0 7 8 5
          3 9 4 9 10 4
          6 11 3 11 9 3
          12 13 7 14 13 12
        </DataArray>
        <DataArray type="Int64" Name="offsets" format="ascii" RangeMin="3" RangeMax="36">
          3 6 9 12 15 18
          21 24 27 30 33 36
        </DataArray>
        <DataArray type="UInt8" Name="types" format="ascii" RangeMin="5" RangeMax="5">
          5 5 5 5 5 5
          5 5 5 5 5 5
        </DataArray>
      </Cells>
    </Piece>
  </UnstructuredGrid>
</VTKFile>
