<?xml version="1.0"?>
<VTKFile type="UnstructuredGrid" version="0.1" byte_order="LittleEndian" header_type="UInt32" compressor="vtkZLibDataCompressor">
  <UnstructuredGrid>
    <Piece NumberOfPoints="10" NumberOfCells="8">
      <PointData>
        <DataArray type="Float64" Name="Velocity" NumberOfComponents="3" format="ascii" RangeMin="0" RangeMax="0.0448265091057972">
          0.03327129637140602 -0.007872528710237803 0 0.04032442397803071 -0.01957949819204111 0
          0.018059373506690513 -0.02328058546099082 0 0.020809237730384456 -0.03709024962419216 0
          0.017108184709274 -0.011836256559737829 0 0 0 0
          0 0 0 0 0 0
          0 0 0 0 0 0
          <InformationKey name="L2_NORM_RANGE" location="vtkDataArray" length="2">
            <Value index="0">
              0
            </Value>
            <Value index="1">
              0.044826509106
            </Value>
          </InformationKey>
        </DataArray>
        <DataArray type="Float64" Name="Pressure" format="ascii" RangeMin="5.522669000841988" RangeMax="6.194743954690987">
          5.900584117163203 5.934498206590535 6.194743954690987 5.872884118961718 6.174001553019048 5.6215458186164176
          5.667684603673676 5.582619334025055 5.8554408408756045 5.522669000841988
        </DataArray>
        <DataArray type="Float64" Name="Temperature" format="ascii" RangeMin="239.9999999999379" RangeMax="598.9278698057836">
          598.9278698057836 589.651509978998 591.269097574713 564.8875360173215 597.4945607432843 598.8408856535829
          574.5630526132622 554.1457301913833 239.99999999993796 239.9999999999379
        </DataArray>
        <DataArray type="Float64" Name="Density" format="ascii" RangeMin="0.5836464309774403" RangeMax="1.4565088067714878">
          0.5836464309774403 0.5928283192856018 0.5912064659880112 0.6188171827787465 0.5850465202398005 0.5837312080713225
          0.6083964362747781 0.6308126086333636 1.4565088067714875 1.4565088067714878
        </DataArray>
        <DataArray type="Float64" Name="stream" format="ascii" RangeMin="0.0005073908565588545" RangeMax="0.01792949378895517">
          0.008700375134347767 0.005711886007493275 0.0005073908565588545 0.012872857908646474 0.0037943193865264645 0.011971584953368567
          0.00877581923777583 0.01515080038123714 0.01711733288523329 0.01792949378895517
        </DataArray>
      </PointData>
      <CellData>
        <DataArray type="UInt8" Name="vtkGhostType" format="ascii" RangeMin="0" RangeMax="0">
          0 0 0 0 0 0
          0 0
        </DataArray>
        <DataArray type="Float64" Name="blocks" format="ascii" RangeMin="0.6666666666666667" RangeMax="1.3333333333333335">
          0.6666666666666667 0.6666666666666667 1 0.6666666666666667 1 1
          1 1.3333333333333335
        </DataArray>
      </CellData>
      <Points>
        <DataArray type="Float32" Name="Points" NumberOfComponents="3" format="ascii" RangeMin="0.7211102782366936" RangeMax="1.4142135623730951">
          0.6000000238418579 0.800000011920929 0 0.4000000059604645 0.800000011920929 0
          0.4000000059604645 0.6000000238418579 0 0.800000011920929 0.800000011920929 0
          0.6000000238418579 0.6000000238418579 0 0.6000000238418579 1 0
          0.4000000059604645 1 0 0.800000011920929 1 0
          1 0.800000011920929 0 1 1 0
          <InformationKey name="L2_NORM_RANGE" location="vtkDataArray" length="2">
            <Value index="0">
              0.72111027824
            </Value>
            <Value index="1">
              1.4142135624
            </Value>
          </InformationKey>
        </DataArray>
      </Points>
      <Cells>
        <DataArray type="Int64" Name="connectivity" format="ascii" RangeMin="0" RangeMax="9">
          0 1 2 3 0 4
          0 5 1 5 6 1
          3 7 0 7 5 0
          8 9 3 9 7 3
        </DataArray>
        <DataArray type="Int64" Name="offsets" format="ascii" RangeMin="3" RangeMax="24">
          3 6 9 12 15 18
          21 24
        </DataArray>
        <DataArray type="UInt8" Name="types" format="ascii" RangeMin="5" RangeMax="5">
          5 5 5 5 5 5
          5 5
        </DataArray>
      </Cells>
    </Piece>
  </UnstructuredGrid>
</VTKFile>
