<?xml version="1.0"?>
<VTKFile type="UnstructuredGrid" version="0.1" byte_order="LittleEndian" header_type="UInt32" compressor="vtkZLibDataCompressor">
  <UnstructuredGrid>
    <Piece NumberOfPoints="9" NumberOfCells="7">
      <PointData>
        <DataArray type="Float64" Name="Velocity" NumberOfComponents="3" format="ascii" RangeMin="0" RangeMax="0.06991902298906849">
          0 0 0 -0.009338499462223426 -0.05920520828214437 0
          0 0 0 -0.001265024778320252 -0.005022460923696848 0
          0 0 0 0 0 0
          0 0 0 -0.0006408872629074525 -0.06991608569751406 0
          0 0 0
          <InformationKey name="L2_NORM_RANGE" location="vtkDataArray" length="2">
            <Value index="0">
              0
            </Value>
            <Value index="1">
              0.069919022989
            </Value>
          </InformationKey>
        </DataArray>
        <DataArray type="Float64" Name="Pressure" format="ascii" RangeMin="6.1484990952242695" RangeMax="7.053655282617529">
          6.996988094402702 6.714098164874332 6.994776813553173 6.717384996446164 7.053655282617529 6.711779857351861
          6.430771807156886 6.434967291158449 6.1484990952242695
        </DataArray>
        <DataArray type="Float64" Name="Temperature" format="ascii" RangeMin="239.99999999993787" RangeMax="601.8962844579548">
          558.8709843746745 555.9280747174143 601.8962844579548 597.7976106344573 239.9999999999379 239.99999999993787
          239.99999999993793 558.1035934617177 239.99999999993798
        </DataArray>
        <DataArray type="Float64" Name="Density" format="ascii" RangeMin="0.5807680204237664" RangeMax="1.456508806771488">
          0.625479088015626 0.628790179022266 0.5807680204237664 0.5847499344369539 1.4565088067714878 1.456508806771488
          1.4565088067714875 0.6263391200491246 1.4565088067714873
        </DataArray>
        <DataArray type="Float64" Name="stream" format="ascii" RangeMin="0.001605016813618177" RangeMax="0.016427706643176717">
          0.005750204595733004 0.005220379854371306 0.001935629116550177 0.001605016813618177 0.005750204595733004 0.007187723552227067
          0.011658798682262328 0.00899462677905672 0.016427706643176717
        </DataArray>
      </PointData>
      <CellData>
        <DataArray type="UInt8" Name="vtkGhostType" format="ascii" RangeMin="0" RangeMax="0">
          0 0 0 0 0 0
          0
        </DataArray>
        <DataArray type="Float64" Name="blocks" format="ascii" RangeMin="2.6666666666666665" RangeMax="3">
          3 2.666666666666667 3 3 3 2.666666666666667
          2.6666666666666665
        </DataArray>
      </CellData>
      <Points>
        <DataArray type="Float32" Name="Points" NumberOfComponents="3" format="ascii" RangeMin="0.6000000238418579" RangeMax="1.1661903912355949">
          0.800000011920929 0 0 0.800000011920929 0.20000000298023224 0
          0.6000000238418579 0 0 0.6000000238418579 0.20000000298023224 0
          1 0 0 1 0.20000000298023224 0
          1 0.4000000059604645 0 0.800000011920929 0.4000000059604645 0
          1 0.6000000238418579 0
          <InformationKey name="L2_NORM_RANGE" location="vtkDataArray" length="2">
            <Value index="0">
              0.60000002384
            </Value>
            <Value index="1">
              1.1661903912
            </Value>
          </InformationKey>
        </DataArray>
      </Points>
      <Cells>
        <DataArray type="Int64" Name="connectivity" format="ascii" RangeMin="0" RangeMax="8">
          0 1 2 1 3 2
          4 5 0 5 1 0
          5 6 1 6 7 1
          6 8 7
        </DataArray>
        <DataArray type="Int64" Name="offsets" format="ascii" RangeMin="3" RangeMax="21">
          3 6 9 12 15 18
          21
        </DataArray>
        <DataArray type="UInt8" Name="types" format="ascii" RangeMin="5" RangeMax="5">
          5 5 5 5 5 5
          5
        </DataArray>
      </Cells>
    </Piece>
  </UnstructuredGrid>
</VTKFile>
