<?xml version="1.0"?>
<VTKFile type="UnstructuredGrid" version="0.1" byte_order="LittleEndian" header_type="UInt32" compressor="vtkZLibDataCompressor">
  <UnstructuredGrid>
    <Piece NumberOfPoints="36" NumberOfCells="53">
      <PointData>
        <DataArray type="Float64" Name="nsi_BC" NumberOfComponents="3" format="ascii" RangeMin="0" RangeMax="100">
          0 0 0 0 0 0
          0 0 0 0 0 0
          0 0 0 0 0 0
          0 0 0 0 0 0
          0 0 0 0 0 0
          0 0 0 0 0 0
          0 0 0 0 0 0
          0 0 0 0 0 0
          0 0 0 0 0 0
          0 0 0 0 0 0
          0 0 0 0 0 0
          0 0 0 0 0 0
          0 0 0 0 0 0
          0 0 0 0 0 0
          0 0 0 0 0 0
          0 0 0 100 0 0
          100 0 0 100 0 0
          100 0 0 100 0 0
          <InformationKey name="L2_NORM_RANGE" location="vtkDataArray" length="2">
            <Value index="0">
              0
            </Value>
            <Value index="1">
              100
            </Value>
          </InformationKey>
        </DataArray>
        <DataArray type="Float64" Name="nsi_FIXNO" NumberOfComponents="3" format="ascii" RangeMin="1" RangeMax="1.4142135623730951">
          0 1 0 -1 -1 0
          0 1 0 -1 -1 0
          0 1 0 -1 -1 0
          0 1 0 -1 -1 0
          0 1 0 -1 -1 0
          -1 -1 0 0 1 0
          0 1 0 -1 -1 0
          -1 -1 0 -1 -1 0
          -1 -1 0 1 1 0
          -1 -1 0 1 1 0
          -1 -1 0 1 1 0
          0 1 0 0 1 0
          -1 -1 0 -1 -1 0
          -1 -1 0 -1 -1 0
          -1 -1 0 0 1 0
          -1 -1 0 1 1 0
          1 1 0 1 1 0
          1 1 0 1 1 0
          <InformationKey name="L2_NORM_RANGE" location="vtkDataArray" length="2">
            <Value index="0">
              1
            </Value>
            <Value index="1">
              1.4142135624
            </Value>
          </InformationKey>
        </DataArray>
        <DataArray type="Float64" Name="Velocity" NumberOfComponents="3" format="ascii" RangeMin="0" RangeMax="100.00000000000001">
          0.29588605565072085 0 0 0.2972837143277846 0.0033267038185454383 0
          0.37875108612968666 0 0 0.324621492537536 0.00961120765848717 0
          0.7089861931495637 0 0 0.5082337969890586 0.026014509328508604 0
          0.28364712012056004 0 0 0.5317401022097764 -0.015524807598223882 0
          0.3536961797352469 0 0 1.1075282343113664 0.09950688848370327 0
          0.7519659431184796 -0.04340206283660775 0 0.4915945623841949 0 0
          0.5798092353009746 0 0 0.952096826244346 -0.06563464706879443 0
          0.6580375053625027 -0.061772433541743596 0 1.172063739117277 -0.12247681913303397 0
          3.07207484941745 0.38198601013751105 0 0 0 0
          3.597568926093477 -0.17095143762422044 0 0 0 0
          -1.5517921573770657 -0.7410709944842812 0 0 0 0
          1.7332765965140653 0 0 8.063061332837385 0 0
          -0.24914290886615997 0.08186219865457148 0 -1.17298412454991 -0.3843823722294281 0
          -1.779259311139289 0.41080300512257417 0 13.050488630288118 0.8430200415234793 0
          13.616446516588397 0.4287985401735813 0 2.2808742868676446 0 0
          13.360006099661852 0.7812874947438556 0 100 0 0
          99.99999999999999 0 0 100 0 0
          100 0 0 100.00000000000001 0 0
          <InformationKey name="L2_NORM_RANGE" location="vtkDataArray" length="2">
            <Value index="0">
              0
            </Value>
            <Value index="1">
              100
            </Value>
          </InformationKey>
        </DataArray>
        <DataArray type="Float64" Name="Pressure" format="ascii" RangeMin="0" RangeMax="141136.4656160169">
          0 0 9871.84573132383 8158.95571775309 20681.130078416307 18011.41539755359
          0 14946.673469374224 9592.294172899334 30148.64100059071 24778.82676620267 37199.95786995721
          20554.614208889736 36817.05943016041 47108.07321516166 33846.80952788097 46790.28535508771 47607.02987223196
          48143.88699375117 60933.14584875636 64238.68293256184 60566.21681744911 37763.65782853874 65922.09493009055
          52094.23476278661 75191.10286578642 69283.77554258343 89164.85992344303 95051.23551867974 66975.23093643716
          88683.2026865093 129502.85159940687 131086.2355039482 141136.4656160169 136346.37472166217 123019.59362822973
        </DataArray>
      </PointData>
      <CellData>
        <DataArray type="UInt8" Name="vtkGhostType" format="ascii" RangeMin="0" RangeMax="0">
          0 0 0 0 0 0
          0 0 0 0 0 0
          0 0 0 0 0 0
          0 0 0 0 0 0
          0 0 0 0 0 0
          0 0 0 0 0 0
          0 0 0 0 0 0
          0 0 0 0 0 0
          0 0 0 0 0
        </DataArray>
      </CellData>
      <Points>
        <DataArray type="Float32" Name="Points" NumberOfComponents="3" format="ascii" RangeMin="0" RangeMax="17.88854381999832">
          16 0 0 16 3.9845468997955322 0
          11.453479766845703 0 0 12.217379570007324 3.3701679706573486 0
          8.368659973144531 0 0 8.773821830749512 2.904007911682129 0
          16 8 0 9.623482704162598 5.332449913024902 0
          11.453479766845703 8 0 6.414117813110352 2.3587939739227295 0
          7.382616996765137 4.82568883895874 0 5.579105854034424 0 0
          8.368659973144531 8 0 5.491477966308594 4.187727928161621 0
          4.728445053100586 1.5895390510559082 0 5.938247203826904 6.11269998550415 0
          4.574699878692627 3.0045900344848633 0 4.5 4 0
          4.574699878692627 4.995409965515137 0 3.75 3.5669870376586914 0
          3.413969039916992 2.5047481060028076 0 3.75 4.433012962341309 0
          5.579105854034424 8 0 2.789552927017212 0 0
          4.232917785644531 6.667374134063721 0 2.888730049133301 3.850830078125 0
          3.079637050628662 5.158480167388916 0 1.7905149459838867 2.8673698902130127 0
          1.5482569932937622 4.574378967285156 0 2.789552927017212 8 0
          1.5213489532470703 6.280706882476807 0 0 0 0
          0 2.162787914276123 0 0 4.072348117828369 0
          0 5.883182048797607 0 0 8 0
          <InformationKey name="L2_NORM_RANGE" location="vtkDataArray" length="2">
            <Value index="0">
              0
            </Value>
            <Value index="1">
              17.88854382
            </Value>
          </InformationKey>
        </DataArray>
      </Points>
      <Cells>
        <DataArray type="Int64" Name="connectivity" format="ascii" RangeMin="0" RangeMax="35">
          17 19 16 19 21 25
          21 17 18 16 19 20
          25 21 26 18 17 13
          17 16 13 19 25 20
          21 18 26 16 20 14
          25 26 28 18 13 15
          14 20 23 28 26 30
          15 13 10 16 14 9
          25 28 27 18 15 24
          30 26 24 9 14 11
          24 15 22 10 13 9
          27 28 33 33 28 34
          28 30 34 34 30 35
          16 9 13 18 24 26
          15 10 12 25 27 20
          11 14 23 33 32 27
          27 32 23 24 22 29
          24 29 30 20 27 23
          32 31 23 22 15 12
          35 30 29 9 11 4
          10 9 5 5 9 4
          10 5 7 5 4 2
          7 5 3 10 7 12
          8 12 7 8 3 1
          3 5 2 3 2 0
          7 3 8 0 1 3
          1 6 8
        </DataArray>
        <DataArray type="Int64" Name="offsets" format="ascii" RangeMin="3" RangeMax="159">
          3 6 9 12 15 18
          21 24 27 30 33 36
          39 42 45 48 51 54
          57 60 63 66 69 72
          75 78 81 84 87 90
          93 96 99 102 105 108
          111 114 117 120 123 126
          129 132 135 138 141 144
          147 150 153 156 159
        </DataArray>
        <DataArray type="UInt8" Name="types" format="ascii" RangeMin="5" RangeMax="5">
          5 5 5 5 5 5
          5 5 5 5 5 5
          5 5 5 5 5 5
          5 5 5 5 5 5
          5 5 5 5 5 5
          5 5 5 5 5 5
          5 5 5 5 5 5
          5 5 5 5 5 5
          5 5 5 5 5
        </DataArray>
      </Cells>
    </Piece>
  </UnstructuredGrid>
</VTKFile>
