<?xml version="1.0"?>
<VTKFile type="UnstructuredGrid" version="0.1" byte_order="LittleEndian" header_type="UInt32" compressor="vtkZLibDataCompressor">
  <UnstructuredGrid>
    <Piece NumberOfPoints="135" NumberOfCells="305">
      <PointData>
        <DataArray type="Float64" Name="nsi_BC" NumberOfComponents="3" format="ascii" RangeMin="0" RangeMax="0">
          0 0 0 0 0 0
          0 0 0 0 0 0
          0 0 0 0 0 0
          0 0 0 0 0 0
          0 0 0 0 0 0
          0 0 0 0 0 0
          0 0 0 0 0 0
          0 0 0 0 0 0
          0 0 0 0 0 0
          0 0 0 0 0 0
          0 0 0 0 0 0
          0 0 0 0 0 0
          0 0 0 0 0 0
          0 0 0 0 0 0
          0 0 0 0 0 0
          0 0 0 0 0 0
          0 0 0 0 0 0
          0 0 0 0 0 0
          0 0 0 0 0 0
          0 0 0 0 0 0
          0 0 0 0 0 0
          0 0 0 0 0 0
          0 0 0 0 0 0
          0 0 0 0 0 0
          0 0 0 0 0 0
          0 0 0 0 0 0
          0 0 0 0 0 0
          0 0 0 0 0 0
          0 0 0 0 0 0
          0 0 0 0 0 0
          0 0 0 0 0 0
          0 0 0 0 0 0
          0 0 0 0 0 0
          0 0 0 0 0 0
          0 0 0 0 0 0
          0 0 0 0 0 0
          0 0 0 0 0 0
          0 0 0 0 0 0
          0 0 0 0 0 0
          0 0 0 0 0 0
          0 0 0 0 0 0
          0 0 0 0 0 0
          0 0 0 0 0 0
          0 0 0 0 0 0
          0 0 0 0 0 0
          0 0 0 0 0 0
          0 0 0 0 0 0
          0 0 0 0 0 0
          0 0 0 0 0 0
          0 0 0 0 0 0
          0 0 0 0 0 0
          0 0 0 0 0 0
          0 0 0 0 0 0
          0 0 0 0 0 0
          0 0 0 0 0 0
          0 0 0 0 0 0
          0 0 0 0 0 0
          0 0 0 0 0 0
          0 0 0 0 0 0
          0 0 0 0 0 0
          0 0 0 0 0 0
          0 0 0 0 0 0
          0 0 0 0 0 0
          0 0 0 0 0 0
          0 0 0 0 0 0
          0 0 0 0 0 0
          0 0 0 0 0 0
          0 0 0
          <InformationKey name="L2_NORM_RANGE" location="vtkDataArray" length="2">
            <Value index="0">
              0
            </Value>
            <Value index="1">
              0
            </Value>
          </InformationKey>
        </DataArray>
        <DataArray type="Float64" Name="nsi_FIXNO" NumberOfComponents="3" format="ascii" RangeMin="1" RangeMax="1.7320508075688772">
          0 1 0 0 1 0
          -1 -1 -1 -1 -1 -1
          -1 -1 -1 0 1 0
          -1 -1 -1 0 1 0
          -1 -1 -1 -1 -1 -1
          -1 -1 -1 0 1 0
          -1 -1 -1 -1 -1 -1
          -1 -1 -1 -1 -1 -1
          0 1 0 -1 -1 -1
          -1 -1 -1 -1 -1 -1
          -1 -1 -1 -1 -1 -1
          -1 -1 -1 -1 -1 -1
          -1 -1 -1 0 1 0
          -1 -1 -1 -1 -1 -1
          -1 -1 -1 0 1 0
          -1 -1 -1 -1 -1 -1
          -1 -1 -1 -1 -1 -1
          -1 -1 -1 0 1 0
          -1 -1 -1 -1 -1 -1
          -1 -1 -1 -1 -1 -1
          -1 -1 -1 -1 -1 -1
          0 1 0 -1 -1 -1
          -1 -1 -1 -1 -1 -1
          -1 -1 -1 -1 -1 -1
          -1 -1 -1 -1 -1 -1
          -1 -1 -1 -1 -1 -1
          -1 -1 -1 -1 -1 -1
          0 1 0 -1 -1 -1
          -1 -1 -1 0 1 0
          0 1 0 -1 -1 -1
          -1 -1 -1 0 1 0
          0 1 0 -1 -1 -1
          0 1 0 -1 -1 -1
          -1 -1 -1 -1 -1 -1
          -1 -1 -1 -1 -1 -1
          -1 -1 -1 -1 -1 -1
          -1 -1 -1 0 1 0
          -1 -1 -1 -1 -1 -1
          -1 -1 -1 -1 -1 -1
          -1 -1 -1 0 1 0
          -1 -1 -1 -1 -1 -1
          -1 -1 -1 -1 -1 -1
          -1 -1 -1 -1 -1 -1
          -1 -1 -1 -1 -1 -1
          -1 -1 -1 -1 -1 -1
          -1 -1 -1 -1 -1 -1
          -1 -1 -1 -1 -1 -1
          -1 -1 -1 0 1 0
          0 1 0 -1 -1 -1
          -1 -1 -1 0 1 0
          -1 -1 -1 0 1 0
          -1 -1 -1 0 1 0
          0 1 0 -1 -1 -1
          -1 -1 -1 -1 -1 -1
          -1 -1 -1 -1 -1 -1
          0 1 0 -1 -1 -1
          0 1 0 -1 -1 -1
          0 1 0 -1 -1 -1
          -1 -1 -1 -1 -1 -1
          -1 -1 -1 -1 -1 -1
          -1 -1 -1 -1 -1 -1
          -1 -1 -1 0 1 0
          0 1 0 -1 -1 -1
          0 1 0 -1 -1 -1
          -1 -1 -1 -1 -1 -1
          0 1 0 -1 -1 -1
          -1 -1 -1 0 1 0
          -1 -1 -1
          <InformationKey name="L2_NORM_RANGE" location="vtkDataArray" length="2">
            <Value index="0">
              1
            </Value>
            <Value index="1">
              1.7320508076
            </Value>
          </InformationKey>
        </DataArray>
        <DataArray type="Float64" Name="Velocity" NumberOfComponents="3" format="ascii" RangeMin="0.1948748592776857" RangeMax="0.21887577485558973">
          0.1979953872697779 0 -7.830798922097224e-10 0.2002606241234445 0 -1.1203651026177816e-9
          0.19892427968535106 -0.000004496511132343498 -7.146576760342243e-10 0.20026716394892807 0.000005325830503104223 -9.701194661176037e-10
          0.20027387536686292 0.000011059804730258798 -9.277173535929265e-10 0.19828704495132987 0 -1.606979004513884e-9
          0.19800255427556626 -0.0000021187357755342605 -9.089437739094679e-10 0.19799538682463536 0 -6.246877877854565e-10
          0.1995530567319059 0.000010720602407122053 -1.787960377062173e-9 0.20027289617116212 -9.81873464146799e-7 -1.2359368689285543e-9
          0.20026716409992995 0.000005325892026014834 -8.689166435246705e-10 0.1982870457362741 0 -1.4008196065114248e-9
          0.19829385299690377 -0.000001257137014644698 -1.701429588774029e-9 0.1980025551187885 -0.000002118648116764339 -7.745041037744825e-10
          0.19891930704743263 -7.477629359761658e-10 -9.422687485608498e-10 0.20027208784767567 -4.577136460380552e-10 -1.2842000229865543e-9
          0.20107602917302425 0 -2.6421880993548775e-9 0.20108457952731912 0.00001723756674922049 -2.579397095815459e-9
          0.20027710515745653 -3.8150224926328893e-10 -1.2578323159410667e-9 0.20089221439041238 0.00002868898916759213 -2.584184262902431e-9
          0.19829385311082734 -0.0000012570231549475132 -1.5474007685654171e-9 0.20109220650774298 -0.000003672591818109037 -2.7096429820191286e-9
          0.19954929778868946 -1.7016327160637218e-10 -1.94210661883588e-9 0.20027208784692804 -4.275986994836312e-10 -1.1938082598180936e-9
          0.20108457872600058 0.00001723771150990002 -2.2692314040440753e-9 0.19917419399075073 0 -3.0488189153894536e-9
          0.19800255324216232 0.000002117510181785405 -1.2309299487546876e-9 0.20109128392876055 -1.18195390553222e-10 -2.6454336030646466e-9
          0.20027289468533918 9.813034536271584e-7 -1.505296067116004e-9 0.20107602940141192 0 -2.323514728946173e-9
          0.20197862724272989 0.000026455967575193825 -3.437804443812894e-9 0.20089592017261135 1.2497758592132033e-11 -2.640764538653702e-9
          0.20089221456514766 0.000028688990086383166 -2.4050913721439733e-9 0.19917536803657093 -0.000002855294138605823 -3.0589672214498006e-9
          0.1980025539297637 0.000002117567858583512 -1.1193099118807243e-9 0.19917419311590728 0 -2.6625782760076884e-9
          0.19829385098236715 0.0000012567963758345363 -1.736263700429262e-9 0.20109128352494884 1.3665768126350733e-11 -2.4015533389176166e-9
          0.2010922070777581 -0.000003672608973640915 -2.38946974330926e-9 0.19917536863297913 -0.000002855152555460294 -2.6570336865553866e-9
          0.1982938522664047 0.0000012568355802174902 -1.6591694312526793e-9 0.2019682220778699 1.542127526440244e-10 -3.4678651123897135e-9
          0.19635776191016427 0 -3.8602563214461125e-9 0.19634265490613254 0.00000571847104712794 -3.7070228596686255e-9
          0.20109220404731648 0.000003672620189807917 -2.6580237521536485e-9 0.20197862789336515 0.00002645600607785827 -3.2199905611153143e-9
          0.19892427769075835 0.000004495757685869665 -1.2688581125203785e-9 0.20026716088671573 -0.0000053263068170602094 -1.4756514624696177e-9
          0.19488186454256892 0.00003567894459018539 -3.3422772339843284e-9 0.2002738737018076 -0.00001106014769957542 -1.5141863931190427e-9
          0.19632925064243512 -0.000011993979401504313 -3.935028619815521e-9 0.19634265466976372 0.000005718591212640945 -2.7334625513629097e-9
          0.19955305207140145 -0.000010720773837810746 -2.0427588297482758e-9 0.19633095441786877 3.7002221819609015e-10 -3.5301514102510784e-9
          0.1963577615331146 0 -3.4479267344081454e-9 0.19487485950146238 4.1015510492197833e-10 -3.3206574824238823e-9
          0.19488186426308185 0.000035679102474082315 -3.6510805653250254e-9 0.19799538479878176 0 -1.3545891608422967e-9
          0.2188757748555897 0 -3.4537393259206312e-9 0.19633095413124715 4.767514371194905e-10 -2.6373693733657097e-9
          0.21642253454824878 -0.000013068657668587242 -3.816903356200173e-9 0.20026061970005588 0 -1.6443403444554433e-9
          0.19828704296680963 0 -1.6128286319860652e-9 0.21885249881005608 -0.000009187372195994606 -3.434957765633702e-9
          0.2188757738190672 0 -2.632861676674878e-9 0.2188524959679221 -0.000009187101282965618 -2.5296252088656773e-9
          0.21642253300956535 -0.000013068524786750682 -3.854180942734664e-9 0.2164557591950218 6.9734092805782e-10 -3.861265355939558e-9
          0.19917536689067797 0.00000285541389594295 -2.213797756994573e-9 0.20109220357364224 0.0000036726298961443385 -2.218437445375865e-9
          0.20089221183251788 -0.000028689014689469445 -2.173612529586917e-9 0.19829385210919595 0.000001256712670575175 -1.8881085548049226e-9
          0.2010845750114012 -0.00001723762211138671 -1.9558167309241924e-9 0.19828704284624685 0 -1.553518346286513e-9
          0.19955305328180473 -0.000010720778649278492 -1.7387455422473651e-9 0.2002728936746052 9.81324114416556e-7 -1.441665791215521e-9
          0.20027387395062707 -0.00001106018908959975 -1.3940921424620813e-9 0.19800255412119422 0.0000021175800933631242 -1.2810149703668665e-9
          0.20026715973139236 -0.0000053263164437920535 -1.427115214247928e-9 0.1979953851946226 0 -1.2171226440254327e-9
          0.1989242777569206 0.000004495836727091444 -1.2164882102733322e-9 0.19917536697159421 0.0000028555015586230427 -2.777318346678511e-9
          0.20089221192549936 -0.000028688974806772145 -2.1356279206981266e-9 0.20108457679799338 -0.000017237703562049692 -2.200596254379393e-9
          0.1963292503685934 -0.000011993910835856757 -3.4270394119283952e-9 0.19487485927768566 3.603210060819456e-10 -3.0731376987761314e-9
          0.1991753686815923 -0.0000028552888067678975 -3.2536808164066776e-9 0.20196822268913664 1.3073447408135575e-10 -2.7704686358237404e-9
          0.20089591959510836 1.0243486904103359e-10 -2.348562827052635e-9 0.1982938533373242 -0.0000012570568089867786 -1.8158852051034957e-9
          0.19954929769062868 -1.1901867150066206e-10 -1.7902277738523635e-9 0.20027289584378122 -9.818217435130979e-7 -1.2444151994263813e-9
          0.2002771047641612 -2.9745938247639083e-10 -1.2838536490912619e-9 0.19800255453869472 -0.0000021186029890385117 -1.1139407363136954e-9
          0.19891930703314753 -6.330203623309926e-10 -1.0955763741068877e-9 0.19917419424894015 0 -3.371176759930054e-9
          0.19828704594813734 0 -1.7324787840063636e-9 0.20108457981092306 0.00001723763538073541 -2.68024088698086e-9
          0.1995530582940786 0.000010720612108688803 -1.6184002939849177e-9 0.20026062439790698 0 -1.1838989612021475e-9
          0.2002738753700936 0.000011059839014366364 -1.0855603966573913e-9 0.19799538718632725 0 -1.005078224544092e-9
          0.19892428023047956 -0.000004496472306248118 -8.750321077402677e-10 0.1991741902900431 0 -2.5784171525776096e-9
          0.20107602506500533 0 -2.3541060680886812e-9 0.21885249623560193 -0.000009187244578046308 -4.512652688468113e-9
          0.21885249523323286 0.00000918836494306275 -1.968698697771098e-9 0.21645575608991213 6.378948942010186e-10 -3.2998910854473708e-9
          0.21885249733328233 0.000009188350730274412 -3.103490498563048e-9 0.1963292494135808 0.000011994565007355798 -3.4364481746730307e-9
          0.2188757733889088 0 -4.666688426528846e-9 0.19634265478091936 0.000005718521202877234 -4.704187006509667e-9
          0.1979953872697779 0 -7.830798922097224e-10 0.20026716394892807 0.000005325830503104223 -9.701194661176037e-10
          0.19828704495132987 0 -1.606979004513884e-9 0.19800255427556626 -0.0000021187357755342605 -9.089437739094679e-10
          0.19829385299690377 -0.000001257137014644698 -1.701429588774029e-9 0.20027208784767567 -4.577136460380552e-10 -1.2842000229865543e-9
          0.20108457952731912 0.00001723756674922049 -2.579397095815459e-9 0.19800255324216232 0.000002117510181785405 -1.2309299487546876e-9
          0.20109128392876055 -1.18195390553222e-10 -2.6454336030646466e-9 0.19829385098236715 0.0000012567963758345363 -1.736263700429262e-9
          0.20026716088671573 -0.0000053263068170602094 -1.4756514624696177e-9 0.19799538479878176 0 -1.3545891608422967e-9
          0.19828704296680963 0 -1.6128286319860652e-9 0.20108457679799338 -0.000017237703562049692 -2.200596254379393e-9
          0.19917419399075073 0 -3.0488189153894536e-9 0.19917536803657093 -0.000002855294138605823 -3.0589672214498006e-9
          0.19634265490613254 0.00000571847104712794 -3.7070228596686255e-9 0.19633095441786877 3.7002221819609015e-10 -3.5301514102510784e-9
          0.2188757748555897 0 -3.4537393259206312e-9 0.21885249881005608 -0.000009187372195994606 -3.434957765633702e-9
          0.19917536697159421 0.0000028555015586230427 -2.777318346678511e-9 0.1991741902900431 0 -2.5784171525776096e-9
          0.21885249733328233 0.000009188350730274412 -3.103490498563048e-9
          <InformationKey name="L2_NORM_RANGE" location="vtkDataArray" length="2">
            <Value index="0">
              0.19487485928
            </Value>
            <Value index="1">
              0.21887577486
            </Value>
          </InformationKey>
        </DataArray>
        <DataArray type="Float64" Name="Pressure" format="ascii" RangeMin="0" RangeMax="0.1684194306897932">
          0 0.06731307024776374 0 0.0673314428928212 0.06822122074230143 0.12758595964504338
          0 0 0.12400087972504584 0.06733255066981372 0.06733144307325527 0.12758595915899837
          0.12761268518239877 0 0 0.0673325864778277 0.15909074297260212 0.15913667021069683
          0.0682213608645037 0.16189592634400246 0.12761268477906829 0.15914260937177593 0.12400546738097863 0.06733258667057984
          0.15913667082924832 0.1683645489313347 0 0.15914310299774884 0.0673325508401683 0.15909074513435
          0.16032109245269624 0.16189789745914693 0.1618959276048605 0.16841943044837676 0 0.16836454864970324
          0.12761268540033496 0.15914310406554322 0.1591426116225274 0.16841943035030513 0.12761268515264998 0.16032551921028465
          0.11014266567768181 0.11022894366528248 0.15914260985993087 0.16032109250092377 0 0.06733144324267372
          0.11827629942797525 0.06822122115474683 0.11022279046793469 0.11022894712910258 0.12400088030416333 0.11021975437360225
          0.11014267099609791 0.1182641741653563 0.11827630299910244 0 0 0.11021975780112424
          0 0.06731307097794592 0.1275859601081002 0 0 0
          0 0 0.16841943066415332 0.15914261216881959 0.16189592820724732 0.12761268511331372
          0.15913667158668487 0.12758595978900408 0.12400087991539098 0.0673325514779556 0.06822122143192842 0
          0.06733144353956222 0 0 0.1684194306897932 0.16189592698980604 0.159136670572038
          0.11022279621070763 0.11826417778055762 0.16841943029804146 0.16032551908680084 0.16189789879221167 0.12761268489285277
          0.12400546714369971 0.06733255123590436 0.06822136121560429 0 0 0.16836454859371786
          0.1275859592723148 0.1591366709672616 0.12400087950173823 0.06731307089778255 0.06822122108771432 0
          0 0.1683645493061575 0.15909074369986392 0 0 0
          0 0.11022279070229105 0 0.11022894690379752 0 0.0673314428928212
          0.12758595964504338 0 0.12761268518239877 0.0673325864778277 0.15913667021069683 0
          0.15914310299774884 0.12761268540033496 0.06733144324267372 0 0.1275859601081002 0.159136670572038
          0.1683645489313347 0.16841943044837676 0.11022894366528248 0.11021975437360225 0 0
          0.1684194306897932 0.1683645493061575 0
        </DataArray>
      </PointData>
      <CellData>
        <DataArray type="UInt8" Name="vtkGhostType" format="ascii" RangeMin="0" RangeMax="0">
          0 0 0 0 0 0
          0 0 0 0 0 0
          0 0 0 0 0 0
          0 0 0 0 0 0
          0 0 0 0 0 0
          0 0 0 0 0 0
          0 0 0 0 0 0
          0 0 0 0 0 0
          0 0 0 0 0 0
          0 0 0 0 0 0
          0 0 0 0 0 0
          0 0 0 0 0 0
          0 0 0 0 0 0
          0 0 0 0 0 0
          0 0 0 0 0 0
          0 0 0 0 0 0
          0 0 0 0 0 0
          0 0 0 0 0 0
          0 0 0 0 0 0
          0 0 0 0 0 0
          0 0 0 0 0 0
          0 0 0 0 0 0
          0 0 0 0 0 0
          0 0 0 0 0 0
          0 0 0 0 0 0
          0 0 0 0 0 0
          0 0 0 0 0 0
          0 0 0 0 0 0
          0 0 0 0 0 0
          0 0 0 0 0 0
          0 0 0 0 0 0
          0 0 0 0 0 0
          0 0 0 0 0 0
          0 0 0 0 0 0
          0 0 0 0 0 0
          0 0 0 0 0 0
          0 0 0 0 0 0
          0 0 0 0 0 0
          0 0 0 0 0 0
          0 0 0 0 0 0
          0 0 0 0 0 0
          0 0 0 0 0 0
          0 0 0 0 0 0
          0 0 0 0 0 0
          0 0 0 0 0 0
          0 0 0 0 0 0
          0 0 0 0 0 0
          0 0 0 0 0 0
          0 0 0 0 0 0
          0 0 0 0 0 0
          0 0 0 0 0
        </DataArray>
      </CellData>
      <Points>
        <DataArray type="Float32" Name="Points" NumberOfComponents="3" format="ascii" RangeMin="0.3333333134651184" RangeMax="1.7320508075688772">
          1 1 1 0.8333333134651184 1 0.8333333134651184
          1 0.8333333134651184 0.8333333134651184 0.8333333134651184 0.8333333134651184 1
          0.8333333134651184 0.8333333134651184 0.8333333134651184 0.6666666865348816 1 1
          1 0.6666666865348816 1 1 1 0.6666666865348816
          0.6666666865348816 0.8333333134651184 0.8333333134651184 0.8333333134651184 0.6666666865348816 0.8333333134651184
          0.8333333134651184 0.8333333134651184 0.6666666865348816 0.6666666865348816 1 0.6666666865348816
          0.6666666865348816 0.6666666865348816 1 1 0.6666666865348816 0.6666666865348816
          1 0.5 0.8333333134651184 0.8333333134651184 0.5 1
          0.5 1 0.8333333134651184 0.5 0.8333333134651184 1
          0.8333333134651184 0.5 0.8333333134651184 0.5 0.8333333134651184 0.8333333134651184
          0.6666666865348816 0.6666666865348816 0.6666666865348816 0.5 0.6666666865348816 0.8333333134651184
          0.6666666865348816 0.5 0.8333333134651184 0.8333333134651184 0.5 0.6666666865348816
          0.5 0.8333333134651184 0.6666666865348816 0.3333333134651184 1 1
          1 0.3333333134651184 1 0.5 0.5 1
          0.8333333134651184 0.3333333134651184 0.8333333134651184 0.5 1 0.5
          0.3333333134651184 0.8333333134651184 0.8333333134651184 0.5 0.5 0.8333333134651184
          0.5 0.8333333134651184 0.5 0.3333333134651184 0.6666666865348816 1
          1 0.3333333134651184 0.6666666865348816 0.3333333134651184 1 0.6666666865348816
          0.6666666865348816 0.3333333134651184 1 0.5 0.5 0.6666666865348816
          0.5 0.6666666865348816 0.5 0.3333333134651184 0.6666666865348816 0.6666666865348816
          0.6666666865348816 0.3333333134651184 0.6666666865348816 0.3333333134651184 0.5 0.8333333134651184
          0.16666670143604279 1 0.8333333134651184 0.16666670143604279 0.8333333134651184 1
          0.5 0.3333333134651184 0.8333333134651184 0.3333333134651184 0.8333333134651184 0.5
          1 0.16666670143604279 0.8333333134651184 0.8333333134651184 0.16666670143604279 1
          0.16666670143604279 0.8333333134651184 0.8333333134651184 0.8333333134651184 0.16666670143604279 0.8333333134651184
          0.16666670143604279 0.6666666865348816 0.8333333134651184 0.16666670143604279 0.8333333134651184 0.6666666865348816
          0.6666666865348816 0.16666670143604279 0.8333333134651184 0.16666670143604279 0.5 1
          0.16666670143604279 1 0.5 0.16666670143604279 0.5 0.8333333134651184
          0.16666670143604279 0.8333333134651184 0.5 1 0 1
          0 1 1 0.16666670143604279 0.5 0.6666666865348816
          0 0.8333333134651184 0.8333333134651184 0.8333333134651184 0 0.8333333134651184
          0.6666666865348816 0 1 0 0.6666666865348816 1
          0 1 0.6666666865348816 0 0.6666666865348816 0.6666666865348816
          0 0.8333333134651184 0.5 0 0.5 0.8333333134651184
          0.3333333134651184 0.3333333134651184 0.6666666865348816 0.5 0.3333333134651184 0.5
          0.5 0.16666670143604279 0.5 0.6666666865348816 0.3333333134651184 0.3333333134651184
          0.5 0.16666670143604279 0.6666666865348816 0.6666666865348816 0 0.6666666865348816
          0.6666666865348816 0.16666670143604279 0.5 0.8333333134651184 0.3333333134651184 0.5
          0.8333333134651184 0.16666670143604279 0.5 1 0.3333333134651184 0.3333333134651184
          0.8333333134651184 0.16666670143604279 0.6666666865348816 1 0 0.6666666865348816
          1 0.16666670143604279 0.5 0.3333333134651184 0.3333333134651184 1
          0.5 0.16666670143604279 0.8333333134651184 0.5 0.16666670143604279 1
          0.16666670143604279 0.6666666865348816 0.5 0.16666670143604279 0.5 0.5
          0.3333333134651184 0.6666666865348816 0.3333333134651184 0.3333333134651184 0.5 0.5
          0.5 0.5 0.5 0.6666666865348816 0.6666666865348816 0.3333333134651184
          0.6666666865348816 0.5 0.5 0.8333333134651184 0.6666666865348816 0.5
          0.8333333134651184 0.5 0.5 1 0.6666666865348816 0.3333333134651184
          1 0.5 0.5 0.3333333134651184 1 0.3333333134651184
          0.6666666865348816 1 0.3333333134651184 0.5 0.8333333134651184 0.3333333134651184
          0.6666666865348816 0.8333333134651184 0.5 0.8333333134651184 1 0.5
          0.8333333134651184 0.8333333134651184 0.5 1 1 0.3333333134651184
          1 0.8333333134651184 0.5 0.3333333134651184 0 1
          0.5 0 0.8333333134651184 0 0.6666666865348816 0.3333333134651184
          0 0.3333333134651184 0.6666666865348816 0 0.5 0.5
          0 0.3333333134651184 1 0.16666670143604279 0.3333333134651184 0.8333333134651184
          0 1 0.3333333134651184 0.16666670143604279 0.8333333134651184 0.3333333134651184
          1 1 0 0.8333333134651184 0.8333333134651184 0
          0.6666666865348816 1 0 1 0.6666666865348816 0
          0.6666666865348816 0.6666666865348816 0 0.8333333134651184 0.5 0
          0.5 0.8333333134651184 0 1 0.3333333134651184 0
          0.5 0.5 0 0.6666666865348816 0.3333333134651184 0
          0.8333333134651184 0.16666670143604279 0 1 0 0
          0.6666666865348816 0 0 0.5 0.16666670143604279 0
          0.3333333134651184 1 0 0.3333333134651184 0.6666666865348816 0
          0.16666670143604279 0.8333333134651184 0 0.16666670143604279 0.5 0
          0 1 0 0 0.6666666865348816 0
          0.3333333134651184 0.3333333134651184 0 0.3333333134651184 0 0
          0 0.3333333134651184 0
          <InformationKey name="L2_NORM_RANGE" location="vtkDataArray" length="2">
            <Value index="0">
              0.33333331347
            </Value>
            <Value index="1">
              1.7320508076
            </Value>
          </InformationKey>
        </DataArray>
      </Points>
      <Cells>
        <DataArray type="Int64" Name="connectivity" format="ascii" RangeMin="0" RangeMax="111">
          40 68 69 70 71 40
          69 70 68 40 72 70
          40 73 72 70 40 71
          74 70 73 40 74 70
          34 40 75 76 40 71
          75 76 77 34 75 76
          40 34 78 76 34 79
          78 76 73 40 78 76
          71 40 74 76 40 73
          74 76 34 77 80 76
          79 34 80 76 36 81
          44 82 81 68 44 82
          68 40 44 82 40 36
          44 82 81 36 83 82
          36 62 83 82 73 40
          72 82 40 68 72 82
          36 40 52 82 40 73
          52 82 62 36 52 82
          26 36 28 49 36 40
          28 49 40 34 28 49
          34 26 28 49 36 26
          47 49 26 57 47 49
          57 62 47 49 62 36
          47 49 40 36 52 49
          36 62 52 49 73 40
          52 49 40 73 78 49
          79 34 78 49 34 40
          78 49 26 34 46 49
          34 79 46 49 79 57
          46 49 57 26 46 49
          39 65 84 85 86 39
          84 85 65 39 59 85
          39 68 59 85 39 86
          87 85 68 39 87 85
          20 39 38 88 39 86
          38 88 86 89 38 88
          89 20 38 88 39 20
          37 88 20 40 37 88
          40 68 37 88 68 39
          37 88 86 39 87 88
          39 68 87 88 20 89
          90 88 71 40 90 88
          40 20 90 88 68 40
          69 88 40 71 69 88
          13 20 91 92 20 89
          91 92 93 13 91 92
          20 13 23 92 13 34
          23 92 34 40 23 92
          40 20 23 92 89 20
          90 92 20 40 90 92
          40 71 90 92 13 93
          94 92 77 34 94 92
          34 13 94 92 40 34
          75 92 34 77 75 92
          71 40 75 92 33 63
          50 55 65 39 50 55
          39 33 50 55 63 33
          53 55 33 81 53 55
          68 39 59 55 39 65
          59 55 33 39 41 55
          39 68 41 55 68 81
          41 55 81 33 41 55
          12 33 21 31 33 39
          21 31 39 20 21 31
          20 12 21 31 33 12
          27 31 12 36 27 31
          36 81 27 31 81 33
          27 31 39 33 41 31
          33 81 41 31 81 68
          41 31 68 39 41 31
          39 68 37 31 68 40
          37 31 40 20 37 31
          20 39 37 31 12 20
          22 31 20 40 22 31
          40 36 22 31 36 12
          22 31 81 36 44 31
          36 40 44 31 40 68
          44 31 68 81 44 31
          6 12 9 18 12 20
          9 18 20 13 9 18
          13 6 9 18 12 6
          15 18 6 26 15 18
          26 36 15 18 36 12
          15 18 20 12 22 18
          12 36 22 18 36 40
          22 18 40 20 22 18
          20 40 23 18 40 34
          23 18 34 13 23 18
          13 20 23 18 6 13
          14 18 13 34 14 18
          34 26 14 18 26 6
          14 18 36 26 28 18
          26 34 28 18 34 40
          28 18 40 36 28 18
          35 64 54 56 95 35
          54 56 64 35 51 56
          35 39 51 56 39 65
          51 56 35 95 45 56
          95 86 45 56 86 39
          45 56 39 35 45 56
          65 39 84 56 39 86
          84 56 11 35 29 32
          35 95 29 32 95 96
          29 32 96 11 29 32
          35 11 24 32 11 20
          24 32 20 39 24 32
          39 35 24 32 95 35
          45 32 35 39 45 32
          39 86 45 32 86 95
          45 32 95 86 97 32
          86 89 97 32 89 96
          97 32 96 95 97 32
          11 96 98 32 96 89
          98 32 89 20 98 32
          20 11 98 32 39 20
          38 32 20 89 38 32
          89 86 38 32 86 39
          38 32 7 11 99 100
          11 96 99 100 101 7
          99 100 11 7 10 100
          7 13 10 100 13 20
          10 100 20 11 10 100
          96 11 98 100 11 20
          98 100 20 89 98 100
          7 101 102 100 93 13
          102 100 13 7 102 100
          20 13 91 100 13 93
          91 100 89 20 91 100
          25 58 42 48 58 64
          42 48 64 35 42 48
          35 25 42 48 58 25
          43 48 25 33 43 48
          33 63 43 48 63 58
          43 48 64 58 60 48
          58 63 60 48 63 65
          60 48 65 64 60 48
          64 65 51 48 65 39
          51 48 39 35 51 48
          35 64 51 48 25 35
          30 48 35 39 30 48
          39 33 30 48 33 25
          30 48 63 33 50 48
          33 39 50 48 39 65
          50 48 65 63 50 48
          5 25 16 19 25 35
          16 19 35 11 16 19
          11 5 16 19 25 5
          17 19 5 12 17 19
          12 33 17 19 33 25
          17 19 35 25 30 19
          25 33 30 19 33 39
          30 19 39 35 30 19
          35 39 24 19 39 20
          24 19 20 11 24 19
          11 35 24 19 5 11
          8 19 11 20 8 19
          20 12 8 19 12 5
          8 19 33 12 21 19
          12 20 21 19 20 39
          21 19 39 33 21 19
          0 5 1 4 5 11
          1 4 11 7 1 4
          7 0 1 4 5 0
          3 4 0 6 3 4
          6 12 3 4 12 5
          3 4 11 5 8 4
          5 12 8 4 12 20
          8 4 20 11 8 4
          11 20 10 4 20 13
          10 4 13 7 10 4
          7 11 10 4 0 7
          2 4 7 13 2 4
          13 6 2 4 6 0
          2 4 12 6 9 4
          6 13 9 4 13 20
          9 4 20 12 9 4
          62 103 83 82 73 62
          52 82 103 62 104 82
          62 73 104 82 62 73
          52 49 73 79 78 49
          62 57 61 49 57 79
          61 49 79 73 61 49
          73 62 61 49 65 105
          84 85 68 106 59 85
          106 65 59 85 105 65
          107 85 65 106 107 85
          63 65 50 55 81 108
          53 55 108 63 53 55
          65 63 67 55 63 108
          67 55 108 106 67 55
          106 65 67 55 65 106
          59 55 106 68 59 55
          108 81 109 55 81 68
          109 55 68 106 109 55
          106 108 109 55 64 110
          54 56 110 95 54 56
          65 64 51 56 110 64
          66 56 64 65 66 56
          65 105 66 56 105 110
          66 56 110 105 111 56
          105 86 111 56 86 95
          111 56 95 110 111 56
          86 105 84 56 105 65
          84 56
        </DataArray>
        <DataArray type="Int64" Name="offsets" format="ascii" RangeMin="4" RangeMax="1220">
          4 8 12 16 20 24
          28 32 36 40 44 48
          52 56 60 64 68 72
          76 80 84 88 92 96
          100 104 108 112 116 120
          124 128 132 136 140 144
          148 152 156 160 164 168
          172 176 180 184 188 192
          196 200 204 208 212 216
          220 224 228 232 236 240
          244 248 252 256 260 264
          268 272 276 280 284 288
          292 296 300 304 308 312
          316 320 324 328 332 336
          340 344 348 352 356 360
          364 368 372 376 380 384
          388 392 396 400 404 408
          412 416 420 424 428 432
          436 440 444 448 452 456
          460 464 468 472 476 480
          484 488 492 496 500 504
          508 512 516 520 524 528
          532 536 540 544 548 552
          556 560 564 568 572 576
          580 584 588 592 596 600
          604 608 612 616 620 624