<?xml version="1.0"?>
<VTKFile type="UnstructuredGrid" version="0.1" byte_order="LittleEndian" header_type="UInt32" compressor="vtkZLibDataCompressor">
  <UnstructuredGrid>
    <Piece NumberOfPoints="135" NumberOfCells="305">
      <PointData>
        <DataArray type="Float64" Name="nsi_BC" NumberOfComponents="3" format="ascii" RangeMin="0" RangeMax="0">
          0 0 0 0 0 0
          0 0 0 0 0 0
          0 0 0 0 0 0
          0 0 0 0 0 0
          0 0 0 0 0 0
          0 0 0 0 0 0
          0 0 0 0 0 0
          0 0 0 0 0 0
          0 0 0 0 0 0
          0 0 0 0 0 0
          0 0 0 0 0 0
          0 0 0 0 0 0
          0 0 0 0 0 0
          0 0 0 0 0 0
          0 0 0 0 0 0
          0 0 0 0 0 0
          0 0 0 0 0 0
          0 0 0 0 0 0
          0 0 0 0 0 0
          0 0 0 0 0 0
          0 0 0 0 0 0
          0 0 0 0 0 0
          0 0 0 0 0 0
          0 0 0 0 0 0
          0 0 0 0 0 0
          0 0 0 0 0 0
          0 0 0 0 0 0
          0 0 0 0 0 0
          0 0 0 0 0 0
          0 0 0 0 0 0
          0 0 0 0 0 0
          0 0 0 0 0 0
          0 0 0 0 0 0
          0 0 0 0 0 0
          0 0 0 0 0 0
          0 0 0 0 0 0
          0 0 0 0 0 0
          0 0 0 0 0 0
          0 0 0 0 0 0
          0 0 0 0 0 0
          0 0 0 0 0 0
          0 0 0 0 0 0
          0 0 0 0 0 0
          0 0 0 0 0 0
          0 0 0 0 0 0
          0 0 0 0 0 0
          0 0 0 0 0 0
          0 0 0 0 0 0
          0 0 0 0 0 0
          0 0 0 0 0 0
          0 0 0 0 0 0
          0 0 0 0 0 0
          0 0 0 0 0 0
          0 0 0 0 0 0
          0 0 0 0 0 0
          0 0 0 0 0 0
          0 0 0 0 0 0
          0 0 0 0 0 0
          0 0 0 0 0 0
          0 0 0 0 0 0
          0 0 0 0 0 0
          0 0 0 0 0 0
          0 0 0 0 0 0
          0 0 0 0 0 0
          0 0 0 0 0 0
          0 0 0 0 0 0
          0 0 0 0 0 0
          0 0 0
          <InformationKey name="L2_NORM_RANGE" location="vtkDataArray" length="2">
            <Value index="0">
              0
            </Value>
            <Value index="1">
              0
            </Value>
          </InformationKey>
        </DataArray>
        <DataArray type="Float64" Name="nsi_FIXNO" NumberOfComponents="3" format="ascii" RangeMin="1" RangeMax="1.7320508075688772">
          0 1 0 0 1 0
          -1 -1 -1 -1 -1 -1
          -1 -1 -1 0 1 0
          -1 -1 -1 0 1 0
          -1 -1 -1 -1 -1 -1
          -1 -1 -1 0 1 0
          -1 -1 -1 -1 -1 -1
          -1 -1 -1 -1 -1 -1
          0 1 0 -1 -1 -1
          -1 -1 -1 -1 -1 -1
          -1 -1 -1 -1 -1 -1
          -1 -1 -1 -1 -1 -1
          -1 -1 -1 0 1 0
          -1 -1 -1 -1 -1 -1
          -1 -1 -1 0 1 0
          -1 -1 -1 -1 -1 -1
          -1 -1 -1 -1 -1 -1
          -1 -1 -1 0 1 0
          -1 -1 -1 -1 -1 -1
          -1 -1 -1 -1 -1 -1
          -1 -1 -1 -1 -1 -1
          0 1 0 -1 -1 -1
          -1 -1 -1 -1 -1 -1
          -1 -1 -1 -1 -1 -1
          -1 -1 -1 -1 -1 -1
          -1 -1 -1 -1 -1 -1
          -1 -1 -1 -1 -1 -1
          0 1 0 -1 -1 -1
          -1 -1 -1 0 1 0
          0 1 0 -1 -1 -1
          -1 -1 -1 0 1 0
          0 1 0 -1 -1 -1
          0 1 0 -1 -1 -1
          -1 -1 -1 -1 -1 -1
          -1 -1 -1 -1 -1 -1
          -1 -1 -1 -1 -1 -1
          -1 -1 -1 0 1 0
          -1 -1 -1 -1 -1 -1
          -1 -1 -1 -1 -1 -1
          -1 -1 -1 0 1 0
          -1 -1 -1 -1 -1 -1
          -1 -1 -1 -1 -1 -1
          -1 -1 -1 -1 -1 -1
          -1 -1 -1 -1 -1 -1
          -1 -1 -1 -1 -1 -1
          -1 -1 -1 -1 -1 -1
          -1 -1 -1 -1 -1 -1
          -1 -1 -1 0 1 0
          0 1 0 -1 -1 -1
          -1 -1 -1 0 1 0
          -1 -1 -1 0 1 0
          -1 -1 -1 0 1 0
          0 1 0 -1 -1 -1
          -1 -1 -1 -1 -1 -1
          -1 -1 -1 -1 -1 -1
          0 1 0 -1 -1 -1
          0 1 0 -1 -1 -1
          0 1 0 -1 -1 -1
          -1 -1 -1 -1 -1 -1
          -1 -1 -1 -1 -1 -1
          -1 -1 -1 -1 -1 -1
          -1 -1 -1 0 1 0
          0 1 0 -1 -1 -1
          0 1 0 -1 -1 -1
          -1 -1 -1 -1 -1 -1
          0 1 0 -1 -1 -1
          -1 -1 -1 0 1 0
          -1 -1 -1
          <InformationKey name="L2_NORM_RANGE" location="vtkDataArray" length="2">
            <Value index="0">
              1
            </Value>
            <Value index="1">
              1.7320508076
            </Value>
          </InformationKey>
        </DataArray>
        <DataArray type="Float64" Name="Velocity" NumberOfComponents="3" format="ascii" RangeMin="0.09612910298830377" RangeMax="0.11468979789838586">
          0.09712205330460999 0 -4.722019918411137e-10 0.09944030459106717 0 -6.305666274839335e-10
          0.09821845749917622 -9.57719944469657e-11 -5.409133797317965e-10 0.09944030466325438 -1.0990800329052862e-10 -5.324976386053858e-10
          0.0992523914747618 -1.3247533538407e-11 -5.59092323297137e-10 0.09749314587395307 0 -5.605833544842935e-10
          0.09712205297361894 -2.16728812601602e-11 -4.667903410809113e-10 0.09712205311869691 0 -4.5668528652497646e-10
          0.09870213081198001 -1.4532311592333944e-10 -7.188422548004728e-10 0.09944030441081886 4.044378200989954e-11 -6.24719167935916e-10
          0.09944030440400825 -1.046871056642978e-10 -4.911091137081507e-10 0.09749314631085287 0 -4.011335096267946e-10
          0.09749314628114954 1.3571155853925419e-10 -5.503525106604173e-10 0.09712205362824712 -3.014975512090971e-11 -4.467762146618787e-10
          0.09821845757250953 -9.521803326035801e-11 -5.189683840905161e-10 0.09944030407819474 -3.931785888817556e-11 -5.155427290032632e-10
          0.10026999898775678 0 -7.855083063356046e-10 0.10026999950766585 -1.7112991766767807e-10 -6.561147131332752e-10
          0.09925239122148524 -2.8763218139334932e-11 -5.283816968554477e-10 0.09983710183988548 7.24450051228074e-11 -6.019123485716386e-10
          0.09749314622920302 1.450781321250952e-10 -4.0064706372295485e-10 0.10026999889951753 3.134416881675837e-10 -7.773596008378393e-10
          0.09870213052862263 1.1282606002011145e-11 -6.917032991683232e-10 0.0994403036744321 -2.9720361215348165e-11 -4.561065186532543e-10
          0.10026999864372081 -1.4851466609559212e-10 -3.3748510498518184e-10 0.0993132019315731 0 -6.413648513002354e-10
          0.09712205282476717 -9.170888439992866e-11 -4.345645914004206e-10 0.1002699990650123 1.976063902199637e-12 -6.28687183746338e-10
          0.0994403039406474 -5.6811955329329844e-11 -5.694820036761953e-10 0.10026999896685439 0 -6.134574025622307e-10
          0.10129595132103598 -1.9747317215045124e-10 -8.66498608640847e-10 0.09983710159689638 3.6957269649757584e-11 -5.372830592866343e-10
          0.09983710171349928 8.150373033280862e-11 -6.222012639111433e-10 0.09931320196389008 4.186709206441926e-10 -6.237321446540414e-10
          0.09712205332956692 -9.170295766213338e-11 -4.046151339297093e-10 0.09931320152284256 0 -2.3459304720745366e-10
          0.09749314563116006 -1.2637702241905865e-10 -4.807533594313534e-10 0.10026999848911944 2.5239126045374748e-11 -3.167487858713113e-10
          0.10026999900163776 3.2201560115991663e-10 -6.111640611394934e-10 0.09931320233223144 4.253232819232064e-10 -2.0656003596802415e-10
          0.09749314638040901 -1.2585272047387487e-10 -3.461991497471279e-10 0.10129595171711434 3.693733602253643e-11 -8.310717183552408e-10
          0.09672707752149837 0 -9.756798445497248e-10 0.09672707808720128 -2.7637603079958533e-10 -6.96365468846678e-10
          0.10026999809254865 -2.6061768064090665e-10 -7.019820074713503e-10 0.10129595177372094 -1.843478137353441e-10 -6.654778362547901e-10
          0.09821845693092761 -1.6325234026230158e-11 -4.967914165571071e-10 0.0994403035153137 6.437792727399399e-11 -4.4568145886663093e-10
          0.09612910301644433 2.5297950112015127e-10 -4.0608780637932727e-10 0.0992523913884439 3.234479128349019e-11 -4.748988530575403e-10
          0.09672707815247371 8.878952959299465e-10 -9.657468665470847e-10 0.0967270784006186 -2.5884166784912656e-10 2.000438124118675e-10
          0.09870212877741878 1.367749283655649e-10 -6.374040588997011e-10 0.09672707783391754 5.396448284721786e-11 -6.156060732187943e-10
          0.09672707745920955 0 -6.342953590266157e-10 0.09612910298830377 6.97197734355532e-11 -3.9357089949751145e-10
          0.09612910312298831 3.1889323518408456e-10 -6.565755270757708e-10 0.09712205267494903 0 -3.788149352248089e-10
          0.11468979789838586 0 -6.183578468488337e-10 0.09672707807440284 7.729194797636744e-11 2.0826138159852566e-10
          0.11217699648551248 -3.120833419452298e-10 -1.0345415721002128e-9 0.09944030280155525 0 -5.479482490676972e-10
          0.09749314591179366 0 -4.126781947731204e-10 0.11468979689522403 6.648987648866735e-10 -5.999075398484949e-10
          0.11468979723679412 0 -2.8801502612574417e-11 0.114689795306681 7.00037073904405e-10 -2.6115536796228614e-12
          0.11217699494713113 -3.105129129681759e-10 -6.554098830543775e-10 0.1121769949639441 8.556370803398602e-11 -1.0296036649767837e-9
          0.09931320203232064 -3.7923067004228685e-10 -9.215399799008704e-11 0.10026999770911817 -2.706790631724583e-10 -5.163109622202979e-10
          0.09983710112405648 -6.575697898949063e-11 -4.70279005963798e-10 0.09749314625015375 -1.489472657430881e-10 -6.188402910326577e-10
          0.10026999754669148 1.7395068360421482e-10 -1.6235533595883974e-10 0.09749314583273469 0 -2.733509031709763e-10
          0.09870212970053471 1.378266020408999e-10 -4.5404474390407343e-10 0.09944030298605461 -6.737674868096853e-11 -4.4790771976378527e-10
          0.09925239131969166 -9.936906092675695e-12 -4.02205609656678e-10 0.09712205336272656 -7.947605120936816e-11 -4.42639383432109e-10
          0.09944030262431539 6.219889961124356e-11 -3.956055151984302e-10 0.09712205294312194 0 -3.6480080793639423e-10
          0.09821845710076953 1.0979177335328487e-11 -3.9876184824352084e-10 0.09931320199236497 -3.5699200699133663e-10 -5.319911285057348e-10
          0.09983710133510407 -5.092613725558212e-11 -3.8475871219978516e-10 0.1002699989838858 1.7768529985323982e-10 -4.672612088795564e-10
          0.09672707822963768 9.100027016942496e-10 -6.402256618665749e-10 0.09612910327293316 4.710883839646005e-11 -5.545778034587042e-10
          0.09931320235153716 4.138454278286243e-10 -9.816806812832743e-10 0.10129595227678076 3.1332218125455334e-11 -5.563637856472495e-10
          0.09983710109859212 5.348320434094116e-11 -5.512446730593802e-10 0.09749314636715374 1.5161767741084447e-10 -6.538565293758057e-10
          0.09870213059113704 9.507987598887088e-12 -5.211700543506242e-10 0.09944030384605941 5.2390629290796974e-11 -4.852380960157992e-10
          0.09925239079243661 -1.16632324728799e-11 -4.4355161731995406e-10 0.09712205318648368 -1.4233862878905451e-11 -4.846285722299598e-10
          0.09821845771439627 -8.25818800595836e-11 -4.451439595268806e-10 0.09931320202185599 0 -1.0105910663113059e-9
          0.09749314637988653 0 -6.579627534455129e-10 0.10026999952011006 -1.5680251910652502e-10 -9.278931219434565e-10
          0.09870213145555642 -1.2950665269256168e-10 -5.503968144828093e-10 0.09944030455075134 0 -4.996430901195336e-10
          0.0992523912358147 -1.6958382111771538e-11 -4.946222397257523e-10 0.0971220532838798 0 -4.850773844790349e-10
          0.09821845798356547 -8.99317807587322e-11 -4.764385409963577e-10 0.09931320104612931 0 -4.923232041082552e-10
          0.10026999774821964 0 -6.279137292830888e-10 0.114689795342132 6.726029835839942e-10 -1.2225252105727652e-9
          0.11468979546172797 -5.57060253271995e-10 9.881986817532502e-11 0.11217699235766995 7.87401088151813e-11 -5.777847627568709e-10
          0.11468979650113471 -5.473865320617933e-10 -5.402923402876029e-10 0.09672707806724126 -8.130037286827101e-10 -8.434576856245798e-10
          0.11468979695247256 0 -1.269624161578391e-9 0.09672707824211477 -2.688332911808443e-10 -1.5616414161092736e-9
          0.09712205330460999 0 -4.722019918411137e-10 0.09944030466325438 -1.0990800329052862e-10 -5.324976386053858e-10
          0.09749314587395307 0 -5.605833544842935e-10 0.09712205297361894 -2.16728812601602e-11 -4.667903410809113e-10
          0.09749314628114954 1.3571155853925419e-10 -5.503525106604173e-10 0.09944030407819474 -3.931785888817556e-11 -5.155427290032632e-10
          0.10026999950766585 -1.7112991766767807e-10 -6.561147131332752e-10 0.09712205282476717 -9.170888439992866e-11 -4.345645914004206e-10
          0.1002699990650123 1.976063902199637e-12 -6.28687183746338e-10 0.09749314563116006 -1.2637702241905865e-10 -4.807533594313534e-10
          0.0994403035153137 6.437792727399399e-11 -4.4568145886663093e-10 0.09712205267494903 0 -3.788149352248089e-10
          0.09749314591179366 0 -4.126781947731204e-10 0.1002699989838858 1.7768529985323982e-10 -4.672612088795564e-10
          0.0993132019315731 0 -6.413648513002354e-10 0.09931320196389008 4.186709206441926e-10 -6.237321446540414e-10
          0.09672707808720128 -2.7637603079958533e-10 -6.96365468846678e-10 0.09672707783391754 5.396448284721786e-11 -6.156060732187943e-10
          0.11468979789838586 0 -6.183578468488337e-10 0.11468979689522403 6.648987648866735e-10 -5.999075398484949e-10
          0.09931320199236497 -3.5699200699133663e-10 -5.319911285057348e-10 0.09931320104612931 0 -4.923232041082552e-10
          0.11468979650113471 -5.473865320617933e-10 -5.402923402876029e-10
          <InformationKey name="L2_NORM_RANGE" location="vtkDataArray" length="2">
            <Value index="0">
              0.096129102988
            </Value>
            <Value index="1">
              0.1146897979
            </Value>
          </InformationKey>
        </DataArray>
        <DataArray type="Float64" Name="Pressure" format="ascii" RangeMin="0" RangeMax="0.08504290081034448">
          0 0.034787701294082964 0 0.0347877013500409 0.03525216675734398 0.0658329251509319
          0 0 0.06389550884688198 0.03478770153906128 0.03478770151695487 0.0658329250529789
          0.06583292509811 0 0 0.03478770176578965 0.0814195537841639 0.08141955390737475
          0.03525216703105494 0.08292054413199522 0.06583292501908981 0.08141955448210711 0.06389550881340667 0.03478770193802244
          0.08141955447535584 0.08504290053560497 0 0.08141955515502668 0.03478770159026027 0.08141955508806524
          0.08098491050412647 0.08292054498465735 0.08292054495974795 0.08504290061727705 0 0.08504290059368978
          0.06583292516408416 0.08141955585511557 0.08141955580388673 0.08504290073243265 0.06583292512552393 0.08098491063773251
          0.05464620779527953 0.054646207769122414 0.08141955461959587 0.08098491063427354 0 0.03478770145545397
          0.058361983146344346 0.035252166891119124 0.05464620938783593 0.05464620947521994 0.06389550902093222 0.05464621045749602
          0.05464621043640889 0.05836198497545928 0.058361984991928136 0 0 0.05464621215251137
          0 0.03478770156948285 0.06583292528715526 0 0 0
          0 0 0.08504290081034448 0.08141955597401096 0.08292054511592559 0.06583292512467993
          0.08141955467849868 0.06583292521823311 0.06389550892809974 0.034787701985074714 0.03525216710070213 0
          0.03478770165446156 0 0 0.0850429006673151 0.08292054430021939 0.08141955399208335
          0.054646212209516605 0.05836198687001485 0.08504290073222022 0.08098491072211333 0.0829205458311506 0.06583292505390431
          0.06389550877548061 0.034787701913165894 0.03525216728096986 0 0 0.0850429005783172
          0.06583292507530374 0.08141955451954168 0.0638955088156505 0.03478770171448008 0.035252167005742886 0
          0 0.08504290060418457 0.08141955398785423 0 0 0
          0 0.054646209446874996 0 0.05464620940242801 0 0.0347877013500409
          0.0658329251509319 0 0.06583292509811 0.03478770176578965 0.08141955390737475 0
          0.08141955515502668 0.06583292516408416 0.03478770145545397 0 0.06583292528715526 0.08141955399208335
          0.08504290053560497 0.08504290061727705 0.054646207769122414 0.05464621045749602 0 0
          0.0850429006673151 0.08504290060418457 0
        </DataArray>
      </PointData>
      <CellData>
        <DataArray type="UInt8" Name="vtkGhostType" format="ascii" RangeMin="0" RangeMax="0">
          0 0 0 0 0 0
          0 0 0 0 0 0
          0 0 0 0 0 0
          0 0 0 0 0 0
          0 0 0 0 0 0
          0 0 0 0 0 0
          0 0 0 0 0 0
          0 0 0 0 0 0
          0 0 0 0 0 0
          0 0 0 0 0 0
          0 0 0 0 0 0
          0 0 0 0 0 0
          0 0 0 0 0 0
          0 0 0 0 0 0
          0 0 0 0 0 0
          0 0 0 0 0 0
          0 0 0 0 0 0
          0 0 0 0 0 0
          0 0 0 0 0 0
          0 0 0 0 0 0
          0 0 0 0 0 0
          0 0 0 0 0 0
          0 0 0 0 0 0
          0 0 0 0 0 0
          0 0 0 0 0 0
          0 0 0 0 0 0
          0 0 0 0 0 0
          0 0 0 0 0 0
          0 0 0 0 0 0
          0 0 0 0 0 0
          0 0 0 0 0 0
          0 0 0 0 0 0
          0 0 0 0 0 0
          0 0 0 0 0 0
          0 0 0 0 0 0
          0 0 0 0 0 0
          0 0 0 0 0 0
          0 0 0 0 0 0
          0 0 0 0 0 0
          0 0 0 0 0 0
          0 0 0 0 0 0
          0 0 0 0 0 0
          0 0 0 0 0 0
          0 0 0 0 0 0
          0 0 0 0 0 0
          0 0 0 0 0 0
          0 0 0 0 0 0
          0 0 0 0 0 0
          0 0 0 0 0 0
          0 0 0 0 0 0
          0 0 0 0 0
        </DataArray>
      </CellData>
      <Points>
        <DataArray type="Float32" Name="Points" NumberOfComponents="3" format="ascii" RangeMin="0.3333333134651184" RangeMax="1.7320508075688772">
          1 1 1 0.8333333134651184 1 0.8333333134651184
          1 0.8333333134651184 0.8333333134651184 0.8333333134651184 0.8333333134651184 1
          0.8333333134651184 0.8333333134651184 0.8333333134651184 0.6666666865348816 1 1
          1 0.6666666865348816 1 1 1 0.6666666865348816
          0.6666666865348816 0.8333333134651184 0.8333333134651184 0.8333333134651184 0.6666666865348816 0.8333333134651184
          0.8333333134651184 0.8333333134651184 0.6666666865348816 0.6666666865348816 1 0.6666666865348816
          0.6666666865348816 0.6666666865348816 1 1 0.6666666865348816 0.6666666865348816
          1 0.5 0.8333333134651184 0.8333333134651184 0.5 1
          0.5 1 0.8333333134651184 0.5 0.8333333134651184 1
          0.8333333134651184 0.5 0.8333333134651184 0.5 0.8333333134651184 0.8333333134651184
          0.6666666865348816 0.6666666865348816 0.6666666865348816 0.5 0.6666666865348816 0.8333333134651184
          0.6666666865348816 0.5 0.8333333134651184 0.8333333134651184 0.5 0.6666666865348816
          0.5 0.8333333134651184 0.6666666865348816 0.3333333134651184 1 1
          1 0.3333333134651184 1 0.5 0.5 1
          0.8333333134651184 0.3333333134651184 0.8333333134651184 0.5 1 0.5
          0.3333333134651184 0.8333333134651184 0.8333333134651184 0.5 0.5 0.8333333134651184
          0.5 0.8333333134651184 0.5 0.3333333134651184 0.6666666865348816 1
          1 0.3333333134651184 0.6666666865348816 0.3333333134651184 1 0.6666666865348816
          0.6666666865348816 0.3333333134651184 1 0.5 0.5 0.6666666865348816
          0.5 0.6666666865348816 0.5 0.3333333134651184 0.6666666865348816 0.6666666865348816
          0.6666666865348816 0.3333333134651184 0.6666666865348816 0.3333333134651184 0.5 0.8333333134651184
          0.16666670143604279 1 0.8333333134651184 0.16666670143604279 0.8333333134651184 1
          0.5 0.3333333134651184 0.8333333134651184 0.3333333134651184 0.8333333134651184 0.5
          1 0.16666670143604279 0.8333333134651184 0.8333333134651184 0.16666670143604279 1
          0.16666670143604279 0.8333333134651184 0.8333333134651184 0.8333333134651184 0.16666670143604279 0.8333333134651184
          0.16666670143604279 0.6666666865348816 0.8333333134651184 0.16666670143604279 0.8333333134651184 0.6666666865348816
          0.6666666865348816 0.16666670143604279 0.8333333134651184 0.16666670143604279 0.5 1
          0.16666670143604279 1 0.5 0.16666670143604279 0.5 0.8333333134651184
          0.16666670143604279 0.8333333134651184 0.5 1 0 1
          0 1 1 0.16666670143604279 0.5 0.6666666865348816
          0 0.8333333134651184 0.8333333134651184 0.8333333134651184 0 0.8333333134651184
          0.6666666865348816 0 1 0 0.6666666865348816 1
          0 1 0.6666666865348816 0 0.6666666865348816 0.6666666865348816
          0 0.8333333134651184 0.5 0 0.5 0.8333333134651184
          0.3333333134651184 0.3333333134651184 0.6666666865348816 0.5 0.3333333134651184 0.5
          0.5 0.16666670143604279 0.5 0.6666666865348816 0.3333333134651184 0.3333333134651184
          0.5 0.16666670143604279 0.6666666865348816 0.6666666865348816 0 0.6666666865348816
          0.6666666865348816 0.16666670143604279 0.5 0.8333333134651184 0.3333333134651184 0.5
          0.8333333134651184 0.16666670143604279 0.5 1 0.3333333134651184 0.3333333134651184
          0.8333333134651184 0.16666670143604279 0.6666666865348816 1 0 0.6666666865348816
          1 0.16666670143604279 0.5 0.3333333134651184 0.3333333134651184 1
          0.5 0.16666670143604279 0.8333333134651184 0.5 0.16666670143604279 1
          0.16666670143604279 0.6666666865348816 0.5 0.16666670143604279 0.5 0.5
          0.3333333134651184 0.6666666865348816 0.3333333134651184 0.3333333134651184 0.5 0.5
          0.5 0.5 0.5 0.6666666865348816 0.6666666865348816 0.3333333134651184
          0.6666666865348816 0.5 0.5 0.8333333134651184 0.6666666865348816 0.5
          0.8333333134651184 0.5 0.5 1 0.6666666865348816 0.3333333134651184
          1 0.5 0.5 0.3333333134651184 1 0.3333333134651184
          0.6666666865348816 1 0.3333333134651184 0.5 0.8333333134651184 0.3333333134651184
          0.6666666865348816 0.8333333134651184 0.5 0.8333333134651184 1 0.5
          0.8333333134651184 0.8333333134651184 0.5 1 1 0.3333333134651184
          1 0.8333333134651184 0.5 0.3333333134651184 0 1
          0.5 0 0.8333333134651184 0 0.6666666865348816 0.3333333134651184
          0 0.3333333134651184 0.6666666865348816 0 0.5 0.5
          0 0.3333333134651184 1 0.16666670143604279 0.3333333134651184 0.8333333134651184
          0 1 0.3333333134651184 0.16666670143604279 0.8333333134651184 0.3333333134651184
          1 1 0 0.8333333134651184 0.8333333134651184 0
          0.6666666865348816 1 0 1 0.6666666865348816 0
          0.6666666865348816 0.6666666865348816 0 0.8333333134651184 0.5 0
          0.5 0.8333333134651184 0 1 0.3333333134651184 0
          0.5 0.5 0 0.6666666865348816 0.3333333134651184 0
          0.8333333134651184 0.16666670143604279 0 1 0 0
          0.6666666865348816 0 0 0.5 0.16666670143604279 0
          0.3333333134651184 1 0 0.3333333134651184 0.6666666865348816 0
          0.16666670143604279 0.8333333134651184 0 0.16666670143604279 0.5 0
          0 1 0 0 0.6666666865348816 0
          0.3333333134651184 0.3333333134651184 0 0.3333333134651184 0 0
          0 0.3333333134651184 0
          <InformationKey name="L2_NORM_RANGE" location="vtkDataArray" length="2">
            <Value index="0">
              0.33333331347
            </Value>
            <Value index="1">
              1.7320508076
            </Value>
          </InformationKey>
        </DataArray>
      </Points>
      <Cells>
        <DataArray type="Int64" Name="connectivity" format="ascii" RangeMin="0" RangeMax="111">
          40 68 69 70 71 40
          69 70 68 40 72 70
          40 73 72 70 40 71
          74 70 73 40 74 70
          34 40 75 76 40 71
          75 76 77 34 75 76
          40 34 78 76 34 79
          78 76 73 40 78 76
          71 40 74 76 40 73
          74 76 34 77 80 76
          79 34 80 76 36 81
          44 82 81 68 44 82
          68 40 44 82 40 36
          44 82 81 36 83 82
          36 62 83 82 73 40
          72 82 40 68 72 82
          36 40 52 82 40 73
          52 82 62 36 52 82
          26 36 28 49 36 40
          28 49 40 34 28 49
          34 26 28 49 36 26
          47 49 26 57 47 49
          57 62 47 49 62 36
          47 49 40 36 52 49
          36 62 52 49 73 40
          52 49 40 73 78 49
          79 34 78 49 34 40
          78 49 26 34 46 49
          34 79 46 49 79 57
          46 49 57 26 46 49
          39 65 84 85 86 39
          84 85 65 39 59 85
          39 68 59 85 39 86
          87 85 68 39 87 85
          20 39 38 88 39 86
          38 88 86 89 38 88
          89 20 38 88 39 20
          37 88 20 40 37 88
          40 68 37 88 68 39
          37 88 86 39 87 88
          39 68 87 88 20 89
          90 88 71 40 90 88
          40 20 90 88 68 40
          69 88 40 71 69 88
          13 20 91 92 20 89
          91 92 93 13 91 92
          20 13 23 92 13 34
          23 92 34 40 23 92
          40 20 23 92 89 20
          90 92 20 40 90 92
          40 71 90 92 13 93
          94 92 77 34 94 92
          34 13 94 92 40 34
          75 92 34 77 75 92
          71 40 75 92 33 63
          50 55 65 39 50 55
          39 33 50 55 63 33
          53 55 33 81 53 55
          68 39 59 55 39 65
          59 55 33 39 41 55
          39 68 41 55 68 81
          41 55 81 33 41 55
          12 33 21 31 33 39
          21 31 39 20 21 31
          20 12 21 31 33 12
          27 31 12 36 27 31
          36 81 27 31 81 33
          27 31 39 33 41 31
          33 81 41 31 81 68
          41 31 68 39 41 31
          39 68 37 31 68 40
          37 31 40 20 37 31
          20 39 37 31 12 20
          22 31 20 40 22 31
          40 36 22 31 36 12
          22 31 81 36 44 31
          36 40 44 31 40 68
          44 31 68 81 44 31
          6 12 9 18 12 20
          9 18 20 13 9 18
          13 6 9 18 12 6
          15 18 6 26 15 18
          26 36 15 18 36 12
          15 18 20 12 22 18
          12 36 22 18 36 40
          22 18 40 20 22 18
          20 40 23 18 40 34
          23 18 34 13 23 18
          13 20 23 18 6 13
          14 18 13 34 14 18
          34 26 14 18 26 6
          14 18 36 26 28 18
          26 34 28 18 34 40
          28 18 40 36 28 18
          35 64 54 56 95 35
          54 56 64 35 51 56
          35 39 51 56 39 65
          51 56 35 95 45 56
          95 86 45 56 86 39
          45 56 39 35 45 56
          65 39 84 56 39 86
          84 56 11 35 29 32
          35 95 29 32 95 96
          29 32 96 11 29 32
          35 11 24 32 11 20
          24 32 20 39 24 32
          39 35 24 32 95 35
          45 32 35 39 45 32
          39 86 45 32 86 95
          45 32 95 86 97 32
          86 89 97 32 89 96
          97 32 96 95 97 32
          11 96 98 32 96 89
          98 32 89 20 98 32
          20 11 98 32 39 20
          38 32 20 89 38 32
          89 86 38 32 86 39
          38 32 7 11 99 100
          11 96 99 100 101 7
          99 100 11 7 10 100
          7 13 10 100 13 20
          10 100 20 11 10 100
          96 11 98 100 11 20
          98 100 20 89 98 100
          7 101 102 100 93 13
          102 100 13 7 102 100
          20 13 91 100 13 93
          91 100 89 20 91 100
          25 58 42 48 58 64
          42 48 64 35 42 48
          35 25 42 48 58 25
          43 48 25 33 43 48
          33 63 43 48 63 58
          43 48 64 58 60 48
          58 63 60 48 63 65
          60 48 65 64 60 48
          64 65 51 48 65 39
          51 48 39 35 51 48
          35 64 51 48 25 35
          30 48 35 39 30 48
          39 33 30 48 33 25
          30 48 63 33 50 48
          33 39 50 48 39 65
          50 48 65 63 50 48
          5 25 16 19 25 35
          16 19 35 11 16 19
          11 5 16 19 25 5
          17 19 5 12 17 19
          12 33 17 19 33 25
          17 19 35 25 30 19
          25 33 30 19 33 39
          30 19 39 35 30 19
          35 39 24 19 39 20
          24 19 20 11 24 19
          11 35 24 19 5 11
          8 19 11 20 8 19
          20 12 8 19 12 5
          8 19 33 12 21 19
          12 20 21 19 20 39
          21 19 39 33 21 19
          0 5 1 4 5 11
          1 4 11 7 1 4
          7 0 1 4 5 0
          3 4 0 6 3 4
          6 12 3 4 12 5
          3 4 11 5 8 4
          5 12 8 4 12 20
          8 4 20 11 8 4
          11 20 10 4 20 13
          10 4 13 7 10 4
          7 11 10 4 0 7
          2 4 7 13 2 4
          13 6 2 4 6 0
          2 4 12 6 9 4
          6 13 9 4 13 20
          9 4 20 12 9 4
          62 103 83 82 73 62
          52 82 103 62 104 82
          62 73 104 82 62 73
          52 49 73 79 78 49
          62 57 61 49 57 79
          61 49 79 73 61 49
          73 62 61 49 65 105
          84 85 68 106 59 85
          106 65 59 85 105 65
          107 85 65 106 107 85
          63 65 50 55 81 108
          53 55 108 63 53 55
          65 63 67 55 63 108
          67 55 108 106 67 55
          106 65 67 55 65 106
          59 55 106 68 59 55
          108 81 109 55 81 68
          109 55 68 106 109 55
          106 108 109 55 64 110
          54 56 110 95 54 56
          65 64 51 56 110 64
          66 56 64 65 66 56
          65 105 66 56 105 110
          66 56 110 105 111 56
          105 86 111 56 86 95
          111 56 95 110 111 56
          86 105 84 56 105 65
          84 56
        </DataArray>
        <DataArray type="Int64" Name="offsets" format="ascii" RangeMin="4" RangeMax="1220">
          4 8 12 16 20 24
          28 32 36 40 44 48
          52 56 60 64 68 72
          76 80 84 88 92 96
          100 104 108 112 116 120
          124 128 132 136 140 144
          148 152 156 160 164 168
          172 176 180 184 188 192
          196 200 204 208 212 216
          220 224 228 232 236 240
          244 248 252 256 260 264
          268 272 276 280 284 288
          292 296 300 304 308 312
          316 320 324 328 332 336
          340 344 348 352 356 360
          364 368 372 376 380 384
          388 392 396 400 404 408
          412 416 420 424 428 432
          436 440 444 448 452 456
          460 464 468 472 476 480
          484 488 492 496 500 504
          508 512 516 520 524 528
          532 536 540 544 548 552
          556 560 564 568 572 576
          580 584 588 592 596 600
          604 608 612 616 620 624
          628 632 636 640 644 648