<?xml version="1.0"?>
<VTKFile type="UnstructuredGrid" version="0.1" byte_order="LittleEndian" header_type="UInt32" compressor="vtkZLibDataCompressor">
  <UnstructuredGrid>
    <Piece NumberOfPoints="132" NumberOfCells="353">
      <PointData>
        <DataArray type="Float64" Name="nsi_BC" NumberOfComponents="3" format="ascii" RangeMin="0" RangeMax="0">
          0 0 0 0 0 0
          0 0 0 0 0 0
          0 0 0 0 0 0
          0 0 0 0 0 0
          0 0 0 0 0 0
          0 0 0 0 0 0
          0 0 0 0 0 0
          0 0 0 0 0 0
          0 0 0 0 0 0
          0 0 0 0 0 0
          0 0 0 0 0 0
          0 0 0 0 0 0
          0 0 0 0 0 0
          0 0 0 0 0 0
          0 0 0 0 0 0
          0 0 0 0 0 0
          0 0 0 0 0 0
          0 0 0 0 0 0
          0 0 0 0 0 0
          0 0 0 0 0 0
          0 0 0 0 0 0
          0 0 0 0 0 0
          0 0 0 0 0 0
          0 0 0 0 0 0
          0 0 0 0 0 0
          0 0 0 0 0 0
          0 0 0 0 0 0
          0 0 0 0 0 0
          0 0 0 0 0 0
          0 0 0 0 0 0
          0 0 0 0 0 0
          0 0 0 0 0 0
          0 0 0 0 0 0
          0 0 0 0 0 0
          0 0 0 0 0 0
          0 0 0 0 0 0
          0 0 0 0 0 0
          0 0 0 0 0 0
          0 0 0 0 0 0
          0 0 0 0 0 0
          0 0 0 0 0 0
          0 0 0 0 0 0
          0 0 0 0 0 0
          0 0 0 0 0 0
          0 0 0 0 0 0
          0 0 0 0 0 0
          0 0 0 0 0 0
          0 0 0 0 0 0
          0 0 0 0 0 0
          0 0 0 0 0 0
          0 0 0 0 0 0
          0 0 0 0 0 0
          0 0 0 0 0 0
          0 0 0 0 0 0
          0 0 0 0 0 0
          0 0 0 0 0 0
          0 0 0 0 0 0
          0 0 0 0 0 0
          0 0 0 0 0 0
          0 0 0 0 0 0
          0 0 0 0 0 0
          0 0 0 0 0 0
          0 0 0 0 0 0
          0 0 0 0 0 0
          0 0 0 0 0 0
          0 0 0 0 0 0
          <InformationKey name="L2_NORM_RANGE" location="vtkDataArray" length="2">
            <Value index="0">
              0
            </Value>
            <Value index="1">
              0
            </Value>
          </InformationKey>
        </DataArray>
        <DataArray type="Float64" Name="nsi_FIXNO" NumberOfComponents="3" format="ascii" RangeMin="1" RangeMax="1.7320508075688772">
          -1 -1 -1 -1 -1 -1
          0 1 0 -1 -1 -1
          -1 -1 -1 -1 -1 -1
          -1 -1 -1 -1 -1 -1
          -1 -1 -1 -1 -1 -1
          -1 -1 -1 -1 -1 -1
          -1 -1 -1 -1 -1 -1
          -1 -1 -1 -1 -1 -1
          -1 -1 -1 0 1 0
          -1 -1 -1 -1 -1 -1
          0 1 0 -1 -1 -1
          -1 -1 -1 -1 -1 -1
          -1 -1 -1 -1 -1 -1
          -1 -1 -1 0 1 0
          -1 -1 -1 0 1 0
          0 1 0 -1 -1 -1
          0 1 0 -1 -1 -1
          -1 -1 -1 -1 -1 -1
          -1 -1 -1 0 1 0
          -1 -1 -1 -1 -1 -1
          -1 -1 -1 -1 -1 -1
          -1 -1 -1 -1 -1 -1
          0 1 0 -1 -1 -1
          -1 -1 -1 -1 -1 -1
          -1 -1 -1 -1 -1 -1
          0 1 0 -1 -1 -1
          -1 -1 -1 0 1 0
          -1 -1 -1 0 1 0
          0 1 0 -1 -1 -1
          -1 -1 -1 0 1 0
          -1 -1 -1 -1 -1 -1
          0 1 0 0 1 0
          -1 -1 -1 0 1 0
          0 1 0 -1 -1 -1
          -1 -1 -1 0 1 0
          -1 -1 -1 -1 -1 -1
          -1 -1 -1 0 1 0
          -1 -1 -1 -1 -1 -1
          -1 -1 -1 -1 -1 -1
          -1 -1 -1 -1 -1 -1
          -1 -1 -1 -1 -1 -1
          -1 -1 -1 -1 -1 -1
          -1 -1 -1 -1 -1 -1
          -1 -1 -1 -1 -1 -1
          -1 -1 -1 -1 -1 -1
          -1 -1 -1 -1 -1 -1
          0 1 0 0 1 0
          -1 -1 -1 -1 -1 -1
          0 1 0 0 1 0
          -1 -1 -1 -1 -1 -1
          0 1 0 -1 -1 -1
          -1 -1 -1 -1 -1 -1
          -1 -1 -1 0 1 0
          -1 -1 -1 -1 -1 -1
          -1 -1 -1 -1 -1 -1
          -1 -1 -1 0 1 0
          -1 -1 -1 0 1 0
          -1 -1 -1 -1 -1 -1
          0 1 0 0 1 0
          0 1 0 0 1 0
          0 1 0 -1 -1 -1
          -1 -1 -1 -1 -1 -1
          -1 -1 -1 0 1 0
          0 1 0 -1 -1 -1
          -1 -1 -1 -1 -1 -1
          -1 -1 -1 -1 -1 -1
          <InformationKey name="L2_NORM_RANGE" location="vtkDataArray" length="2">
            <Value index="0">
              1
            </Value>
            <Value index="1">
              1.7320508076
            </Value>
          </InformationKey>
        </DataArray>
        <DataArray type="Float64" Name="Velocity" NumberOfComponents="3" format="ascii" RangeMin="0.1948748592776857" RangeMax="0.21887577485558973">
          0.20089591959510836 1.0243486904103359e-10 -2.348562827052635e-9 0.19917536697159421 0.0000028555015586230427 -2.777318346678511e-9
          0.19917419424894015 0 -3.371176759930054e-9 0.20196822268913664 1.3073447408135575e-10 -2.7704686358237404e-9
          0.20108457679799338 -0.000017237703562049692 -2.200596254379393e-9 0.20109220357364224 0.0000036726298961443385 -2.218437445375865e-9
          0.20089221192549936 -0.000028688974806772145 -2.1356279206981266e-9 0.19917536689067797 0.00000285541389594295 -2.213797756994573e-9
          0.1991753686815923 -0.0000028552888067678975 -3.2536808164066776e-9 0.1963292503685934 -0.000011993910835856757 -3.4270394119283952e-9
          0.2010845750114012 -0.00001723762211138671 -1.9558167309241924e-9 0.2019786244578459 -0.000026455778935446305 -2.899655022970038e-9
          0.1963292494135808 0.000011994565007355798 -3.4364481746730307e-9 0.2019786276427174 0.0000264559139682288 -2.6532920066275757e-9
          0.19634265478091936 0.000005718521202877234 -4.704187006509667e-9 0.19487485927768566 3.603210060819456e-10 -3.0731376987761314e-9
          0.20089221183251788 -0.000028689014689469445 -2.173612529586917e-9 0.20107602506500533 0 -2.3541060680886812e-9
          0.19917536692247553 0.000002855456940445793 -2.910773013203559e-9 0.19634265285672448 -0.000005718099807008934 -3.08805718681528e-9
          0.19635776209201133 0 -2.8693628765073073e-9 0.20197862528525626 -0.0000264558125102503 -2.6150816982547793e-9
          0.19632924804511903 0.000011994495028327348 -2.9223008396246057e-9 0.20196822214024054 1.1630415015959261e-10 -2.520924670889007e-9
          0.1963309537587454 4.0572521684174657e-10 -4.174256814940607e-9 0.19488186207869587 -0.0000356786156623391 -2.7184458418544185e-9
          0.19488186471509988 0.00003567894644003848 -3.740545019476596e-9 0.19917419399075073 0 -3.0488189153894536e-9
          0.21885249733328233 0.000009188350730274412 -3.103490498563048e-9 0.1991741902900431 0 -2.5784171525776096e-9
          0.2188757733889088 0 -4.666688426528846e-9 0.1963426520146845 -0.0000057181033561143124 -2.0583728319487827e-9
          0.2010760258303894 0 -2.1369992540987814e-9 0.21645575608991213 6.378948942010186e-10 -3.2998910854473708e-9
          0.1963292507602164 -0.000011994020202804113 -2.8633335897836963e-9 0.19917536803657093 -0.000002855294138605823 -3.0589672214498006e-9
          0.21885249523323286 0.00000918836494306275 -1.968698697771098e-9 0.19917419171565853 0 -1.9701268454511406e-9
          0.21885249623560193 -0.000009187244578046308 -4.512652688468113e-9 0.1948818624399381 -0.00003567858024511767 -2.781977919057001e-9
          0.1948748596350164 3.526126543599911e-10 -3.443406872153057e-9 0.2164225340818128 0.000013069323202519081 -3.0970624308593024e-9
          0.19634265490613254 0.00000571847104712794 -3.7070228596686255e-9 0.2164225346842655 -0.000013068752543778379 -3.5149775018025575e-9
          0.19635776119035442 0 -3.2660693370424732e-9 0.19634265210732416 -0.0000057180911087727895 -3.835368150430386e-9
          0.1963292491915751 0.000011994525208051841 -2.5671640914035086e-9 0.2019786250870529 -0.00002645580462271213 -2.2465826565419737e-9
          0.19917536697159421 0.0000028555015586230427 -2.777318346678511e-9 0.21885249561458384 0.000009188282419233305 -4.0425638725828514e-9
          0.1991741914047763 0 -2.7535871007425817e-9 0.21642253052317925 0.00001306933653622125 -3.0839398997581377e-9
          0.19633095441786877 3.7002221819609015e-10 -3.5301514102510784e-9 0.19635775882607362 0 -2.7670332382026938e-9
          0.21645575865416292 5.686387515377934e-10 -3.2571997510828102e-9 0.2188757748555897 0 -3.4537393259206312e-9
          0.2188757730920451 0 -2.8248539818162084e-9 0.19488186272154423 -0.000035678586004316794 -3.1228150491834713e-9
          0.21885249881005608 -0.000009187372195994606 -3.434957765633702e-9 0.21887577046983786 0 -1.7943261649338222e-9
          0.19634265285672448 -0.000005718099807008934 -3.08805718681528e-9 0.216422533574446 0.000013069354613506096 -3.0128467110786187e-9
          0.19635776042844458 0 -2.4564322727756334e-9 0.1991741902900431 0 -2.5784171525776096e-9
          0.21885249733328233 0.000009188350730274412 -3.103490498563048e-9 0.21887577098000985 0 -3.9912741194219415e-9
          0.2188757730920451 0 -2.8248539818162084e-9 0.1982938522664047 0.0000012568355802174902 -1.6591694312526793e-9
          0.19829385210919595 0.000001256712670575175 -1.8881085548049226e-9 0.19828704284624685 0 -1.553518346286513e-9
          0.19955305328180473 -0.000010720778649278492 -1.7387455422473651e-9 0.19829385098236715 0.0000012567963758345363 -1.736263700429262e-9
          0.20109220404731648 0.000003672620189807917 -2.6580237521536485e-9 0.19828704296680963 0 -1.6128286319860652e-9
          0.19955305207140145 -0.000010720773837810746 -2.0427588297482758e-9 0.1982938533373242 -0.0000012570568089867786 -1.8158852051034957e-9
          0.20109220661385466 -0.0000036726992123222754 -2.2686865291599025e-9 0.20089591978101806 -8.025337792586702e-11 -2.4693172607512025e-9
          0.201091284174356 -1.3729570427912404e-10 -2.7824937298916243e-9 0.19917536863297913 -0.000002855152555460294 -2.6570336865553866e-9
          0.2188524959679221 -0.000009187101282965618 -2.5296252088656773e-9 0.19633095413124715 4.767514371194905e-10 -2.6373693733657097e-9
          0.19829385311082734 -0.0000012570231549475132 -1.5474007685654171e-9 0.2010922070777581 -0.000003672608973640915 -2.38946974330926e-9
          0.20109128352494884 1.3665768126350733e-11 -2.4015533389176166e-9 0.19954929769062868 -1.1901867150066206e-10 -1.7902277738523635e-9
          0.19917536803657093 -0.000002855294138605823 -3.0589672214498006e-9 0.19633095441786877 3.7002221819609015e-10 -3.5301514102510784e-9
          0.19487485950146238 4.1015510492197833e-10 -3.3206574824238823e-9 0.2019682220778699 1.542127526440244e-10 -3.4678651123897135e-9
          0.20109128392876055 -1.18195390553222e-10 -2.6454336030646466e-9 0.20089592017261135 1.2497758592132033e-11 -2.640764538653702e-9
          0.19828704594813734 0 -1.7324787840063636e-9 0.20107602973587319 0 -2.1842778803662614e-9
          0.20089221450505065 0.000028688921748773483 -2.352942595897466e-9 0.20108457981092306 0.00001723763538073541 -2.68024088698086e-9
          0.19917419311590728 0 -2.6625782760076884e-9 0.1963577615331146 0 -3.4479267344081454e-9
          0.19488186426308185 0.000035679102474082315 -3.6510805653250254e-9 0.20197862789336515 0.00002645600607785827 -3.2199905611153143e-9
          0.20107602940141192 0 -2.323514728946173e-9 0.20089221456514766 0.000028688990086383166 -2.4050913721439733e-9
          0.20109220436592534 0.0000036725072068793812 -2.149459245824603e-9 0.2008922120981744 -0.000028689033411429408 -2.2097661967460075e-9
          0.2010845762966683 -0.000017237738139703112 -2.5146342546692643e-9 0.19828704302965544 0 -1.763285837575188e-9
          0.19829385299690377 -0.000001257137014644698 -1.701429588774029e-9 0.20109128392876055 -1.18195390553222e-10 -2.6454336030646466e-9
          0.19829385098236715 0.0000012567963758345363 -1.736263700429262e-9 0.21885249881005608 -0.000009187372195994606 -3.434957765633702e-9
          0.2164557591950218 6.9734092805782e-10 -3.861265355939558e-9 0.19828704495132987 0 -1.606979004513884e-9
          0.20108457952731912 0.00001723756674922049 -2.579397095815459e-9 0.2188757738190672 0 -2.632861676674878e-9
          0.21642253300956535 -0.000013068524786750682 -3.854180942734664e-9 0.20108457679799338 -0.000017237703562049692 -2.200596254379393e-9
          0.19828704296680963 0 -1.6128286319860652e-9 0.2010760270250682 0 -2.056071373723638e-9
          0.19828704495132987 0 -1.606979004513884e-9 0.19917419399075073 0 -3.0488189153894536e-9
          0.20107602917302425 0 -2.6421880993548775e-9 0.20089221439041238 0.00002868898916759213 -2.584184262902431e-9
          0.20108457952731912 0.00001723756674922049 -2.579397095815459e-9 0.19829385299690377 -0.000001257137014644698 -1.701429588774029e-9
          0.20109220650774298 -0.000003672591818109037 -2.7096429820191286e-9 0.2188757748555897 0 -3.4537393259206312e-9
          0.19635776191016427 0 -3.8602563214461125e-9 0.19488186454256892 0.00003567894459018539 -3.3422772339843284e-9
          0.19634265490613254 0.00000571847104712794 -3.7070228596686255e-9 0.20197862724272989 0.000026455967575193825 -3.437804443812894e-9
          0.19632925064243512 -0.000011993979401504313 -3.935028619815521e-9 0.21642253454824878 -0.000013068657668587242 -3.816903356200173e-9
          <InformationKey name="L2_NORM_RANGE" location="vtkDataArray" length="2">
            <Value index="0">
              0.19487485928
            </Value>
            <Value index="1">
              0.21887577486
            </Value>
          </InformationKey>
        </DataArray>
        <DataArray type="Float64" Name="Pressure" format="ascii" RangeMin="0" RangeMax="0.1684194306897932">
          0.16189789879221167 0.1684194306897932 0.16836454859371786 0.16032551908680084 0.159136670572038 0.15914261216881959
          0.16189592698980604 0.16841943066415332 0.16841943029804146 0.11022279621070763 0.15913667158668487 0.1603210930290603
          0.11022279070229105 0.160321092600867 0.11022894690379752 0.11826417778055762 0.16189592820724732 0.15909074369986392
          0.16841943047262573 0.110228943773447 0.11014266551914234 0.16032109282706558 0.11022279614789002 0.16032551931003836
          0.11021975777823884 0.11827629957713165 0.11827629938982358 0.1683645489313347 0 0.1683645493061575
          0 0.11022894704006701 0.15909074594474748 0 0.11022279054889018 0.16841943044837676
          0 0.16836454921159524 0 0.11827630302438842 0.11826417416476713 0
          0.11022894366528248 0 0.1101426657074211 0.11022894694345785 0.11022279064661258 0.16032109291583524
          0.1684194306897932 0 0.16836454906205087 0 0.11021975437360225 0.11014267129748513
          0 0 0 0.1182762994821146 0 0
          0.110228943773447 0 0.11014266577723016 0.1683645493061575 0 0
          0 0.12761268515264998 0.12761268511331372 0.12758595978900408 0.12400087991539098 0.12761268540033496
          0.15914260985993087 0.1275859601081002 0.12400088030416333 0.12761268489285277 0.15914260951769169 0.1618978974793542
          0.15914310411070506 0.16841943035030513 0 0.11021975780112424 0.12761268477906829 0.1591426116225274
          0.15914310406554322 0.12400546714369971 0.16841943044837676 0.11021975437360225 0.1182641741653563 0.16032551921028465
          0.15914310299774884 0.16189789745914693 0.1275859592723148 0.15909074319744967 0.16189592648208426 0.1591366709672616
          0.16836454864970324 0.11014267099609791 0.11827630299910244 0.16032109250092377 0.15909074513435 0.1618959276048605
          0.159142609796343 0.16189592681659543 0.1591366714799307 0.12758595975725184 0.12761268518239877 0.15914310299774884
          0.12761268540033496 0 0 0.12758595964504338 0.15913667021069683 0
          0 0.159136670572038 0.1275859601081002 0.15909074366909334 0.12758595964504338 0.1683645489313347
          0.15909074297260212 0.16189592634400246 0.15913667021069683 0.12761268518239877 0.15914260937177593 0
          0.11014266567768181 0.11827629942797525 0.11022894366528248 0.16032109245269624 0.11022279046793469 0
        </DataArray>
      </PointData>
      <CellData>
        <DataArray type="UInt8" Name="vtkGhostType" format="ascii" RangeMin="0" RangeMax="1">
          1 1 1 1 1 1
          1 1 1 1 1 1
          1 1 1 1 1 1
          1 1 1 1 1 1
          1 1 1 1 1 1
          1 1 1 1 1 1
          1 1 1 1 1 1
          1 1 1 1 1 1
          1 1 1 1 1 1
          1 1 1 1 1 1
          1 1 1 1 1 1
          1 1 1 1 1 1
          1 1 1 1 1 1
          1 0 0 0 0 0
          0 1 1 1 1 1
          1 0 0 0 0 0
          0 0 0 0 0 0
          1 1 0 0 0 0
          0 1 1 1 1 1
          1 1 1 1 0 0
          0 0 0 0 0 0
          0 0 0 0 0 1
          0 0 0 0 0 0
          1 1 1 1 1 0
          0 0 0 0 0 0
          0 0 0 0 1 1
          1 1 1 1 1 1
          1 1 1 1 1 1
          1 0 1 1 1 1
          0 0 0 0 0 0
          0 0 0 0 0 0
          0 0 1 1 1 0
          1 1 1 1 1 1
          1 1 1 1 1 0
          0 0 0 0 0 0
          0 0 0 0 0 1
          1 1 1 1 1 1
          1 1 1 1 1 1
          1 1 1 1 1 1
          1 1 1 0 0 0
          0 0 0 0 0 0
          0 0 0 0 0 0
          0 0 0 1 1 1
          1 1 1 1 1 1
          1 0 0 0 0 0
          0 0 0 0 0 0
          0 0 0 0 0 0
          0 0 0 0 0 0
          0 0 0 0 0 0
          0 0 0 0 0 0
          0 0 0 0 0 0
          0 0 0 0 0 0
          0 0 0 0 0 1
          1 1 1 1 1 1
          1 1 1 1 1 1
          1 1 1 1 1 1
          1 1 1 1 1 1
          1 1 1 1 1 1
          1 1 1 1 1
        </DataArray>
      </CellData>
      <Points>
        <DataArray type="Float32" Name="Points" NumberOfComponents="3" format="ascii" RangeMin="0" RangeMax="1.5634719284129786">
          0.5 0.5 0.5 0.3333333134651184 0.3333333134651184 1
          0.3333333134651184 1 0.3333333134651184 0.3333333134651184 0.5 0.5
          0.5 0.16666670143604279 1 0.5 0.3333333134651184 0.5
          0.5 0.16666670143604279 0.8333333134651184 0.3333333134651184 0.3333333134651184 0.6666666865348816
          0.3333333134651184 0.6666666865348816 0.3333333134651184 0.16666670143604279 0.6666666865348816 0.5
          0.5 0.16666670143604279 0.6666666865348816 0.3333333134651184 0.16666670143604279 0.8333333134651184
          0.16666670143604279 0.3333333134651184 0.8333333134651184 0.3333333134651184 0.8333333134651184 0.16666670143604279
          0.16666670143604279 0.8333333134651184 0.3333333134651184 0.16666670143604279 0.5 0.5
          0.5 0.16666670143604279 0.5 0.5 0 0.8333333134651184
          0.3333333134651184 0.3333333134651184 0.3333333134651184 0.16666670143604279 0.16666670143604279 1
          0.16666670143604279 1 0.16666670143604279 0.3333333134651184 0.16666670143604279 0.5
          0.16666670143604279 0.3333333134651184 0.5 0.3333333134651184 0.5 0.16666670143604279
          0.16666670143604279 0.5 0.3333333134651184 0.16666670143604279 0.16666670143604279 0.8333333134651184
          0.16666670143604279 0.8333333134651184 0.16666670143604279 0.3333333134651184 1 0
          0 0.3333333134651184 1 0.3333333134651184 0 1
          0 1 0.3333333134651184 0.16666670143604279 0.16666670143604279 0.6666666865348816
          0.5 0 0.5 0 0.5 0.5
          0.16666670143604279 0.6666666865348816 0.16666670143604279 0.3333333134651184 0.6666666865348816 0
          0 0.3333333134651184 0.6666666865348816 0.3333333134651184 0 0.6666666865348816
          0 0.6666666865348816 0.3333333134651184 0.16666670143604279 0.16666670143604279 0.5
          0.16666670143604279 0.5 0.16666670143604279 0 0.16666670143604279 0.8333333134651184
          0.16666670143604279 0.8333333134651184 0 0 0.8333333134651184 0.16666670143604279
          0.16666670143604279 0 0.8333333134651184 0.16666670143604279 0.16666670143604279 0.3333333134651184
          0.16666670143604279 0.3333333134651184 0.16666670143604279 0.3333333134651184 0.16666670143604279 0.16666670143604279
          0.3333333134651184 0.3333333134651184 0 0 0.3333333134651184 0.3333333134651184
          0.3333333134651184 0 0.3333333134651184 0 0.16666670143604279 0.5
          0.16666670143604279 0.5 0 0.16666670143604279 0 0.5
          0 0.5 0.16666670143604279 0 1 0
          0 0 1 0.16666670143604279 0.16666670143604279 0.16666670143604279
          0 0.6666666865348816 0 0 0 0.6666666865348816
          0.16666670143604279 0.16666670143604279 0 0 0.16666670143604279 0.16666670143604279
          0.16666670143604279 0 0.16666670143604279 0.3333333134651184 0 0
          0 0.3333333134651184 0 0 0 0.3333333134651184
          0 0 0 0.6666666865348816 0.3333333134651184 0.6666666865348816
          0.6666666865348816 0.3333333134651184 0.3333333134651184 0.6666666865348816 0 0.6666666865348816
          0.6666666865348816 0.16666670143604279 0.5 0.6666666865348816 0.3333333134651184 1
          0.5 0.3333333134651184 0.8333333134651184 0.6666666865348816 0 1
          0.6666666865348816 0.16666670143604279 0.8333333134651184 0.6666666865348816 0.6666666865348816 0.3333333134651184
          0.5 0.6666666865348816 0.16666670143604279 0.5 0.5 0.16666670143604279
          0.5 0.5 0.3333333134651184 0.3333333134651184 0.6666666865348816 0.6666666865348816
          0 0.6666666865348816 0.6666666865348816 0.16666670143604279 0.5 0.6666666865348816
          0.6666666865348816 0.6666666865348816 0.6666666865348816 0.5 0.6666666865348816 0.5
          0.5 0.5 0.6666666865348816 0.6666666865348816 0.5 0.5
          0.3333333134651184 0.6666666865348816 1 0.16666670143604279 0.5 1
          0.16666670143604279 0.5 0.8333333134651184 0.3333333134651184 0.5 0.8333333134651184
          0.5 0.5 1 0.5 0.5 0.8333333134651184
          0.6666666865348816 1 0.3333333134651184 0.5 1 0.16666670143604279
          0.5 0.8333333134651184 0.16666670143604279 0.5 0.8333333134651184 0.3333333134651184
          0.3333333134651184 1 0.6666666865348816 0.16666670143604279 1 0.5
          0.16666670143604279 0.8333333134651184 0.5 0.3333333134651184 0.8333333134651184 0.5
          0.5 1 0.5 0.5 0.8333333134651184 0.5
          0.5 0.3333333134651184 0.16666670143604279 0.5 0.16666670143604279 0.16666670143604279
          0.5 0.16666670143604279 0.3333333134651184 0.6666666865348816 0 0.3333333134651184
          0.6666666865348816 0.6666666865348816 0 0.5 0.5 0
          0.6666666865348816 0.3333333134651184 0 0 0.6666666865348816 1
          0 0.5 0.8333333134651184 0.6666666865348816 1 0
          0.5 0.8333333134651184 0 0 1 0.6666666865348816
          0 0.8333333134651184 0.5 0.5 0.16666670143604279 0
          0.6666666865348816 0 0 0.5 0 0.16666670143604279
          0.6666666865348816 1 1 0.3333333134651184 1 1
          0.5 1 0.8333333134651184 0.5 0.8333333134651184 0.8333333134651184
          0.5 0.8333333134651184 1 0.6666666865348816 0.6666666865348816 1
          0.5 0.6666666865348816 0.8333333134651184 0 1 1
          0.16666670143604279 1 0.8333333134651184 0.16666670143604279 0.8333333134651184 0.8333333134651184
          0.16666670143604279 0.8333333134651184 1 0.3333333134651184 0.8333333134651184 0.8333333134651184
          0.16666670143604279 0.6666666865348816 0.8333333134651184 0 0.8333333134651184 0.8333333134651184
          <InformationKey name="L2_NORM_RANGE" location="vtkDataArray" length="2">
            <Value index="0">
              0
            </Value>
            <Value index="1">
              1.5634719284
            </Value>
          </InformationKey>
        </DataArray>
      </Points>
      <Cells>
        <DataArray type="Int64" Name="connectivity" format="ascii" RangeMin="0" RangeMax="131">
          67 7 5 16 68 67
          5 16 7 67 10 16
          67 69 10 16 67 68
          70 16 69 67 70 16
          71 1 72 6 1 7
          72 6 7 67 72 6
          67 71 72 6 1 71
          4 6 71 73 4 6
          69 67 10 6 67 7
          10 6 71 67 74 6
          67 69 74 6 73 71
          74 6 75 8 76 77
          8 75 78 77 79 80
          9 15 8 79 9 15
          80 79 81 15 79 7
          81 15 79 8 3 15
          7 79 3 15 82 79
          83 0 79 8 83 0
          8 75 83 0 75 82
          83 0 79 82 84 0
          82 67 84 0 67 7
          84 0 7 79 84 0
          8 79 3 0 79 7
          3 0 68 75 78 0
          75 8 78 0 82 75
          85 0 75 68 85 0
          68 67 85 0 67 82
          85 0 7 67 5 0
          67 68 5 0 86 1
          87 88 7 79 81 88
          79 7 89 88 7 1
          89 88 1 86 89 88
          71 1 90 91 1 86
          90 91 86 1 89 91
          1 7 89 91 7 79
          89 91 79 7 84 91
          7 67 84 91 1 71
          72 91 67 7 72 91
          7 1 72 91 92 2
          93 94 2 92 95 94
          75 8 95 94 8 2
          95 94 8 75 76 94
          2 96 97 98 96 2
          99 98 2 8 99 98
          8 79 99 98 80 79
          9 98 79 8 9 98
          96 2 100 101 2 92
          100 101 2 96 99 101
          79 8 99 101 8 2
          99 101 2 8 95 101
          8 75 95 101 92 2
          95 101 75 8 83 101
          8 79 83 101 18 49
          46 57 48 18 46 57
          49 18 45 57 18 50
          45 57 18 48 47 57
          50 18 47 57 68 18
          102 103 18 48 102 103
          18 68 104 103 50 18
          104 103 48 18 47 103
          18 50 47 103 7 36
          22 39 49 18 22 39
          18 7 22 39 36 7
          31 39 7 37 31 39
          50 18 45 39 18 49
          45 39 7 18 21 39
          18 50 21 39 37 7
          21 39 7 18 5 16
          18 68 5 16 69 37
          10 16 37 7 10 16
          18 7 21 16 7 37
          21 16 37 50 21 16
          50 18 21 16 18 50
          104 16 50 105 104 16
          105 68 104 16 68 18
          104 16 68 105 70 16
          105 69 70 16 37 69
          32 16 69 105 32 16
          105 50 32 16 50 37
          32 16 1 28 12 25
          28 36 12 25 36 7
          12 25 7 1 12 25
          28 1 19 25 1 29
          19 25 37 7 31 25
          7 36 31 25 1 7
          11 25 7 37 11 25
          37 29 11 25 29 1
          11 25 73 29 4 6
          29 1 4 6 7 1
          11 6 1 29 11 6
          29 37 11 6 37 7
          11 6 7 37 10 6
          37 69 10 6 69 73
          74 6 29 73 17 6
          73 69 17 6 69 37
          17 6 37 29 17 6
          8 38 34 40 35 8
          34 40 38 8 24 40
          8 18 24 40 18 49
          24 40 8 35 23 40
          48 18 23 40 18 8
          23 40 49 18 46 40
          18 48 46 40 8 35
          76 77 35 106 76 77
          68 18 78 77 18 8
          78 77 35 8 23 77
          8 18 23 77 18 48
          23 77 48 35 23 77
          35 48 107 77 48 108
          107 77 106 35 107 77
          18 68 102 77 108 48
          102 77 48 18 102 77
          80 38 9 15 38 8
          9 15 7 36 81 15
          36 80 81 15 38 80
          33 15 80 36 33 15
          36 49 33 15 49 38
          33 15 38 49 24 15
          49 18 24 15 18 8
          24 15 8 38 24 15
          8 18 3 15 18 7
          3 15 36 7 22 15
          7 18 22 15 18 49
          22 15 49 36 22 15
          7 18 3 0 18 8
          3 0 8 18 78 0
          18 68 78 0 68 18
          5 0 18 7 5 0
          1 28 87 88 28 109
          87 88 109 28 110 88
          28 36 110 88 36 80
          110 88 80 36 81 88
          36 7 81 88 28 1
          12 88 1 7 12 88
          7 36 12 88 36 28
          12 88 2 30 20 26
          27 2 20 26 30 2
          14 26 2 8 14 26
          8 38 14 26 38 30
          14 26 2 27 13 26
          27 35 13 26 35 8
          13 26 8 2 13 26
          38 8 34 26 8 35
          34 26 2 27 93 94
          27 111 93 94 27 2
          13 94 2 8 13 94
          8 35 13 94 35 27
          13 94 27 35 112 94
          35 106 112 94 111 27
          112 94 106 35 76 94
          35 8 76 94 113 30
          97 98 30 2 97 98
          30 113 114 98 80 38
          114 98 38 30 114 98
          30 38 14 98 38 8
          14 98 8 2 14 98
          2 30 14 98 8 38
          9 98 38 80 9 98
          49 64 46 57 64 48
          46 57 50 65 45 57
          65 49 45 57 64 49
          61 57 49 65 61 57
          65 66 61 57 66 64
          61 57 64 66 60 57
          66 63 60 57 63 48
          60 57 48 64 60 57
          48 63 47 57 63 50
          47 57 65 50 62 57
          50 63 62 57 63 66
          62 57 66 65 62 57
          48 108 102 103 105 50
          104 103 50 63 47 103
          63 48 47 103 48 63
          115 103 63 116 115 103
          108 48 115 103 50 105
          117 103 116 63 117 103
          63 50 117 103 36 49
          22 39 37 59 31 39
          59 36 31 39 49 36
          51 39 36 59 51 39
          59 65 51 39 65 49
          51 39 49 65 45 39
          65 50 45 39 50 37
          21 39 59 37 53 39
          37 50 53 39 50 65
          53 39 65 59 53 39
          29 56 19 25 56 28
          19 25 36 28 41 25
          28 56 41 25 56 59
          41 25 59 36 41 25
          36 59 31 25 59 37
          31 25 56 29 44 25
          29 37 44 25 37 59
          44 25 59 56 44 25
          38 58 34 40 58 35
          34 40 49 38 24 40
          58 38 54 40 38 49
          54 40 49 64 54 40
          64 58 54 40 58 64
          52 40 64 48 52 40
          48 35 52 40 35 58
          52 40 35 48 23 40
          48 64 46 40 64 49
          46 40 30 55 20 26
          55 27 20 26 55 30
          43 26 30 38 43 26
          38 58 43 26 58 55
          43 26 55 58 42 26
          58 35 42 26 35 27
          42 26 27 55 42 26
          35 58 34 26 58 38
          34 26 118 119 120 121
          119 118 122 121 123 86
          124 91 86 123 90 91
          123 86 122 121 86 123
          124 121 86 119 122 121
          119 125 126 127 96 119
          126 127 125 119 128 127
          119 86 128 127 119 96
          129 127 86 119 129 127
          119 96 120 121 96 119
          129 121 119 86 129 121
          86 109 130 88 79 86
          130 88 109 86 87 88
          86 79 89 88 86 79
          124 91 79 86 89 91
          86 109 128 127 79 86
          129 127 109 86 130 127
          86 79 130 127 86 79
          129 121 79 86 124 121
          109 125 128 127 125 113
          126 127 113 125 131 127
          125 109 131 127 109 80
          131 127 80 109 130 127
          109 80 130 88 80 109
          110 88
        </DataArray>
        <DataArray type="Int64" Name="offsets" format="ascii" RangeMin="4" RangeMax="1412">