<?xml version="1.0"?>
<VTKFile type="UnstructuredGrid" version="0.1" byte_order="LittleEndian" header_type="UInt32" compressor="vtkZLibDataCompressor">
  <UnstructuredGrid>
    <Piece NumberOfPoints="98" NumberOfCells="44">
      <PointData>
        <DataArray type="Float64" Name="plcd_BC" NumberOfComponents="3" format="ascii" RangeMin="0" RangeMax="0">
          0 0 0 0 0 0
          0 0 0 0 0 0
          0 0 0 0 0 0
          0 0 0 0 0 0
          0 0 0 0 0 0
          0 0 0 0 0 0
          0 0 0 0 0 0
          0 0 0 0 0 0
          0 0 0 0 0 0
          0 0 0 0 0 0
          0 0 0 0 0 0
          0 0 0 0 0 0
          0 0 0 0 0 0
          0 0 0 0 0 0
          0 0 0 0 0 0
          0 0 0 0 0 0
          0 0 0 0 0 0
          0 0 0 0 0 0
          0 0 0 0 0 0
          0 0 0 0 0 0
          0 0 0 0 0 0
          0 0 0 0 0 0
          0 0 0 0 0 0
          0 0 0 0 0 0
          0 0 0 0 0 0
          0 0 0 0 0 0
          0 0 0 0 0 0
          0 0 0 0 0 0
          0 0 0 0 0 0
          0 0 0 0 0 0
          0 0 0 0 0 0
          0 0 0 0 0 0
          0 0 0 0 0 0
          0 0 0 0 0 0
          0 0 0 0 0 0
          0 0 0 0 0 0
          0 0 0 0 0 0
          0 0 0 0 0 0
          0 0 0 0 0 0
          0 0 0 0 0 0
          0 0 0 0 0 0
          0 0 0 0 0 0
          0 0 0 0 0 0
          0 0 0 0 0 0
          0 0 0 0 0 0
          0 0 0 0 0 0
          0 0 0 0 0 0
          0 0 0 0 0 0
          0 0 0 0 0 0
          <InformationKey name="L2_NORM_RANGE" location="vtkDataArray" length="2">
            <Value index="0">
              0
            </Value>
            <Value index="1">
              0
            </Value>
          </InformationKey>
        </DataArray>
        <DataArray type="Float64" Name="plcd_FIXNO" NumberOfComponents="3" format="ascii" RangeMin="1.7320508075688772" RangeMax="1.7320508075688772">
          -1 -1 -1 -1 -1 -1
          -1 -1 -1 -1 -1 -1
          -1 -1 -1 -1 -1 -1
          -1 -1 -1 -1 -1 -1
          -1 -1 -1 -1 -1 -1
          -1 -1 -1 -1 -1 -1
          -1 -1 -1 -1 -1 -1
          -1 -1 -1 -1 -1 -1
          -1 -1 -1 -1 -1 -1
          -1 -1 -1 -1 -1 -1
          -1 -1 -1 -1 -1 -1
          -1 -1 -1 -1 -1 -1
          -1 -1 -1 -1 -1 -1
          -1 -1 -1 -1 -1 -1
          -1 -1 -1 -1 -1 -1
          -1 -1 -1 -1 -1 -1
          -1 -1 -1 -1 -1 -1
          -1 -1 -1 -1 -1 -1
          -1 -1 -1 -1 -1 -1
          -1 -1 -1 -1 -1 -1
          -1 -1 -1 -1 -1 -1
          -1 -1 -1 -1 -1 -1
          -1 -1 -1 -1 -1 -1
          -1 -1 -1 -1 -1 -1
          -1 -1 -1 -1 -1 -1
          -1 -1 -1 -1 -1 -1
          -1 -1 -1 -1 -1 -1
          -1 -1 -1 -1 -1 -1
          -1 -1 -1 -1 -1 -1
          -1 -1 -1 -1 -1 -1
          -1 -1 -1 -1 -1 -1
          -1 -1 -1 -1 -1 -1
          -1 -1 -1 -1 -1 -1
          -1 -1 -1 -1 -1 -1
          -1 -1 -1 -1 -1 -1
          -1 -1 -1 -1 -1 -1
          -1 -1 -1 -1 -1 -1
          -1 -1 -1 -1 -1 -1
          -1 -1 -1 -1 -1 -1
          -1 -1 -1 -1 -1 -1
          -1 -1 -1 -1 -1 -1
          -1 -1 -1 -1 -1 -1
          -1 -1 -1 -1 -1 -1
          -1 -1 -1 -1 -1 -1
          -1 -1 -1 -1 -1 -1
          -1 -1 -1 -1 -1 -1
          -1 -1 -1 -1 -1 -1
          -1 -1 -1 -1 -1 -1
          -1 -1 -1 -1 -1 -1
          <InformationKey name="L2_NORM_RANGE" location="vtkDataArray" length="2">
            <Value index="0">
              1.7320508076
            </Value>
            <Value index="1">
              1.7320508076
            </Value>
          </InformationKey>
        </DataArray>
      </PointData>
      <CellData>
        <DataArray type="UInt8" Name="vtkGhostType" format="ascii" RangeMin="0" RangeMax="1">
          1 1 1 1 1 1
          1 1 1 1 1 1
          0 0 0 0 0 0
          0 0 0 0 0 0
          0 0 0 0 0 0
          0 0 0 0 0 0
          0 0 0 0 0 0
          0 0
        </DataArray>
      </CellData>
      <Points>
        <DataArray type="Float32" Name="Points" NumberOfComponents="3" format="ascii" RangeMin="0.5995491172905656" RangeMax="7.789572376179863">
          5.401882171630859 -1.3746089935302734 2 5.401882171630859 -1.3746089935302734 1.3333330154418945
          5.401882171630859 -0.707939624786377 2 5.401882171630859 -0.707939624786377 1.3333330154418945
          3.401879072189331 -1.3746089935302734 2 3.401879072189331 -1.3746089935302734 1.3333330154418945
          3.401879072189331 -0.707939624786377 2 3.401879072189331 -0.707939624786377 1.3333330154418945
          3.401879072189331 -1.3746089935302734 0.6666666865348816 3.401879072189331 -0.041270170360803604 2
          3.401879072189331 -0.707939624786377 0.6666666865348816 3.401879072189331 -0.041270170360803604 1.3333330154418945
          3.401879072189331 -0.041270170360803604 0.6666666865348816 3.401879072189331 -1.3746089935302734 0
          3.401879072189331 0.6253991723060608 2 3.401879072189331 -0.707939624786377 0
          3.401879072189331 0.6253991723060608 1.3333330154418945 3.401879072189331 -0.041270170360803604 0
          3.401879072189331 0.6253991723060608 0.6666666865348816 3.401879072189331 0.6253991723060608 0
          1.4018759727478027 -1.3746089935302734 2 1.4018759727478027 -1.3746089935302734 1.3333330154418945
          1.4018759727478027 -0.707939624786377 2 1.4018759727478027 -0.707939624786377 1.3333330154418945
          1.4018759727478027 -1.3746089935302734 0.6666666865348816 1.4018759727478027 -0.041270170360803604 2
          1.4018759727478027 -0.707939624786377 0.6666666865348816 1.4018759727478027 -0.041270170360803604 1.3333330154418945
          1.4018759727478027 -0.041270170360803604 0.6666666865348816 1.4018759727478027 -1.3746089935302734 0
          1.4018759727478027 0.6253991723060608 2 1.4018759727478027 -0.707939624786377 0
          1.4018759727478027 0.6253991723060608 1.3333330154418945 1.4018759727478027 -0.041270170360803604 0
          1.4018759727478027 0.6253991723060608 0.6666666865348816 1.4018759727478027 0.6253991723060608 0
          -0.598127007484436 -1.3746089935302734 2 -0.598127007484436 -1.3746089935302734 1.3333330154418945
          -0.598127007484436 -0.707939624786377 2 -0.598127007484436 -0.707939624786377 1.3333330154418945
          -0.598127007484436 -1.3746089935302734 0.6666666865348816 -0.598127007484436 -0.041270170360803604 2
          -0.598127007484436 -0.707939624786377 0.6666666865348816 -0.598127007484436 -0.041270170360803604 1.3333330154418945
          -0.598127007484436 -0.041270170360803604 0.6666666865348816 -0.598127007484436 -1.3746089935302734 0
          -0.598127007484436 0.6253991723060608 2 -0.598127007484436 -0.707939624786377 0
          -0.598127007484436 0.6253991723060608 1.3333330154418945 -0.598127007484436 -0.041270170360803604 0
          -0.598127007484436 0.6253991723060608 0.6666666865348816 -0.598127007484436 0.6253991723060608 0
          -2.598129987716675 -0.041270170360803604 0.6666666865348816 -2.598129987716675 -0.041270170360803604 0
          -2.598129987716675 0.6253991723060608 0.6666666865348816 -2.598129987716675 0.6253991723060608 0
          5.401882171630859 -0.041270170360803604 0.6666666865348816 5.401882171630859 -0.041270170360803604 0
          5.401882171630859 0.6253991723060608 0.6666666865348816 5.401882171630859 0.6253991723060608 0
          5.401882171630859 -0.041270170360803604 1.3333330154418945 5.401882171630859 0.6253991723060608 1.3333330154418945
          5.401882171630859 -0.041270170360803604 2 5.401882171630859 0.6253991723060608 2
          5.401882171630859 -0.707939624786377 0.6666666865348816 5.401882171630859 -0.707939624786377 0
          7.401884078979492 -0.707939624786377 1.3333330154418945 7.401884078979492 -0.707939624786377 0.6666666865348816
          7.401884078979492 -0.041270170360803604 1.3333330154418945 7.401884078979492 -0.041270170360803604 0.6666666865348816
          7.401884078979492 -0.707939624786377 2 7.401884078979492 -0.041270170360803604 2
          5.401882171630859 -1.3746089935302734 0.6666666865348816 5.401882171630859 -1.3746089935302734 0
          7.401884078979492 -1.3746089935302734 1.3333330154418945 7.401884078979492 -1.3746089935302734 0.6666666865348816
          7.401884078979492 -1.3746089935302734 2 -2.598129987716675 -0.041270170360803604 1.3333330154418945
          -2.598129987716675 0.6253991723060608 1.3333330154418945 -2.598129987716675 -0.041270170360803604 2
          -2.598129987716675 0.6253991723060608 2 -2.598129987716675 -0.707939624786377 0.6666666865348816
          -2.598129987716675 -0.707939624786377 0 -2.598129987716675 -0.707939624786377 1.3333330154418945
          -4.598133087158203 -0.707939624786377 1.3333330154418945 -4.598133087158203 -0.707939624786377 0.6666666865348816
          -4.598133087158203 -0.041270170360803604 1.3333330154418945 -4.598133087158203 -0.041270170360803604 0.6666666865348816
          -2.598129987716675 -0.707939624786377 2 -2.598129987716675 -1.3746089935302734 0.6666666865348816
          -2.598129987716675 -1.3746089935302734 0 -2.598129987716675 -1.3746089935302734 1.3333330154418945
          -2.598129987716675 -1.3746089935302734 2 -4.598133087158203 -0.041270170360803604 0
          -4.598133087158203 0.6253991723060608 0.6666666865348816 -4.598133087158203 0.6253991723060608 0
          -4.598133087158203 0.6253991723060608 1.3333330154418945 -4.598133087158203 -0.707939624786377 0
          <InformationKey name="L2_NORM_RANGE" location="vtkDataArray" length="2">
            <Value index="0">
              0.59954911729
            </Value>
            <Value index="1">
              7.7895723762
            </Value>
          </InformationKey>
        </DataArray>
      </Points>
      <Cells>
        <DataArray type="Int64" Name="connectivity" format="ascii" RangeMin="0" RangeMax="97">
          12 56 57 17 18 58
          59 19 11 60 56 12
          16 61 58 18 9 62
          60 11 14 63 61 16
          10 64 65 15 12 56
          57 17 3 66 67 64
          60 68 69 56 7 3
          64 10 11 60 56 12
          2 70 66 3 62 71
          68 60 6 2 3 7
          9 62 60 11 8 72
          73 13 10 64 65 15
          1 74 75 72 3 66
          67 64 5 1 72 8
          7 3 64 10 0 76
          74 1 2 70 66 3
          4 0 1 5 6 2
          3 7 28 12 17 33
          34 18 19 35 44 28
          33 49 50 34 35 51
          52 44 49 53 54 50
          51 55 27 11 12 28
          32 16 18 34 43 27
          28 44 48 32 34 50
          77 43 44 52 78 48
          50 54 25 9 11 27
          30 14 16 32 41 25
          27 43 46 30 32 48
          79 41 43 77 80 46
          48 78 26 10 15 31
          28 12 17 33 42 26
          31 47 44 28 33 49
          81 42 47 82 52 44
          49 53 23 7 10 26
          27 11 12 28 39 23
          26 42 43 27 28 44
          83 39 42 81 77 43
          44 52 84 83 81 85
          86 77 52 87 22 6
          7 23 25 9 11 27
          38 22 23 39 41 25
          27 43 88 38 39 83
          79 41 43 77 24 8
          13 29 26 10 15 31
          40 24 29 45 42 26
          31 47 89 40 45 90
          81 42 47 82 21 5
          8 24 23 7 10 26
          37 21 24 40 39 23
          26 42 91 37 40 89
          83 39 42 81 20 4
          5 21 22 6 7 23
          36 20 21 37 38 22
          23 39 92 36 37 91
          88 38 39 83 87 52
          53 93 94 54 55 95
          86 77 52 87 96 78
          54 94 85 81 82 97
          87 52 53 93
        </DataArray>
        <DataArray type="Int64" Name="offsets" format="ascii" RangeMin="8" RangeMax="352">
          8 16 24 32 40 48
          56 64 72 80 88 96
          104 112 120 128 136 144
          152 160 168 176 184 192
          200 208 216 224 232 240
          248 256 264 272 280 288
          296 304 312 320 328 336
          344 352
        </DataArray>
        <DataArray type="UInt8" Name="types" format="ascii" RangeMin="12" RangeMax="12">
          12 12 12 12 12 12
          12 12 12 12 12 12
          12 12 12 12 12 12
          12 12 12 12 12 12
          12 12 12 12 12 12
          12 12 12 12 12 12
          12 12 12 12 12 12
          12 12
        </DataArray>
      </Cells>
    </Piece>
  </UnstructuredGrid>
</VTKFile>
