<?xml version="1.0"?>
<VTKFile type="UnstructuredGrid" version="0.1" byte_order="LittleEndian" header_type="UInt32" compressor="vtkZLibDataCompressor">
  <UnstructuredGrid>
    <Piece NumberOfPoints="79" NumberOfCells="35">
      <PointData>
        <DataArray type="Float64" Name="plcd_BC" NumberOfComponents="3" format="ascii" RangeMin="0" RangeMax="0">
          0 0 0 0 0 0
          0 0 0 0 0 0
          0 0 0 0 0 0
          0 0 0 0 0 0
          0 0 0 0 0 0
          0 0 0 0 0 0
          0 0 0 0 0 0
          0 0 0 0 0 0
          0 0 0 0 0 0
          0 0 0 0 0 0
          0 0 0 0 0 0
          0 0 0 0 0 0
          0 0 0 0 0 0
          0 0 0 0 0 0
          0 0 0 0 0 0
          0 0 0 0 0 0
          0 0 0 0 0 0
          0 0 0 0 0 0
          0 0 0 0 0 0
          0 0 0 0 0 0
          0 0 0 0 0 0
          0 0 0 0 0 0
          0 0 0 0 0 0
          0 0 0 0 0 0
          0 0 0 0 0 0
          0 0 0 0 0 0
          0 0 0 0 0 0
          0 0 0 0 0 0
          0 0 0 0 0 0
          0 0 0 0 0 0
          0 0 0 0 0 0
          0 0 0 0 0 0
          0 0 0 0 0 0
          0 0 0 0 0 0
          0 0 0 0 0 0
          0 0 0 0 0 0
          0 0 0 0 0 0
          0 0 0 0 0 0
          0 0 0 0 0 0
          0 0 0
          <InformationKey name="L2_NORM_RANGE" location="vtkDataArray" length="2">
            <Value index="0">
              0
            </Value>
            <Value index="1">
              0
            </Value>
          </InformationKey>
        </DataArray>
        <DataArray type="Float64" Name="plcd_FIXNO" NumberOfComponents="3" format="ascii" RangeMin="1.7320508075688772" RangeMax="1.7320508075688772">
          -1 -1 -1 -1 -1 -1
          -1 -1 -1 -1 -1 -1
          -1 -1 -1 -1 -1 -1
          -1 -1 -1 -1 -1 -1
          -1 -1 -1 -1 -1 -1
          -1 -1 -1 -1 -1 -1
          -1 -1 -1 -1 -1 -1
          -1 -1 -1 -1 -1 -1
          -1 -1 -1 -1 -1 -1
          -1 -1 -1 -1 -1 -1
          -1 -1 -1 -1 -1 -1
          -1 -1 -1 -1 -1 -1
          -1 -1 -1 -1 -1 -1
          -1 -1 -1 -1 -1 -1
          -1 -1 -1 -1 -1 -1
          -1 -1 -1 -1 -1 -1
          -1 -1 -1 -1 -1 -1
          -1 -1 -1 -1 -1 -1
          -1 -1 -1 -1 -1 -1
          -1 -1 -1 -1 -1 -1
          -1 -1 -1 -1 -1 -1
          -1 -1 -1 -1 -1 -1
          -1 -1 -1 -1 -1 -1
          -1 -1 -1 -1 -1 -1
          -1 -1 -1 -1 -1 -1
          -1 -1 -1 -1 -1 -1
          -1 -1 -1 -1 -1 -1
          -1 -1 -1 -1 -1 -1
          -1 -1 -1 -1 -1 -1
          -1 -1 -1 -1 -1 -1
          -1 -1 -1 -1 -1 -1
          -1 -1 -1 -1 -1 -1
          -1 -1 -1 -1 -1 -1
          -1 -1 -1 -1 -1 -1
          -1 -1 -1 -1 -1 -1
          -1 -1 -1 -1 -1 -1
          -1 -1 -1 -1 -1 -1
          -1 -1 -1 -1 -1 -1
          -1 -1 -1 -1 -1 -1
          -1 -1 -1
          <InformationKey name="L2_NORM_RANGE" location="vtkDataArray" length="2">
            <Value index="0">
              1.7320508076
            </Value>
            <Value index="1">
              1.7320508076
            </Value>
          </InformationKey>
        </DataArray>
        <DataArray type="Float64" Name="Displacement" NumberOfComponents="3" format="ascii" RangeMin="0.007651824042784444" RangeMax="0.0176176092236241">
          -0.0012345112624015434 -0.017565369915581205 -0.0005602824538779544 -0.001113346095146041 -0.01634461286795841 -0.0003285708546114759
          -0.0003599978226459909 -0.01666724986663822 -0.000038288482154367765 -0.0003704893832970245 -0.016373479131409914 -0.00004356466650966096
          -0.0010862355474744298 -0.016169743961560363 -0.00026418319510350044 0.0003630364490719869 -0.016423735729526705 0.00012634173866754906
          -0.00036320931704955515 -0.016163232022659433 -0.00007019762259348754 0.00035646764625483785 -0.016335209793860467 0.00012660931677254525
          0.00036256595182312745 -0.016180806965615174 0.00010637385695788365 -0.0010825559428528338 -0.01598745331750401 -0.00025552018604478127
          -0.001091243338005911 -0.014178906547836071 -0.00020698323841643288 0.0010142649553740325 -0.016 0.00011102761629313011
          -0.0003581099667005446 -0.015994394849888335 -0.0000754657307180473 -0.001097237681730511 -0.014168741304815678 -0.0002420429557062123
          -0.0003399895835096716 -0.014307997580630493 -0.00008929528501472846 0.0010726940983025422 -0.016341430232932563 0.00021945145869537927
          -0.0003541616809141923 -0.014159441804740405 -0.00008792218280107772 -0.001084008531589077 -0.013999135814877727 -0.0002495022192885942
          0.0003693131687821225 -0.01599918261129411 0.00009885005363574419 0.0003755180348336884 -0.014334684065363663 0.00007486688313913835
          0.0010889646147866658 -0.016179023955087416 0.00026226461791513687 -0.000360436277918525 -0.013999971279466162 -0.00008421300300857989
          0.0003673514817435858 -0.01416294779749984 0.00007615349893383773 0.0003615077209369239 -0.013998318737291161 0.00007917225664696378
          -0.0010816700962766408 -0.01383469159424418 -0.00024993689381637495 0.001095226230137209 -0.016 0.00027248575719428323
          0.0010749073068456081 -0.014395479257790274 0.00025885122895140324 -0.0003605533001629787 -0.013834303613619143 -0.00008421196009517309
          0.0010759412469195134 -0.014159270237928548 0.00024369711686824508 0.00036355232555297965 -0.013836488175415527 0.00008007913670413685
          0.0010812325487229912 -0.013999595924447186 0.00024103744894193586 0.0010847649950775139 -0.013838888326875872 0.00024172946202316044
          -0.001055432675747133 -0.012171338590879004 -0.00022196639008870256 -0.0010578846809289326 -0.01199607355550478 -0.0002177840521879283
          -0.00035943249681388617 -0.012145046268129059 -0.0000703700788482733 -0.00035515027417426986 -0.011997863098889817 -0.00007212939706358621
          -0.0010599075245314442 -0.01185294690672479 -0.00022059212889973554 0.0003467836473641832 -0.012144868457582569 0.00007395529067477572
          -0.00035338875644855516 -0.011851431008416529 -0.00007391955306938465 0.0003518476075972964 -0.011999678163490167 0.00007414582652143524
          0.00035342176986737317 -0.011852099304012865 0.00007397069659180802 -0.0010623026411641478 -0.011704872065605679 -0.0002234215775599239
          0.0010655503847103059 -0.012133896286599598 0.00021656918153166796 -0.000355481107517739 -0.01170348384748601 -0.00007475625623945815
          0.0010661822069752012 -0.012003358225053934 0.000221220053580688 0.0003539501253371941 -0.011702941907125867 0.00007453182844746473
          0.0010605378702544317 -0.011853578063190982 0.00022283229457223695 0.0010608536226159122 -0.011703962943832235 0.00022459920607207907
          -0.0010229107118886389 -0.009767268718334042 -0.00020182471633996193 0.00034067061387248144 -0.010029255827099298 0.00006487700926963345
          -0.00034113851444678687 -0.00976517404705229 -0.00006705210071872418 0.0003411906318781626 -0.009898095067896958 0.00006607460766932319
          0.0003410047469831935 -0.009764921416370937 0.00006738720902096377 -0.0010238945370978254 -0.00963168038519014 -0.00020459661734069652
          0.0010228771604501579 -0.010033901344604499 0.00019530502029145152 -0.00034206144599659784 -0.009629522292856166 -0.00006802634073924003
          0.0010248832694299845 -0.00989934623292084 0.00019811359775044032 0.00034236041331212026 -0.009629590858215426 0.00006847097390083515
          0.0010231060029077558 -0.009766933863637904 0.000201588222188597 0.0010242667377207341 -0.009631718697795591 0.0002047639882926589
          0.0003239353413693694 -0.007766643672813985 0.00006024242497140237 0.0003250927694526255 -0.007644666822561281 0.00006160393668024132
          0.000971533596214949 -0.007769380802297006 0.00018088125309575259 0.0009727003526620446 -0.007647396193205028 0.0001849043900268505
          0.0003239608807218905 -0.007885989383449983 0.00005896249727936746 0.0009742317448411941 -0.007888944733242052 0.00017695834382474296
          0.0003224117677246886 -0.008002677154325247 0.00005763065767656616 0.0009729636212905081 -0.008004823805556659 0.0001729275765322841
          -0.0003238840714457391 -0.007766593955351658 -0.00006036791145941839 -0.00032508646465155306 -0.0076446815059252405 -0.00006174991962262495
          -0.00034083824334085863 -0.009899194129429354 -0.00006642889598633312 -0.00032389210383206637 -0.007885630414811565 -0.000058887645739199586
          -0.00033774077080265754 -0.010030982260975794 -0.00006571427796295977 -0.0003229105485975044 -0.008001926164222775 -0.00005744327215842889
          -0.000971724396323396 -0.007769321740156559 -0.00018090407636373336 -0.0009727451730794758 -0.007647389640283633 -0.0001850140812523815
          -0.001026565833830049 -0.009902360850365428 -0.0001994676563676052 -0.0009741263116785114 -0.007888048948098539 -0.00017659740004550095
          -0.0010258232430236229 -0.010027522225507155 -0.0001954813303432373
          <InformationKey name="L2_NORM_RANGE" location="vtkDataArray" length="2">
            <Value index="0">
              0.0076518240428
            </Value>
            <Value index="1">
              0.017617609224
            </Value>
          </InformationKey>
        </DataArray>
      </PointData>
      <CellData>
        <DataArray type="UInt8" Name="vtkGhostType" format="ascii" RangeMin="0" RangeMax="0">
          0 0 0 0 0 0
          0 0 0 0 0 0
          0 0 0 0 0 0
          0 0 0 0 0 0
          0 0 0 0 0 0
          0 0 0 0 0
        </DataArray>
        <DataArray type="Float64" Name="Stress" NumberOfComponents="6" format="ascii" RangeMin="167823.65144381978" RangeMax="4807845.096596779">
          327972.66923153575 -82946.1958406645 -141874.74021460593 -37170.68646277937 261559.0128138325 -560586.5821639575
          915790.761807096 -86177.46710652077 -2493.3415026153175 25663.94437973614 166244.21940389072 21037.027494246562
          1477058.6482990175 14923.649816055427 16875.452151762714 90735.59938170054 270508.5876533836 1905.6642010948535
          2062076.10889253 556.9469052560853 -835.1196572183635 77742.82078514305 248284.4037437928 -1412.007124087264
          -309211.57821116305 -294462.19546141464 -849887.2917653647 -586768.8994097654 125947.3764500735 -938205.1245267475
          851202.184436355 78655.39947375363 114441.00997189248 -385195.1242753265 382805.4934507871 68417.89888102385
          1521764.078110016 -53507.38879358097 28238.592376676486 -109766.0484387647 477924.5652293407 -14351.710434246437
          2050093.0459907067 24584.17390682652 -13870.854953587736 -169644.5921902188 434997.2677728739 7004.580939517013
          70103.68304462584 3722786.015003278 -378364.49371972214 791077.1118880201 -335575.1437309609 1343522.4109244728
          548291.601528262 -1777228.0220319433 81285.45985353163 -1394920.819466649 408151.9253342592 -689120.9282060161
          1600699.114725035 403726.3058936683 22788.268454347875 -150165.65797390355 228435.9898138752 199132.88870579092
          2023028.4614678007 -72624.93313845099 -12010.272180573127 -483582.730272296 259468.94780660333 -46947.0631296903
          -38688.598775027334 -970588.3421640133 322831.2970891971 180907.40019336675 169906.46876657952 11177.234044885521
          76643.69053816755 -16871.33264409231 -15903.627946793355 171853.25640253586 -62547.720525956116 4636.608117324807
          -25069.865189777818 -2305.859108402008 1723.188001532918 171365.10657793167 15128.662256230866 479.04798948040116
          2625.216138752876 6833.482901497828 -2019.9512256909657 167649.55372468996 -694.8321947624281 503.86186174812246
          305781.1698697635 1365065.0599763042 2157200.229423953 -269645.64451221516 819731.8184978478 -270488.8941521694
          173483.9609698556 -205126.56537297758 -220964.38545926785 -296491.3384923879 46308.30398782698 65323.684922145614
          -56957.91643415732 -55801.54204952501 33735.56452463016 -246517.25340927287 -40052.639120505046 -1841.4977927189066
          7776.956162221875 41625.29294371343 -11633.176389913979 -266619.877221285 9560.607137683357 -3253.8367398791943
          325281.5334945705 3028916.0231524166 693565.5363464112 -512343.52739458403 1030061.7320284266 -136788.9142528488
          624113.0313269375 -1110811.9584775453 -140533.22486254177 -738922.9907556825 19245.560058287214 88896.25759166636
          -294143.66426641087 -11518.403653267895 -15327.969038500567 -675569.6621072002 -83758.16135978675 -30291.089521234055
          80793.62120105873 98574.92677487971 20997.315484371793 -746766.7060881646 28362.98805894089 1573.971377549351
          -109812.92777617887 -99754.97636370109 -177266.37259686805 184334.6051957714 -189072.92022405332 442778.0184605207
          -850328.9650616463 -69858.38555351901 -8749.09784508821 115892.10733204515 -423819.9428723707 4009.4980598975967
          -1510483.0706033045 8673.184673705106 18173.085595178007 72660.42648415003 -198390.60134298957 -10851.973786710629
          -2051062.7324374507 2211.9979231489924 -14541.741744118195 72109.12469842291 -254590.4547627312 1050.5416070678257
          -722088.8986538919 -546330.4657917938 -858948.323061009 333287.7683143256 -638239.3753524976 825104.6897408826
          -951035.2670310332 215294.10018376826 221168.80442006115 -8019.275140280777 -615711.5921027382 -128312.9012092138
          -1432817.782088291 -71152.2725038772 25198.86010946369 -211262.76236758422 -365282.80250003684 27242.655385668626
          -2069019.694146622 26631.748854527723 -34376.948078898655 -171697.1568663811 -466801.5745233208 -15265.417044408869
          -4495.049189330806 4259047.699556865 -361316.80646274216 -1316981.4926822167 -667539.7149272729 -1632564.7315180993
          -1091795.817285097 -2302080.01632291 173116.76634888537 572581.0491735762 -3346.8894975203875 996796.1617111508
          -1280049.311380337 821934.6116394652 6302.458103736956 -822234.0113832274 -304513.43631191616 -359682.7444211083
          <InformationKey name="L2_NORM_RANGE" location="vtkDataArray" length="2">
            <Value index="0">
              167823.65144
            </Value>
            <Value index="1">
              4807845.0966
            </Value>
          </InformationKey>
        </DataArray>
        <DataArray type="Float64" Name="Damage" format="ascii" RangeMin="0" RangeMax="0.6373496628465634">
          0 0 0 0 0.07481291728261891 0
          0 0 0.4537468613417834 0.05201052912303297 0 0
          0 0 0 0 0 0
          0 0 0.47868224056233943 0.07090529861907272 0 0
          0 0 0 0 0.2022904987381694 0
          0 0 0.6373496628465634 0.1885171364473265 0
        </DataArray>
        <DataArray type="Float64" Name="Tau" format="ascii" RangeMin="8040844.011283461" RangeMax="56187319.12048933">
          8040844.011283461 8040844.011283461 8040844.011283461 8040844.011283461 9537582.28297528 8040844.011283461
          8040844.011283461 8040844.011283461 29377380.040119108 8639555.333480598 8040844.011283461 8040844.011283461
          8040844.011283461 8040844.011283461 8040844.011283461 8040844.011283461 8040844.011283461 8040844.011283461
          8040844.011283461 8040844.011283461 32342205.808989406 8907791.315149097 8040844.011283461 8040844.011283461
          8040844.011283461 8040844.011283461 8040844.011283461 8040844.011283461 13965723.584465433 8040844.011283461
          8040844.011283461 8040844.011283461 56187319.12048933 12070882.332085885 8040844.011283461
        </DataArray>
        <DataArray type="Float64" Name="ComparisonRatio" format="ascii" RangeMin="0.10323062503212395" RangeMax="6.941892708316225">
          0.24577012625535313 0.2295906078740132 0.32890115898935085 0.4346065592817696 0.652536995378837 0.2537980284842659
          0.31938940998553017 0.4296509302449929 3.5320159494337156 0.5592950206778614 0.3569010582770955 0.44367629938730974
          0.2426768287689021 0.12964175740463327 0.1324379577321022 0.15566122738951635 0.3804283210272347 0.1405819940683862
          0.10323062503212395 0.12451745333300815 3.928123697233483 0.5778137477050757 0.1995285156581999 0.17948276457733262
          0.3071237926876979 0.23274315604779783 0.32543358590139704 0.43595963556637773 1.392553583439803 0.3543332469779925
          0.3302778822832954 0.42574496599722783 6.941892708316225 1.1773284146209455 0.39957539497022365
        </DataArray>
      </CellData>
      <Points>
        <DataArray type="Float32" Name="Points" NumberOfComponents="3" format="ascii" RangeMin="3.4021293991794836" RangeMax="11.657299898339286">
          11.40188980102539 -1.3746089935302734 2 11.40188980102539 -1.3746089935302734 1.3333330154418945
          11.40188980102539 -0.707939624786377 2 11.40188980102539 -0.707939624786377 1.3333330154418945
          11.40188980102539 -1.3746089935302734 0.6666666865348816 11.40188980102539 -0.041270170360803604 2
          11.40188980102539 -0.707939624786377 0.6666666865348816 11.40188980102539 -0.041270170360803604 1.3333330154418945
          11.40188980102539 -0.041270170360803604 0.6666666865348816 11.40188980102539 -1.3746089935302734 0
          9.401886940002441 -1.3746089935302734 2 11.40188980102539 0.6253991723060608 2
          11.40188980102539 -0.707939624786377 0 9.401886940002441 -1.3746089935302734 1.3333330154418945
          9.401886940002441 -0.707939624786377 2 11.40188980102539 0.6253991723060608 1.3333330154418945
          9.401886940002441 -0.707939624786377 1.3333330154418945 9.401886940002441 -1.3746089935302734 0.6666666865348816
          11.40188980102539 -0.041270170360803604 0 9.401886940002441 -0.041270170360803604 2
          11.40188980102539 0.6253991723060608 0.6666666865348816 9.401886940002441 -0.707939624786377 0.6666666865348816
          9.401886940002441 -0.041270170360803604 1.3333330154418945 9.401886940002441 -0.041270170360803604 0.6666666865348816
          9.401886940002441 -1.3746089935302734 0 11.40188980102539 0.6253991723060608 0
          9.401886940002441 0.6253991723060608 2 9.401886940002441 -0.707939624786377 0
          9.401886940002441 0.6253991723060608 1.3333330154418945 9.401886940002441 -0.041270170360803604 0
          9.401886940002441 0.6253991723060608 0.6666666865348816 9.401886940002441 0.6253991723060608 0
          7.401884078979492 -1.3746089935302734 2 7.401884078979492 -1.3746089935302734 1.3333330154418945
          7.401884078979492 -0.707939624786377 2 7.401884078979492 -0.707939624786377 1.3333330154418945
          7.401884078979492 -1.3746089935302734 0.6666666865348816 7.401884078979492 -0.041270170360803604 2
          7.401884078979492 -0.707939624786377 0.6666666865348816 7.401884078979492 -0.041270170360803604 1.3333330154418945
          7.401884078979492 -0.041270170360803604 0.6666666865348816 7.401884078979492 -1.3746089935302734 0
          7.401884078979492 0.6253991723060608 2 7.401884078979492 -0.707939624786377 0
          7.401884078979492 0.6253991723060608 1.3333330154418945 7.401884078979492 -0.041270170360803604 0
          7.401884078979492 0.6253991723060608 0.6666666865348816 7.401884078979492 0.6253991723060608 0
          5.401882171630859 -1.3746089935302734 0.6666666865348816 5.401882171630859 -0.041270170360803604 2
          5.401882171630859 -0.707939624786377 0.6666666865348816 5.401882171630859 -0.041270170360803604 1.3333330154418945
          5.401882171630859 -0.041270170360803604 0.6666666865348816 5.401882171630859 -1.3746089935302734 0
          5.401882171630859 0.6253991723060608 2 5.401882171630859 -0.707939624786377 0
          5.401882171630859 0.6253991723060608 1.3333330154418945 5.401882171630859 -0.041270170360803604 0
          5.401882171630859 0.6253991723060608 0.6666666865348816 5.401882171630859 0.6253991723060608 0
          3.401879072189331 -0.041270170360803604 0.6666666865348816 3.401879072189331 -0.041270170360803604 0
          3.401879072189331 0.6253991723060608 0.6666666865348816 3.401879072189331 0.6253991723060608 0
          3.401879072189331 -0.041270170360803604 1.3333330154418945 3.401879072189331 0.6253991723060608 1.3333330154418945
          3.401879072189331 -0.041270170360803604 2 3.401879072189331 0.6253991723060608 2
          3.401879072189331 -0.707939624786377 0.6666666865348816 3.401879072189331 -0.707939624786377 0
          5.401882171630859 -0.707939624786377 1.3333330154418945 3.401879072189331 -0.707939624786377 1.3333330154418945
          5.401882171630859 -0.707939624786377 2 3.401879072189331 -0.707939624786377 2
          3.401879072189331 -1.3746089935302734 0.6666666865348816 3.401879072189331 -1.3746089935302734 0
          5.401882171630859 -1.3746089935302734 1.3333330154418945 3.401879072189331 -1.3746089935302734 1.3333330154418945
          5.401882171630859 -1.3746089935302734 2
          <InformationKey name="L2_NORM_RANGE" location="vtkDataArray" length="2">
            <Value index="0">
              3.4021293992
            </Value>
            <Value index="1">
              11.657299898
            </Value>
          </InformationKey>
        </DataArray>
      </Points>
      <Cells>
        <DataArray type="Int64" Name="connectivity" format="ascii" RangeMin="0" RangeMax="78">
          23 8 18 29 30 20
          25 31 40 23 29 45
          46 30 31 47 52 40
          45 57 58 46 47 59
          60 52 57 61 62 58
          59 63 22 7 8 23
          28 15 20 30 39 22
          23 40 44 28 30 46
          51 39 40 52 56 44
          46 58 64 51 52 60
          65 56 58 62 19 5
          7 22 26 11 15 28
          37 19 22 39 42 26
          28 44 49 37 39 51
          54 42 44 56 66 49
          51 64 67 54 56 65
          21 6 12 27 23 8
          18 29 38 21 27 43
          40 23 29 45 50 38
          43 55 52 40 45 57
          68 50 55 69 60 52
          57 61 16 3 6 21
          22 7 8 23 35 16
          21 38 39 22 23 40
          70 35 38 50 51 39
          40 52 71 70 50 68
          64 51 52 60 14 2
          3 16 19 5 7 22
          34 14 16 35 37 19
          22 39 72 34 35 70
          49 37 39 51 73 72
          70 71 66 49 51 64
          17 4 9 24 21 6
          12 27 36 17 24 41
          38 21 27 43 48 36
          41 53 50 38 43 55
          74 48 53 75 68 50
          55 69 13 1 4 17
          16 3 6 21 33 13
          17 36 35 16 21 38
          76 33 36 48 70 35
          38 50 77 76 48 74
          71 70 50 68 10 0
          1 13 14 2 3 16
          32 10 13 33 34 14
          16 35 78 32 33 76
          72 34 35 70
        </DataArray>
        <DataArray type="Int64" Name="offsets" format="ascii" RangeMin="8" RangeMax="280">
          8 16 24 32 40 48
          56 64 72 80 88 96
          104 112 120 128 136 144
          152 160 168 176 184 192
          200 208 216 224 232 240
          248 256 264 272 280
        </DataArray>
        <DataArray type="UInt8" Name="types" format="ascii" RangeMin="12" RangeMax="12">
          12 12 12 12 12 12
          12 12 12 12 12 12
          12 12 12 12 12 12
          12 12 12 12 12 12
          12 12 12 12 12 12
          12 12 12 12 12
        </DataArray>
      </Cells>
    </Piece>
  </UnstructuredGrid>
</VTKFile>
