<?xml version="1.0"?>
<VTKFile type="UnstructuredGrid" version="0.1" byte_order="LittleEndian" header_type="UInt32" compressor="vtkZLibDataCompressor">
  <UnstructuredGrid>
    <Piece NumberOfPoints="79" NumberOfCells="35">
      <PointData>
        <DataArray type="Float64" Name="plcd_BC" NumberOfComponents="3" format="ascii" RangeMin="0" RangeMax="0">
          0 0 0 0 0 0
          0 0 0 0 0 0
          0 0 0 0 0 0
          0 0 0 0 0 0
          0 0 0 0 0 0
          0 0 0 0 0 0
          0 0 0 0 0 0
          0 0 0 0 0 0
          0 0 0 0 0 0
          0 0 0 0 0 0
          0 0 0 0 0 0
          0 0 0 0 0 0
          0 0 0 0 0 0
          0 0 0 0 0 0
          0 0 0 0 0 0
          0 0 0 0 0 0
          0 0 0 0 0 0
          0 0 0 0 0 0
          0 0 0 0 0 0
          0 0 0 0 0 0
          0 0 0 0 0 0
          0 0 0 0 0 0
          0 0 0 0 0 0
          0 0 0 0 0 0
          0 0 0 0 0 0
          0 0 0 0 0 0
          0 0 0 0 0 0
          0 0 0 0 0 0
          0 0 0 0 0 0
          0 0 0 0 0 0
          0 0 0 0 0 0
          0 0 0 0 0 0
          0 0 0 0 0 0
          0 0 0 0 0 0
          0 0 0 0 0 0
          0 0 0 0 0 0
          0 0 0 0 0 0
          0 0 0 0 0 0
          0 0 0 0 0 0
          0 0 0
          <InformationKey name="L2_NORM_RANGE" location="vtkDataArray" length="2">
            <Value index="0">
              0
            </Value>
            <Value index="1">
              0
            </Value>
          </InformationKey>
        </DataArray>
        <DataArray type="Float64" Name="plcd_FIXNO" NumberOfComponents="3" format="ascii" RangeMin="1.7320508075688772" RangeMax="1.7320508075688772">
          -1 -1 -1 -1 -1 -1
          -1 -1 -1 -1 -1 -1
          -1 -1 -1 -1 -1 -1
          -1 -1 -1 -1 -1 -1
          -1 -1 -1 -1 -1 -1
          -1 -1 -1 -1 -1 -1
          -1 -1 -1 -1 -1 -1
          -1 -1 -1 -1 -1 -1
          -1 -1 -1 -1 -1 -1
          -1 -1 -1 -1 -1 -1
          -1 -1 -1 -1 -1 -1
          -1 -1 -1 -1 -1 -1
          -1 -1 -1 -1 -1 -1
          -1 -1 -1 -1 -1 -1
          -1 -1 -1 -1 -1 -1
          -1 -1 -1 -1 -1 -1
          -1 -1 -1 -1 -1 -1
          -1 -1 -1 -1 -1 -1
          -1 -1 -1 -1 -1 -1
          -1 -1 -1 -1 -1 -1
          -1 -1 -1 -1 -1 -1
          -1 -1 -1 -1 -1 -1
          -1 -1 -1 -1 -1 -1
          -1 -1 -1 -1 -1 -1
          -1 -1 -1 -1 -1 -1
          -1 -1 -1 -1 -1 -1
          -1 -1 -1 -1 -1 -1
          -1 -1 -1 -1 -1 -1
          -1 -1 -1 -1 -1 -1
          -1 -1 -1 -1 -1 -1
          -1 -1 -1 -1 -1 -1
          -1 -1 -1 -1 -1 -1
          -1 -1 -1 -1 -1 -1
          -1 -1 -1 -1 -1 -1
          -1 -1 -1 -1 -1 -1
          -1 -1 -1 -1 -1 -1
          -1 -1 -1 -1 -1 -1
          -1 -1 -1 -1 -1 -1
          -1 -1 -1 -1 -1 -1
          -1 -1 -1
          <InformationKey name="L2_NORM_RANGE" location="vtkDataArray" length="2">
            <Value index="0">
              1.7320508076
            </Value>
            <Value index="1">
              1.7320508076
            </Value>
          </InformationKey>
        </DataArray>
      </PointData>
      <CellData>
        <DataArray type="UInt8" Name="vtkGhostType" format="ascii" RangeMin="0" RangeMax="0">
          0 0 0 0 0 0
          0 0 0 0 0 0
          0 0 0 0 0 0
          0 0 0 0 0 0
          0 0 0 0 0 0
          0 0 0 0 0
        </DataArray>
      </CellData>
      <Points>
        <DataArray type="Float32" Name="Points" NumberOfComponents="3" format="ascii" RangeMin="3.4021293991794836" RangeMax="11.657299898339286">
          11.40188980102539 -1.3746089935302734 2 11.40188980102539 -1.3746089935302734 1.3333330154418945
          11.40188980102539 -0.707939624786377 2 11.40188980102539 -0.707939624786377 1.3333330154418945
          11.40188980102539 -1.3746089935302734 0.6666666865348816 11.40188980102539 -0.041270170360803604 2
          11.40188980102539 -0.707939624786377 0.6666666865348816 11.40188980102539 -0.041270170360803604 1.3333330154418945
          11.40188980102539 -0.041270170360803604 0.6666666865348816 11.40188980102539 -1.3746089935302734 0
          9.401886940002441 -1.3746089935302734 2 11.40188980102539 0.6253991723060608 2
          11.40188980102539 -0.707939624786377 0 9.401886940002441 -1.3746089935302734 1.3333330154418945
          9.401886940002441 -0.707939624786377 2 11.40188980102539 0.6253991723060608 1.3333330154418945
          9.401886940002441 -0.707939624786377 1.3333330154418945 9.401886940002441 -1.3746089935302734 0.6666666865348816
          11.40188980102539 -0.041270170360803604 0 9.401886940002441 -0.041270170360803604 2
          11.40188980102539 0.6253991723060608 0.6666666865348816 9.401886940002441 -0.707939624786377 0.6666666865348816
          9.401886940002441 -0.041270170360803604 1.3333330154418945 9.401886940002441 -0.041270170360803604 0.6666666865348816
          9.401886940002441 -1.3746089935302734 0 11.40188980102539 0.6253991723060608 0
          9.401886940002441 0.6253991723060608 2 9.401886940002441 -0.707939624786377 0
          9.401886940002441 0.6253991723060608 1.3333330154418945 9.401886940002441 -0.041270170360803604 0
          9.401886940002441 0.6253991723060608 0.6666666865348816 9.401886940002441 0.6253991723060608 0
          7.401884078979492 -1.3746089935302734 2 7.401884078979492 -1.3746089935302734 1.3333330154418945
          7.401884078979492 -0.707939624786377 2 7.401884078979492 -0.707939624786377 1.3333330154418945
          7.401884078979492 -1.3746089935302734 0.6666666865348816 7.401884078979492 -0.041270170360803604 2
          7.401884078979492 -0.707939624786377 0.6666666865348816 7.401884078979492 -0.041270170360803604 1.3333330154418945
          7.401884078979492 -0.041270170360803604 0.6666666865348816 7.401884078979492 -1.3746089935302734 0
          7.401884078979492 0.6253991723060608 2 7.401884078979492 -0.707939624786377 0
          7.401884078979492 0.6253991723060608 1.3333330154418945 7.401884078979492 -0.041270170360803604 0
          7.401884078979492 0.6253991723060608 0.6666666865348816 7.401884078979492 0.6253991723060608 0
          5.401882171630859 -1.3746089935302734 0.6666666865348816 5.401882171630859 -0.041270170360803604 2
          5.401882171630859 -0.707939624786377 0.6666666865348816 5.401882171630859 -0.041270170360803604 1.3333330154418945
          5.401882171630859 -0.041270170360803604 0.6666666865348816 5.401882171630859 -1.3746089935302734 0
          5.401882171630859 0.6253991723060608 2 5.401882171630859 -0.707939624786377 0
          5.401882171630859 0.6253991723060608 1.3333330154418945 5.401882171630859 -0.041270170360803604 0
          5.401882171630859 0.6253991723060608 0.6666666865348816 5.401882171630859 0.6253991723060608 0
          3.401879072189331 -0.041270170360803604 0.6666666865348816 3.401879072189331 -0.041270170360803604 0
          3.401879072189331 0.6253991723060608 0.6666666865348816 3.401879072189331 0.6253991723060608 0
          3.401879072189331 -0.041270170360803604 1.3333330154418945 3.401879072189331 0.6253991723060608 1.3333330154418945
          3.401879072189331 -0.041270170360803604 2 3.401879072189331 0.6253991723060608 2
          3.401879072189331 -0.707939624786377 0.6666666865348816 3.401879072189331 -0.707939624786377 0
          5.401882171630859 -0.707939624786377 1.3333330154418945 3.401879072189331 -0.707939624786377 1.3333330154418945
          5.401882171630859 -0.707939624786377 2 3.401879072189331 -0.707939624786377 2
          3.401879072189331 -1.3746089935302734 0.6666666865348816 3.401879072189331 -1.3746089935302734 0
          5.401882171630859 -1.3746089935302734 1.3333330154418945 3.401879072189331 -1.3746089935302734 1.3333330154418945
          5.401882171630859 -1.3746089935302734 2
          <InformationKey name="L2_NORM_RANGE" location="vtkDataArray" length="2">
            <Value index="0">
              3.4021293992
            </Value>
            <Value index="1">
              11.657299898
            </Value>
          </InformationKey>
        </DataArray>
      </Points>
      <Cells>
        <DataArray type="Int64" Name="connectivity" format="ascii" RangeMin="0" RangeMax="78">
          23 8 18 29 30 20
          25 31 40 23 29 45
          46 30 31 47 52 40
          45 57 58 46 47 59
          60 52 57 61 62 58
          59 63 22 7 8 23
          28 15 20 30 39 22
          23 40 44 28 30 46
          51 39 40 52 56 44
          46 58 64 51 52 60
          65 56 58 62 19 5
          7 22 26 11 15 28
          37 19 22 39 42 26
          28 44 49 37 39 51
          54 42 44 56 66 49
          51 64 67 54 56 65
          21 6 12 27 23 8
          18 29 38 21 27 43
          40 23 29 45 50 38
          43 55 52 40 45 57
          68 50 55 69 60 52
          57 61 16 3 6 21
          22 7 8 23 35 16
          21 38 39 22 23 40
          70 35 38 50 51 39
          40 52 71 70 50 68
          64 51 52 60 14 2
          3 16 19 5 7 22
          34 14 16 35 37 19
          22 39 72 34 35 70
          49 37 39 51 73 72
          70 71 66 49 51 64
          17 4 9 24 21 6
          12 27 36 17 24 41
          38 21 27 43 48 36
          41 53 50 38 43 55
          74 48 53 75 68 50
          55 69 13 1 4 17
          16 3 6 21 33 13
          17 36 35 16 21 38
          76 33 36 48 70 35
          38 50 77 76 48 74
          71 70 50 68 10 0
          1 13 14 2 3 16
          32 10 13 33 34 14
          16 35 78 32 33 76
          72 34 35 70
        </DataArray>
        <DataArray type="Int64" Name="offsets" format="ascii" RangeMin="8" RangeMax="280">
          8 16 24 32 40 48
          56 64 72 80 88 96
          104 112 120 128 136 144
          152 160 168 176 184 192
          200 208 216 224 232 240
          248 256 264 272 280
        </DataArray>
        <DataArray type="UInt8" Name="types" format="ascii" RangeMin="12" RangeMax="12">
          12 12 12 12 12 12
          12 12 12 12 12 12
          12 12 12 12 12 12
          12 12 12 12 12 12
          12 12 12 12 12 12
          12 12 12 12 12
        </DataArray>
      </Cells>
    </Piece>
  </UnstructuredGrid>
</VTKFile>
