<?xml version="1.0"?>
<VTKFile type="UnstructuredGrid" version="0.1" byte_order="LittleEndian" header_type="UInt32" compressor="vtkZLibDataCompressor">
  <UnstructuredGrid>
    <Piece NumberOfPoints="79" NumberOfCells="35">
      <PointData>
        <DataArray type="Float64" Name="plcd_BC" NumberOfComponents="3" format="ascii" RangeMin="0" RangeMax="0">
          0 0 0 0 0 0
          0 0 0 0 0 0
          0 0 0 0 0 0
          0 0 0 0 0 0
          0 0 0 0 0 0
          0 0 0 0 0 0
          0 0 0 0 0 0
          0 0 0 0 0 0
          0 0 0 0 0 0
          0 0 0 0 0 0
          0 0 0 0 0 0
          0 0 0 0 0 0
          0 0 0 0 0 0
          0 0 0 0 0 0
          0 0 0 0 0 0
          0 0 0 0 0 0
          0 0 0 0 0 0
          0 0 0 0 0 0
          0 0 0 0 0 0
          0 0 0 0 0 0
          0 0 0 0 0 0
          0 0 0 0 0 0
          0 0 0 0 0 0
          0 0 0 0 0 0
          0 0 0 0 0 0
          0 0 0 0 0 0
          0 0 0 0 0 0
          0 0 0 0 0 0
          0 0 0 0 0 0
          0 0 0 0 0 0
          0 0 0 0 0 0
          0 0 0 0 0 0
          0 0 0 0 0 0
          0 0 0 0 0 0
          0 0 0 0 0 0
          0 0 0 0 0 0
          0 0 0 0 0 0
          0 0 0 0 0 0
          0 0 0 0 0 0
          0 0 0
          <InformationKey name="L2_NORM_RANGE" location="vtkDataArray" length="2">
            <Value index="0">
              0
            </Value>
            <Value index="1">
              0
            </Value>
          </InformationKey>
        </DataArray>
        <DataArray type="Float64" Name="plcd_FIXNO" NumberOfComponents="3" format="ascii" RangeMin="1.7320508075688772" RangeMax="1.7320508075688772">
          -1 -1 -1 -1 -1 -1
          -1 -1 -1 -1 -1 -1
          -1 -1 -1 -1 -1 -1
          -1 -1 -1 -1 -1 -1
          -1 -1 -1 -1 -1 -1
          -1 -1 -1 -1 -1 -1
          -1 -1 -1 -1 -1 -1
          -1 -1 -1 -1 -1 -1
          -1 -1 -1 -1 -1 -1
          -1 -1 -1 -1 -1 -1
          -1 -1 -1 -1 -1 -1
          -1 -1 -1 -1 -1 -1
          -1 -1 -1 -1 -1 -1
          -1 -1 -1 -1 -1 -1
          -1 -1 -1 -1 -1 -1
          -1 -1 -1 -1 -1 -1
          -1 -1 -1 -1 -1 -1
          -1 -1 -1 -1 -1 -1
          -1 -1 -1 -1 -1 -1
          -1 -1 -1 -1 -1 -1
          -1 -1 -1 -1 -1 -1
          -1 -1 -1 -1 -1 -1
          -1 -1 -1 -1 -1 -1
          -1 -1 -1 -1 -1 -1
          -1 -1 -1 -1 -1 -1
          -1 -1 -1 -1 -1 -1
          -1 -1 -1 -1 -1 -1
          -1 -1 -1 -1 -1 -1
          -1 -1 -1 -1 -1 -1
          -1 -1 -1 -1 -1 -1
          -1 -1 -1 -1 -1 -1
          -1 -1 -1 -1 -1 -1
          -1 -1 -1 -1 -1 -1
          -1 -1 -1 -1 -1 -1
          -1 -1 -1 -1 -1 -1
          -1 -1 -1 -1 -1 -1
          -1 -1 -1 -1 -1 -1
          -1 -1 -1 -1 -1 -1
          -1 -1 -1 -1 -1 -1
          -1 -1 -1
          <InformationKey name="L2_NORM_RANGE" location="vtkDataArray" length="2">
            <Value index="0">
              1.7320508076
            </Value>
            <Value index="1">
              1.7320508076
            </Value>
          </InformationKey>
        </DataArray>
        <DataArray type="Float64" Name="Displacement" NumberOfComponents="3" format="ascii" RangeMin="0" RangeMax="0.0008664122777759173">
          -0.00015234362296568055 -0.0004952775436684394 -0.0000025098890491692184 -0.00015252271980350702 -0.0004926145577963583 -0.000005448779085895678
          -0.000050446700302462 -0.0004932575619820214 -8.237978281145886e-7 -0.00005061074778244322 -0.0004906064598087318 -0.0000018157125621818227
          -0.000152240346038037 -0.0004880165786069907 -0.000008345231054616507 0.000050446629583325995 -0.0004932565556972551 8.238293570210242e-7
          -0.00005061046816685609 -0.00048600905689004663 -0.000002781662294098258 0.00005061030520987077 -0.0004906063706198239 0.0000018155745259715384
          -0.0001523438251162876 -0.0004814873421561394 -0.000011281323002810224 0.00015234375860569743 -0.000495279181715117 0.0000025097870064682616
          -0.00005072943464285804 -0.0004794629650462344 -0.000003773696350056195 0.00015252354026695084 -0.0004926138612724961 0.000005448830547232696
          -0.00010699059684556247 -0.00022985836176989688 2.6737331502040767e-7 -0.000107382980863804 -0.0002289977882206176 -0.00000291465976412403
          -0.000035388838091840814 -0.0002277577519032508 1.140774194038186e-7 -0.000035680971642915036 -0.00022690399445709627 -9.69269361739855e-7
          -0.00010711114500690966 -0.00022594460627912093 -0.000006239697362955762 0.00003538884022805611 -0.00022775797269827312 -1.1410824498269732e-7
          -0.000035681050226919445 -0.00022385042773624382 -0.0000020843171244982675 0.00003568108364408973 -0.00022690396757482748 9.692846276551904e-7
          0.00003568101329218902 -0.00022385037451556447 0.000002084311395829644 -0.00010699053287299091 -0.00022069470400898014 -0.000009430814827753217
          0.00010699052485564117 -0.00022985786273825936 -2.674168267450926e-7 -0.00003566058293806595 -0.000218603598673713 -0.0000031673811441471992
          0.00010738279927016494 -0.00022899789226664755 0.0000029146043746085576 0.000035660572928753716 -0.00021860355227474042 0.0000031674343426341234
          0.00010711114844789284 -0.00022594448361295988 0.000006239696536929527 0.00010699061864352149 -0.0002206946690081952 0.00000943087787046985
          -0.000055930243497142745 -0.00006158931994457441 0.000004441597369322793 -0.000055654633023171546 -0.00006294407940149892 -9.010936516183948e-8
          -0.000018205251585051856 -0.00005837328930744088 0.000001516380509464358 -0.000018100453376195137 -0.000059703149756146985 -1.811686964498831e-8
          -0.00005531966637315783 -0.00006144941035733921 -0.000004406776942733727 0.000018205270597699053 -0.00005837324110008867 -0.000001516388033586632
          -0.000018100439322973484 -0.00005820897447290354 -0.0000014760800090917012 0.000018100437506004176 -0.000059703164213806426 1.8100587591140378e-8
          0.00001810045345093969 -0.00005820898548393479 0.0000014760708230651924 -0.000055930275480018905 -0.00005711315953353207 -0.000008917854151763937
          0.00005593027083875535 -0.00006158945008876312 -0.000004441593605782251 -0.00001854025792368271 -0.0000538763995879159 -0.000003011049588431011
          0.00005565466667908188 -0.00006294406427414616 9.011168153308072e-8 0.000018540267472336396 -0.00005387640484702614 0.000003011025623881352
          0.000055319650256879494 -0.00006144943600537635 0.000004406764470730194 0.00005593025308400884 -0.000057113157679679426 0.000008917830344874892
          0 0 0 0 0 0
          0 0 0 0 0 0
          0 0 0 0 0 0
          0 0 0 0 0 0
          0 0 0 0 0 0
          0 0 0 0 0 0
          0 0 0 0 0 0
          0 0 0 0 0 0
          0.00006371668169733667 -0.0008387946013329266 0.000002651436193364866 0.0000637158159431814 -0.0008326492320901809 0.0000034932398497695124
          0.00005061057669374919 -0.00048600922954235217 0.000002781659318658383 0.00019174074255422783 -0.0008404807864778352 0.000007960322701077433
          0.00019146016684533192 -0.0008343337275120458 0.000010473026433532298 0.00015224059626420174 -0.0004880170079462056 0.000008345222555253756
          0.00006352585996805182 -0.0008432726382196176 0.0000018066763701392148 0.0001915187526314228 -0.0008449571774746316 0.000005471870853696316
          -0.0000637159947775179 -0.0008326495466390306 -0.0000034936840377681756 -0.00006380629398290604 -0.0008248375623432856 -0.0000043379733499881745
          0.00006380713380425512 -0.0008248368117894528 0.000004337968518796084 0.000050729325456676 -0.0004794631829865234 0.0000037735068180481686
          -0.00006371511495630027 -0.000838793418775143 -0.0000026508897877990102 -0.00006352581771684981 -0.0008432681751963148 -0.0000018065710643417105
          -0.00019146178964427917 -0.0008343347962192717 -0.000010473367369142578 -0.00019151811238355136 -0.000826525517198073 -0.00001296292901498126
          -0.00019174336412805507 -0.0008404766913616594 -0.000007959990780663758 -0.00019151802886821528 -0.000844962219522647 -0.000005470583026404607
          0.00015234352935965625 -0.0004814875240461432 0.000011281085367068524
          <InformationKey name="L2_NORM_RANGE" location="vtkDataArray" length="2">
            <Value index="0">
              0
            </Value>
            <Value index="1">
              0.00086641227778
            </Value>
          </InformationKey>
        </DataArray>
      </PointData>
      <CellData>
        <DataArray type="UInt8" Name="vtkGhostType" format="ascii" RangeMin="0" RangeMax="1">
          1 1 0 1 1 1
          1 0 1 0 1 0
          1 0 1 0 0 1
          0 0 0 0 1 0
          0 0 0 0 0 0
          0 0 0 0 0
        </DataArray>
        <DataArray type="Float64" Name="Stress" NumberOfComponents="6" format="ascii" RangeMin="27430.15491178915" RangeMax="2360382.3614686527">
          1570367.719913457 -1607.3708279641032 4675.206156962896 -68680.05905863873 48837.222068729694 -19.13808760955544
          1568342.3697444375 -3311.50834516183 1776.6272192973554 -100851.95180022606 31137.19870606805 433.4584895501048
          1813234.0045950953 13822.858603520115 14853.000419387665 -104749.68777359252 24866.05196022183 1519.5570178916714
          16.85042560272268 33.73319296117552 -0.753450261816397 -67296.71739764573 -16.48350662795633 1054.8913330122068
          27.78358246423886 -28.948090587167826 38.254450203548004 -109972.1181014726 23.718957926158055 -0.5145567118688632
          -8.489104535270599 -3.5424491198537 -7.65960748098405 -100576.96576286583 -8.411405057315733 0.28994796700862935
          -29.089927248773165 -224.61736219566228 -65.49758399723123 -164949.77440526005 -16.73361529998442 -1109.093402249222
          3.2082030064921128 44.51522418032255 15.578229943858787 -158947.96610985952 4.307959923011481 -368.04585043462794
          -1568317.4803603853 3498.7840261348756 -1822.979270174852 -45058.275744440965 -24662.175619031128 -388.14057477622555
          -1813238.8700045631 -14081.482702995381 -14633.455536866386 -48795.58163319569 -31088.404775512077 -1527.4975172690301
          -1570431.3487327914 1521.0420975880843 -4635.221474787864 -68576.55467635747 -48821.79396164743 77.54722475940434
          -1806118.6672479059 -11838.142609429731 -8158.806783139327 -71471.04222792602 -48636.35321247224 -89.18145765716872
          -1568286.238076676 3546.1167469043066 -1691.682748166888 -100784.37299039793 -31094.10672180372 331.85847419681704
          -1813243.9216150313 -13893.862117400706 -14870.810599191329 -104770.1717435764 -24872.140726296835 1539.810165952198
          1813239.1260648938 14076.77490098065 14645.701037644389 -48801.399056513386 31097.175401835142 -1530.2030534661226
          2040055.2594128519 -61676.31785556211 -48955.02204099403 -39289.22821866881 2369.5308572352096 1687.5763063347113
          2328523.694805041 254283.93065900676 270318.68457775726 -42279.63057303833 90870.39088551159 3135.1984137767995
          1806135.2716603165 11855.077465756334 8160.959922968297 -71448.8128899076 48635.719406423304 -65.87140099213502
          2060431.479834532 -55543.54571436053 -38637.17463226286 -59980.744414334855 49816.152906530275 140.5599395611971
          2320042.372862052 254517.16272306407 280799.32344067364 -111483.71497835926 43363.90634150668 258.17212566429043
          2040056.1769155134 -61245.94484874391 -49371.97801672424 -93976.48316884623 52313.29333360665 -1685.0415722553753
          2328523.0283000357 255030.30522971821 269567.61064835323 -103964.28466634854 -29184.6219237502 -3135.9970369369676
          -1.4179417386912974 -12.812981744711578 2.7548293484633177 -61674.38272147185 2.0602440243501405 522.1931052061518
          -0.6645889755454846 3.3106348007677298 -1.431018735335556 -79617.58602731497 0.08418570149342486 5927.791419296003
          0.379698634846136 -0.5188982882900746 0.6358015812511439 -26821.46877335373 -0.12032607121182082 5746.495496614709
          2.2197412188979797 3.2994131910854776 1.78445781796745 -125878.8813504192 2.4286283965359416 -0.10594620887604833
          -0.46791246460634284 -1.3934934457138297 -0.7102166470576776 -115410.66599295917 -0.7156771233185282 0.004573396763589699
          -0.7851932878838852 -8.117614255948865 -3.5495990630330425 -179250.3899076453 -1.343180275227951 -6213.661601419488
          0.6254399478784762 1.841632577132259 0.9121919540484669 -113549.20629671199 0.5010886972287167 -6261.999780297952
          -2040054.9232340124 61677.807257475215 48951.05470113052 -39292.6285955522 -2370.2503120321185 1686.2055114119248
          -2328523.69891892 -254284.0415183204 -270317.53361879656 -42278.288270838675 -90870.61930866171 3135.867545711966
          -2060434.4687083627 55540.28212018426 38634.697168238126 -59977.411689368455 -49816.524984936616 145.5016172014948
          -2320041.8051879 -254516.24581583508 -280798.66552275856 -111483.91301755965 -43363.759450287034 257.19074840554094
          -2040054.0177162257 61266.97848684645 49375.76812600135 -93972.65416563526 -52313.36655245211 -1689.1192916552736
          -2328523.814973801 -255037.43044944387 -269568.8129166764 -103964.91974923993 29185.043283244766 -3135.0143091628906
          <InformationKey name="L2_NORM_RANGE" location="vtkDataArray" length="2">
            <Value index="0">
              27430.154912
            </Value>
            <Value index="1">
              2360382.3615
            </Value>
          </InformationKey>
        </DataArray>
        <DataArray type="Float64" Name="Damage" format="ascii" RangeMin="0" RangeMax="0">
          0 0 0 0 0 0
          0 0 0 0 0 0
          0 0 0 0 0 0
          0 0 0 0 0 0
          0 0 0 0 0 0
          0 0 0 0 0
        </DataArray>
        <DataArray type="Float64" Name="Tau" format="ascii" RangeMin="8040844.011283461" RangeMax="8040844.011283461">
          8040844.011283461 8040844.011283461 8040844.011283461 8040844.011283461 8040844.011283461 8040844.011283461
          8040844.011283461 8040844.011283461 8040844.011283461 8040844.011283461 8040844.011283461 8040844.011283461
          8040844.011283461 8040844.011283461 8040844.011283461 8040844.011283461 8040844.011283461 8040844.011283461
          8040844.011283461 8040844.011283461 8040844.011283461 8040844.011283461 8040844.011283461 8040844.011283461
          8040844.011283461 8040844.011283461 8040844.011283461 8040844.011283461 8040844.011283461 8040844.011283461
          8040844.011283461 8040844.011283461 8040844.011283461 8040844.011283461 8040844.011283461
        </DataArray>
        <DataArray type="Float64" Name="ComparisonRatio" format="ascii" RangeMin="0.09060473023620762" RangeMax="0.5218401533847569">
          0.3141692011734765 0.3149308407941941 0.3638605560053014 0.09151474961506453 0.09060473023620762 0.105006770637217
          0.09331142154378576 0.10737183861115114 0.31457524350477434 0.36357344853582874 0.31416766749625313 0.3636660290984045
          0.31493463572585667 0.36386074472936086 0.36357318720676574 0.4087345213100111 0.512657546206109 0.363664600586789
          0.40924282596205497 0.5205089085762646 0.4089779886816932 0.5218399951071984 0.10577034694251077 0.11958284928571425
          0.2595747348114601 0.11879434370269605 0.275343371939085 0.12086349103819727 0.2772238096579468 0.4087344984838676
          0.512657478014724 0.4092423642258664 0.520508985509463 0.40897766179184347 0.5218401533847569
        </DataArray>
      </CellData>
      <Points>
        <DataArray type="Float32" Name="Points" NumberOfComponents="3" format="ascii" RangeMin="0.5995491172905656" RangeMax="8.934065394197013">
          -2.598129987716675 -1.3746089935302734 2 -2.598129987716675 -1.3746089935302734 1.3333330154418945
          -2.598129987716675 -0.707939624786377 2 -2.598129987716675 -0.707939624786377 1.3333330154418945
          -2.598129987716675 -1.3746089935302734 0.6666666865348816 -2.598129987716675 -0.041270170360803604 2
          -2.598129987716675 -0.707939624786377 0.6666666865348816 -2.598129987716675 -0.041270170360803604 1.3333330154418945
          -2.598129987716675 -1.3746089935302734 0 -2.598129987716675 0.6253991723060608 2
          -2.598129987716675 -0.707939624786377 0 -2.598129987716675 0.6253991723060608 1.3333330154418945
          -4.598133087158203 -1.3746089935302734 2 -4.598133087158203 -1.3746089935302734 1.3333330154418945
          -4.598133087158203 -0.707939624786377 2 -4.598133087158203 -0.707939624786377 1.3333330154418945
          -4.598133087158203 -1.3746089935302734 0.6666666865348816 -4.598133087158203 -0.041270170360803604 2
          -4.598133087158203 -0.707939624786377 0.6666666865348816 -4.598133087158203 -0.041270170360803604 1.3333330154418945
          -4.598133087158203 -0.041270170360803604 0.6666666865348816 -4.598133087158203 -1.3746089935302734 0
          -4.598133087158203 0.6253991723060608 2 -4.598133087158203 -0.707939624786377 0
          -4.598133087158203 0.6253991723060608 1.3333330154418945 -4.598133087158203 -0.041270170360803604 0
          -4.598133087158203 0.6253991723060608 0.6666666865348816 -4.598133087158203 0.6253991723060608 0
          -6.598135948181152 -1.3746089935302734 2 -6.598135948181152 -1.3746089935302734 1.3333330154418945
          -6.598135948181152 -0.707939624786377 2 -6.598135948181152 -0.707939624786377 1.3333330154418945
          -6.598135948181152 -1.3746089935302734 0.6666666865348816 -6.598135948181152 -0.041270170360803604 2
          -6.598135948181152 -0.707939624786377 0.6666666865348816 -6.598135948181152 -0.041270170360803604 1.3333330154418945
          -6.598135948181152 -0.041270170360803604 0.6666666865348816 -6.598135948181152 -1.3746089935302734 0
          -6.598135948181152 0.6253991723060608 2 -6.598135948181152 -0.707939624786377 0
          -6.598135948181152 0.6253991723060608 1.3333330154418945 -6.598135948181152 -0.041270170360803604 0
          -6.598135948181152 0.6253991723060608 0.6666666865348816 -6.598135948181152 0.6253991723060608 0
          -8.598137855529785 -1.3746089935302734 2 -8.598137855529785 -1.3746089935302734 1.3333330154418945
          -8.598137855529785 -0.707939624786377 2 -8.598137855529785 -0.707939624786377 1.3333330154418945
          -8.598137855529785 -1.3746089935302734 0.6666666865348816 -8.598137855529785 -0.041270170360803604 2
          -8.598137855529785 -0.707939624786377 0.6666666865348816 -8.598137855529785 -0.041270170360803604 1.3333330154418945
          -8.598137855529785 -0.041270170360803604 0.6666666865348816 -8.598137855529785 -1.3746089935302734 0
          -8.598137855529785 0.6253991723060608 2 -8.598137855529785 -0.707939624786377 0
          -8.598137855529785 0.6253991723060608 1.3333330154418945 -8.598137855529785 -0.041270170360803604 0
          -8.598137855529785 0.6253991723060608 0.6666666865348816 -8.598137855529785 0.6253991723060608 0
          -0.598127007484436 -0.041270170360803604 1.3333330154418945 -0.598127007484436 -0.041270170360803604 0.6666666865348816
          -2.598129987716675 -0.041270170360803604 0.6666666865348816 -0.598127007484436 0.6253991723060608 1.3333330154418945
          -0.598127007484436 0.6253991723060608 0.6666666865348816 -2.598129987716675 0.6253991723060608 0.6666666865348816
          -0.598127007484436 -0.041270170360803604 2 -0.598127007484436 0.6253991723060608 2
          -0.598127007484436 -0.707939624786377 0.6666666865348816 -0.598127007484436 -0.707939624786377 0
          -0.598127007484436 -0.041270170360803604 0 -2.598129987716675 -0.041270170360803604 0
          -0.598127007484436 -0.707939624786377 1.3333330154418945 -0.598127007484436 -0.707939624786377 2
          -0.598127007484436 -1.3746089935302734 0.6666666865348816 -0.598127007484436 -1.3746089935302734 0
          -0.598127007484436 -1.3746089935302734 1.3333330154418945 -0.598127007484436 -1.3746089935302734 2
          -2.598129987716675 0.6253991723060608 0
          <InformationKey name="L2_NORM_RANGE" location="vtkDataArray" length="2">
            <Value index="0">
              0.59954911729
            </Value>
            <Value index="1">
              8.9340653942
            </Value>
          </InformationKey>
        </DataArray>
      </Points>
      <Cells>
        <DataArray type="Int64" Name="connectivity" format="ascii" RangeMin="0" RangeMax="78">
          7 60 61 62 11 63
          64 65 5 66 60 7
          9 67 63 11 17 5
          7 19 22 9 11 24
          6 68 69 10 62 61
          70 71 3 72 68 6
          7 60 61 62 15 3
          6 18 19 7 62 20
          2 73 72 3 5 66
          60 7 14 2 3 15
          17 5 7 19 4 74
          75 8 6 68 69 10
          16 4 8 21 18 6
          10 23 1 76 74 4
          3 72 68 6 13 1
          4 16 15 3 6 18
          0 77 76 1 2 73
          72 3 12 0 1 13
          14 2 3 15 20 62
          71 25 26 65 78 27
          36 20 25 41 42 26
          27 43 52 36 41 57
          58 42 43 59 19 7
          62 20 24 11 65 26
          35 19 20 36 40 24
          26 42 51 35 36 52
          56 40 42 58 33 17
          19 35 38 22 24 40
          49 33 35 51 54 38
          40 56 18 6 10 23
          20 62 71 25 34 18
          23 39 36 20 25 41
          50 34 39 55 52 36
          41 57 31 15 18 34
          35 19 20 36 47 31
          34 50 51 35 36 52
          30 14 15 31 33 17
          19 35 46 30 31 47
          49 33 35 51 32 16
          21 37 34 18 23 39
          48 32 37 53 50 34
          39 55 29 13 16 32
          31 15 18 34 45 29
          32 48 47 31 34 50
          28 12 13 29 30 14
          15 31 44 28 29 45
          46 30 31 47
        </DataArray>
        <DataArray type="Int64" Name="offsets" format="ascii" RangeMin="8" RangeMax="280">
          8 16 24 32 40 48
          56 64 72 80 88 96
          104 112 120 128 136 144
          152 160 168 176 184 192
          200 208 216 224 232 240
          248 256 264 272 280
        </DataArray>
        <DataArray type="UInt8" Name="types" format="ascii" RangeMin="12" RangeMax="12">
          12 12 12 12 12 12
          12 12 12 12 12 12
          12 12 12 12 12 12
          12 12 12 12 12 12
          12 12 12 12 12 12
          12 12 12 12 12
        </DataArray>
      </Cells>
    </Piece>
  </UnstructuredGrid>
</VTKFile>
