<?xml version="1.0"?>
<VTKFile type="UnstructuredGrid" version="0.1" byte_order="LittleEndian" header_type="UInt32" compressor="vtkZLibDataCompressor">
  <UnstructuredGrid>
    <Piece NumberOfPoints="79" NumberOfCells="35">
      <PointData>
        <DataArray type="Float64" Name="plcd_BC" NumberOfComponents="3" format="ascii" RangeMin="0" RangeMax="0">
          0 0 0 0 0 0
          0 0 0 0 0 0
          0 0 0 0 0 0
          0 0 0 0 0 0
          0 0 0 0 0 0
          0 0 0 0 0 0
          0 0 0 0 0 0
          0 0 0 0 0 0
          0 0 0 0 0 0
          0 0 0 0 0 0
          0 0 0 0 0 0
          0 0 0 0 0 0
          0 0 0 0 0 0
          0 0 0 0 0 0
          0 0 0 0 0 0
          0 0 0 0 0 0
          0 0 0 0 0 0
          0 0 0 0 0 0
          0 0 0 0 0 0
          0 0 0 0 0 0
          0 0 0 0 0 0
          0 0 0 0 0 0
          0 0 0 0 0 0
          0 0 0 0 0 0
          0 0 0 0 0 0
          0 0 0 0 0 0
          0 0 0 0 0 0
          0 0 0 0 0 0
          0 0 0 0 0 0
          0 0 0 0 0 0
          0 0 0 0 0 0
          0 0 0 0 0 0
          0 0 0 0 0 0
          0 0 0 0 0 0
          0 0 0 0 0 0
          0 0 0 0 0 0
          0 0 0 0 0 0
          0 0 0 0 0 0
          0 0 0 0 0 0
          0 0 0
          <InformationKey name="L2_NORM_RANGE" location="vtkDataArray" length="2">
            <Value index="0">
              0
            </Value>
            <Value index="1">
              0
            </Value>
          </InformationKey>
        </DataArray>
        <DataArray type="Float64" Name="plcd_FIXNO" NumberOfComponents="3" format="ascii" RangeMin="1.7320508075688772" RangeMax="1.7320508075688772">
          -1 -1 -1 -1 -1 -1
          -1 -1 -1 -1 -1 -1
          -1 -1 -1 -1 -1 -1
          -1 -1 -1 -1 -1 -1
          -1 -1 -1 -1 -1 -1
          -1 -1 -1 -1 -1 -1
          -1 -1 -1 -1 -1 -1
          -1 -1 -1 -1 -1 -1
          -1 -1 -1 -1 -1 -1
          -1 -1 -1 -1 -1 -1
          -1 -1 -1 -1 -1 -1
          -1 -1 -1 -1 -1 -1
          -1 -1 -1 -1 -1 -1
          -1 -1 -1 -1 -1 -1
          -1 -1 -1 -1 -1 -1
          -1 -1 -1 -1 -1 -1
          -1 -1 -1 -1 -1 -1
          -1 -1 -1 -1 -1 -1
          -1 -1 -1 -1 -1 -1
          -1 -1 -1 -1 -1 -1
          -1 -1 -1 -1 -1 -1
          -1 -1 -1 -1 -1 -1
          -1 -1 -1 -1 -1 -1
          -1 -1 -1 -1 -1 -1
          -1 -1 -1 -1 -1 -1
          -1 -1 -1 -1 -1 -1
          -1 -1 -1 -1 -1 -1
          -1 -1 -1 -1 -1 -1
          -1 -1 -1 -1 -1 -1
          -1 -1 -1 -1 -1 -1
          -1 -1 -1 -1 -1 -1
          -1 -1 -1 -1 -1 -1
          -1 -1 -1 -1 -1 -1
          -1 -1 -1 -1 -1 -1
          -1 -1 -1 -1 -1 -1
          -1 -1 -1 -1 -1 -1
          -1 -1 -1 -1 -1 -1
          -1 -1 -1 -1 -1 -1
          -1 -1 -1 -1 -1 -1
          -1 -1 -1
          <InformationKey name="L2_NORM_RANGE" location="vtkDataArray" length="2">
            <Value index="0">
              1.7320508076
            </Value>
            <Value index="1">
              1.7320508076
            </Value>
          </InformationKey>
        </DataArray>
      </PointData>
      <CellData>
        <DataArray type="UInt8" Name="vtkGhostType" format="ascii" RangeMin="0" RangeMax="1">
          1 1 0 1 1 1
          1 0 1 0 1 0
          1 0 1 0 0 1
          0 0 0 0 1 0
          0 0 0 0 0 0
          0 0 0 0 0
        </DataArray>
      </CellData>
      <Points>
        <DataArray type="Float32" Name="Points" NumberOfComponents="3" format="ascii" RangeMin="0.5995491172905656" RangeMax="8.934065394197013">
          -2.598129987716675 -1.3746089935302734 2 -2.598129987716675 -1.3746089935302734 1.3333330154418945
          -2.598129987716675 -0.707939624786377 2 -2.598129987716675 -0.707939624786377 1.3333330154418945
          -2.598129987716675 -1.3746089935302734 0.6666666865348816 -2.598129987716675 -0.041270170360803604 2
          -2.598129987716675 -0.707939624786377 0.6666666865348816 -2.598129987716675 -0.041270170360803604 1.3333330154418945
          -2.598129987716675 -1.3746089935302734 0 -2.598129987716675 0.6253991723060608 2
          -2.598129987716675 -0.707939624786377 0 -2.598129987716675 0.6253991723060608 1.3333330154418945
          -4.598133087158203 -1.3746089935302734 2 -4.598133087158203 -1.3746089935302734 1.3333330154418945
          -4.598133087158203 -0.707939624786377 2 -4.598133087158203 -0.707939624786377 1.3333330154418945
          -4.598133087158203 -1.3746089935302734 0.6666666865348816 -4.598133087158203 -0.041270170360803604 2
          -4.598133087158203 -0.707939624786377 0.6666666865348816 -4.598133087158203 -0.041270170360803604 1.3333330154418945
          -4.598133087158203 -0.041270170360803604 0.6666666865348816 -4.598133087158203 -1.3746089935302734 0
          -4.598133087158203 0.6253991723060608 2 -4.598133087158203 -0.707939624786377 0
          -4.598133087158203 0.6253991723060608 1.3333330154418945 -4.598133087158203 -0.041270170360803604 0
          -4.598133087158203 0.6253991723060608 0.6666666865348816 -4.598133087158203 0.6253991723060608 0
          -6.598135948181152 -1.3746089935302734 2 -6.598135948181152 -1.3746089935302734 1.3333330154418945
          -6.598135948181152 -0.707939624786377 2 -6.598135948181152 -0.707939624786377 1.3333330154418945
          -6.598135948181152 -1.3746089935302734 0.6666666865348816 -6.598135948181152 -0.041270170360803604 2
          -6.598135948181152 -0.707939624786377 0.6666666865348816 -6.598135948181152 -0.041270170360803604 1.3333330154418945
          -6.598135948181152 -0.041270170360803604 0.6666666865348816 -6.598135948181152 -1.3746089935302734 0
          -6.598135948181152 0.6253991723060608 2 -6.598135948181152 -0.707939624786377 0
          -6.598135948181152 0.6253991723060608 1.3333330154418945 -6.598135948181152 -0.041270170360803604 0
          -6.598135948181152 0.6253991723060608 0.6666666865348816 -6.598135948181152 0.6253991723060608 0
          -8.598137855529785 -1.3746089935302734 2 -8.598137855529785 -1.3746089935302734 1.3333330154418945
          -8.598137855529785 -0.707939624786377 2 -8.598137855529785 -0.707939624786377 1.3333330154418945
          -8.598137855529785 -1.3746089935302734 0.6666666865348816 -8.598137855529785 -0.041270170360803604 2
          -8.598137855529785 -0.707939624786377 0.6666666865348816 -8.598137855529785 -0.041270170360803604 1.3333330154418945
          -8.598137855529785 -0.041270170360803604 0.6666666865348816 -8.598137855529785 -1.3746089935302734 0
          -8.598137855529785 0.6253991723060608 2 -8.598137855529785 -0.707939624786377 0
          -8.598137855529785 0.6253991723060608 1.3333330154418945 -8.598137855529785 -0.041270170360803604 0
          -8.598137855529785 0.6253991723060608 0.6666666865348816 -8.598137855529785 0.6253991723060608 0
          -0.598127007484436 -0.041270170360803604 1.3333330154418945 -0.598127007484436 -0.041270170360803604 0.6666666865348816
          -2.598129987716675 -0.041270170360803604 0.6666666865348816 -0.598127007484436 0.6253991723060608 1.3333330154418945
          -0.598127007484436 0.6253991723060608 0.6666666865348816 -2.598129987716675 0.6253991723060608 0.6666666865348816
          -0.598127007484436 -0.041270170360803604 2 -0.598127007484436 0.6253991723060608 2
          -0.598127007484436 -0.707939624786377 0.6666666865348816 -0.598127007484436 -0.707939624786377 0
          -0.598127007484436 -0.041270170360803604 0 -2.598129987716675 -0.041270170360803604 0
          -0.598127007484436 -0.707939624786377 1.3333330154418945 -0.598127007484436 -0.707939624786377 2
          -0.598127007484436 -1.3746089935302734 0.6666666865348816 -0.598127007484436 -1.3746089935302734 0
          -0.598127007484436 -1.3746089935302734 1.3333330154418945 -0.598127007484436 -1.3746089935302734 2
          -2.598129987716675 0.6253991723060608 0
          <InformationKey name="L2_NORM_RANGE" location="vtkDataArray" length="2">
            <Value index="0">
              0.59954911729
            </Value>
            <Value index="1">
              8.9340653942
            </Value>
          </InformationKey>
        </DataArray>
      </Points>
      <Cells>
        <DataArray type="Int64" Name="connectivity" format="ascii" RangeMin="0" RangeMax="78">
          7 60 61 62 11 63
          64 65 5 66 60 7
          9 67 63 11 17 5
          7 19 22 9 11 24
          6 68 69 10 62 61
          70 71 3 72 68 6
          7 60 61 62 15 3
          6 18 19 7 62 20
          2 73 72 3 5 66
          60 7 14 2 3 15
          17 5 7 19 4 74
          75 8 6 68 69 10
          16 4 8 21 18 6
          10 23 1 76 74 4
          3 72 68 6 13 1
          4 16 15 3 6 18
          0 77 76 1 2 73
          72 3 12 0 1 13
          14 2 3 15 20 62
          71 25 26 65 78 27
          36 20 25 41 42 26
          27 43 52 36 41 57
          58 42 43 59 19 7
          62 20 24 11 65 26
          35 19 20 36 40 24
          26 42 51 35 36 52
          56 40 42 58 33 17
          19 35 38 22 24 40
          49 33 35 51 54 38
          40 56 18 6 10 23
          20 62 71 25 34 18
          23 39 36 20 25 41
          50 34 39 55 52 36
          41 57 31 15 18 34
          35 19 20 36 47 31
          34 50 51 35 36 52
          30 14 15 31 33 17
          19 35 46 30 31 47
          49 33 35 51 32 16
          21 37 34 18 23 39
          48 32 37 53 50 34
          39 55 29 13 16 32
          31 15 18 34 45 29
          32 48 47 31 34 50
          28 12 13 29 30 14
          15 31 44 28 29 45
          46 30 31 47
        </DataArray>
        <DataArray type="Int64" Name="offsets" format="ascii" RangeMin="8" RangeMax="280">
          8 16 24 32 40 48
          56 64 72 80 88 96
          104 112 120 128 136 144
          152 160 168 176 184 192
          200 208 216 224 232 240
          248 256 264 272 280
        </DataArray>
        <DataArray type="UInt8" Name="types" format="ascii" RangeMin="12" RangeMax="12">
          12 12 12 12 12 12
          12 12 12 12 12 12
          12 12 12 12 12 12
          12 12 12 12 12 12
          12 12 12 12 12 12
          12 12 12 12 12
        </DataArray>
      </Cells>
    </Piece>
  </UnstructuredGrid>
</VTKFile>
