<?xml version="1.0"?>
<VTKFile type="UnstructuredGrid" version="0.1" byte_order="LittleEndian" header_type="UInt32" compressor="vtkZLibDataCompressor">
  <UnstructuredGrid>
    <Piece NumberOfPoints="118" NumberOfCells="193">
      <PointData>
        <DataArray type="Float64" Name="plcd_BC" NumberOfComponents="3" format="ascii" RangeMin="0" RangeMax="0">
          0 0 0 0 0 0
          0 0 0 0 0 0
          0 0 0 0 0 0
          0 0 0 0 0 0
          0 0 0 0 0 0
          0 0 0 0 0 0
          0 0 0 0 0 0
          0 0 0 0 0 0
          0 0 0 0 0 0
          0 0 0 0 0 0
          0 0 0 0 0 0
          0 0 0 0 0 0
          0 0 0 0 0 0
          0 0 0 0 0 0
          0 0 0 0 0 0
          0 0 0 0 0 0
          0 0 0 0 0 0
          0 0 0 0 0 0
          0 0 0 0 0 0
          0 0 0 0 0 0
          0 0 0 0 0 0
          0 0 0 0 0 0
          0 0 0 0 0 0
          0 0 0 0 0 0
          0 0 0 0 0 0
          0 0 0 0 0 0
          0 0 0 0 0 0
          0 0 0 0 0 0
          0 0 0 0 0 0
          0 0 0 0 0 0
          0 0 0 0 0 0
          0 0 0 0 0 0
          0 0 0 0 0 0
          0 0 0 0 0 0
          0 0 0 0 0 0
          0 0 0 0 0 0
          0 0 0 0 0 0
          0 0 0 0 0 0
          0 0 0 0 0 0
          0 0 0 0 0 0
          0 0 0 0 0 0
          0 0 0 0 0 0
          0 0 0 0 0 0
          0 0 0 0 0 0
          0 0 0 0 0 0
          0 0 0 0 0 0
          0 0 0 0 0 0
          0 0 0 0 0 0
          0 0 0 0 0 0
          0 0 0 0 0 0
          0 0 0 0 0 0
          0 0 0 0 0 0
          0 0 0 0 0 0
          0 0 0 0 0 0
          0 0 0 0 0 0
          0 0 0 0 0 0
          0 0 0 0 0 0
          0 0 0 0 0 0
          0 0 0 0 0 0
          <InformationKey name="L2_NORM_RANGE" location="vtkDataArray" length="2">
            <Value index="0">
              0
            </Value>
            <Value index="1">
              0
            </Value>
          </InformationKey>
        </DataArray>
        <DataArray type="Float64" Name="plcd_FIXNO" NumberOfComponents="3" format="ascii" RangeMin="1.4142135623730951" RangeMax="1.4142135623730951">
          -1 -1 0 -1 -1 0
          -1 -1 0 -1 -1 0
          -1 -1 0 -1 -1 0
          -1 -1 0 -1 -1 0
          -1 -1 0 -1 -1 0
          -1 -1 0 -1 -1 0
          -1 -1 0 -1 -1 0
          -1 -1 0 -1 -1 0
          -1 -1 0 -1 -1 0
          -1 -1 0 -1 -1 0
          -1 -1 0 -1 -1 0
          -1 -1 0 -1 -1 0
          -1 -1 0 -1 -1 0
          -1 -1 0 -1 -1 0
          -1 -1 0 -1 -1 0
          -1 -1 0 -1 -1 0
          -1 -1 0 -1 -1 0
          -1 -1 0 -1 -1 0
          -1 -1 0 -1 -1 0
          -1 -1 0 -1 -1 0
          -1 -1 0 -1 -1 0
          -1 -1 0 -1 -1 0
          -1 -1 0 -1 -1 0
          -1 -1 0 -1 -1 0
          -1 -1 0 -1 -1 0
          -1 -1 0 -1 -1 0
          -1 -1 0 -1 -1 0
          -1 -1 0 -1 -1 0
          -1 -1 0 -1 -1 0
          -1 -1 0 -1 -1 0
          -1 -1 0 -1 -1 0
          -1 -1 0 -1 -1 0
          -1 -1 0 -1 -1 0
          -1 -1 0 -1 -1 0
          -1 -1 0 -1 -1 0
          -1 -1 0 -1 -1 0
          -1 -1 0 -1 -1 0
          -1 -1 0 -1 -1 0
          -1 -1 0 -1 -1 0
          -1 -1 0 -1 -1 0
          -1 -1 0 -1 -1 0
          -1 -1 0 -1 -1 0
          -1 -1 0 -1 -1 0
          -1 -1 0 -1 -1 0
          -1 -1 0 -1 -1 0
          -1 -1 0 -1 -1 0
          -1 -1 0 -1 -1 0
          -1 -1 0 -1 -1 0
          -1 -1 0 -1 -1 0
          -1 -1 0 -1 -1 0
          -1 -1 0 -1 -1 0
          -1 -1 0 -1 -1 0
          -1 -1 0 -1 -1 0
          -1 -1 0 -1 -1 0
          -1 -1 0 -1 -1 0
          -1 -1 0 -1 -1 0
          -1 -1 0 -1 -1 0
          -1 -1 0 -1 -1 0
          -1 -1 0 -1 -1 0
          <InformationKey name="L2_NORM_RANGE" location="vtkDataArray" length="2">
            <Value index="0">
              1.4142135624
            </Value>
            <Value index="1">
              1.4142135624
            </Value>
          </InformationKey>
        </DataArray>
      </PointData>
      <CellData>
        <DataArray type="UInt8" Name="vtkGhostType" format="ascii" RangeMin="0" RangeMax="0">
          0 0 0 0 0 0
          0 0 0 0 0 0
          0 0 0 0 0 0
          0 0 0 0 0 0
          0 0 0 0 0 0
          0 0 0 0 0 0
          0 0 0 0 0 0
          0 0 0 0 0 0
          0 0 0 0 0 0
          0 0 0 0 0 0
          0 0 0 0 0 0
          0 0 0 0 0 0
          0 0 0 0 0 0
          0 0 0 0 0 0
          0 0 0 0 0 0
          0 0 0 0 0 0
          0 0 0 0 0 0
          0 0 0 0 0 0
          0 0 0 0 0 0
          0 0 0 0 0 0
          0 0 0 0 0 0
          0 0 0 0 0 0
          0 0 0 0 0 0
          0 0 0 0 0 0
          0 0 0 0 0 0
          0 0 0 0 0 0
          0 0 0 0 0 0
          0 0 0 0 0 0
          0 0 0 0 0 0
          0 0 0 0 0 0
          0 0 0 0 0 0
          0 0 0 0 0 0
          0
        </DataArray>
      </CellData>
      <Points>
        <DataArray type="Float32" Name="Points" NumberOfComponents="3" format="ascii" RangeMin="0" RangeMax="44.721359549995796">
          20 0 0 17.142860412597656 0 0
          20 3.07692289352417 0 15.714289665222168 2.598076105117798 0
          14.285710334777832 0 0 17.276609420776367 5.148927211761475 0
          20 6.15384578704834 0 12.857139587402344 2.598076105117798 0
          14.285710334777832 5.196152210235596 0 16.600820541381836 7.744351863861084 0
          11.428569793701172 0 0 20 9.230769157409668 0
          11.428569793701172 5.196152210235596 0 10 2.598076105117798 0
          12.857139587402344 7.794229030609131 0 17.392650604248047 10.318180084228516 0
          8.571429252624512 0 0 14.393610000610352 10.368370056152344 0
          20 12.307689666748047 0 8.705183982849121 5.148927211761475 0
          9.916531562805176 7.9144158363342285 0 7.142857074737549 2.598076105117798 0
          17.401920318603516 13.846150398254395 0 11.389470100402832 11.292019844055176 0
          5.714285850524902 0 0 14.15857982635498 13.896550178527832 0
          6.913722038269043 7.507989883422852 0 5.714285850524902 5.196152210235596 0
          20 15.38461971282959 0 8.205100059509277 10.54718017578125 0
          4.285714149475098 2.598076105117798 0 16.794490814208984 16.35247039794922 0
          2.857142925262451 0 0 11.456890106201172 15.17908000946045 0
          5.497054100036621 10.126099586486816 0 8.813469886779785 13.841790199279785 0
          13.886019706726074 16.874759674072266 0 2.7233870029449463 5.148927211761475 0
          3.3638670444488525 7.710293769836426 0 6.750640869140625 12.768179893493652 0
          20 18.46154022216797 0 16.714319229125977 19.340269088745117 0
          0 0 0 11.149399757385254 18.009180068969727 0
          0 3.07692289352417 0 2.698620080947876 10.608269691467285 0
          8.621106147766113 17.133760452270508 0 6.376333236694336 15.57509994506836 0
          0 6.15384578704834 0 3.988208055496216 13.82822036743164 0
          13.171680450439453 20.23896026611328 0 20 21.53845977783203 0
          9.5 19.133970260620117 0 11 20 0
          0 9.230769157409668 0 16.61212921142578 22.619760513305664 0
          9.5 20.866029739379883 0 5.350450038909912 18.197229385375977 0
          3.6483850479125977 16.79861068725586 0 7.701200008392334 20 0
          0 12.307689666748047 0 11.149399757385254 21.990819931030273 0
          13.446599960327148 23.67215919494629 0 20 24.615379333496094 0
          0 15.38461971282959 0 8.20721435546875 22.627269744873047 0
          5.0965142250061035 21.148759841918945 0 2.6349689960479736 19.45029067993164 0
          16.340179443359375 26.313289642333984 0 10.763529777526855 24.928010940551758 0
          0 18.46154022216797 0 13.206450462341309 26.653160095214844 0
          20 27.692310333251953 0 7.979757785797119 25.35063934326172 0
          5.260097980499268 24.106670379638672 0 2.5841939449310303 22.77117919921875 0
          9.588961601257324 27.230440139770508 0 0 21.53845977783203 0
          17.39912986755371 29.747650146484375 0 14.402640342712402 29.76085090637207 0
          5.539254188537598 27.091310501098633 0 20 30.769229888916016 0
          11.593999862670898 29.707000732421875 0 2.761960983276367 25.76357078552246 0
          0 24.615379333496094 0 8.450776100158691 29.652490615844727 0
          16.617460250854492 32.307579040527344 0 5.47414493560791 29.689619064331055 0
          12.958149909973145 32.3742790222168 0 2.8468809127807617 28.884479522705078 0
          9.978167533874512 32.22977066040039 0 20 33.84614944458008 0
          0 27.692310333251953 0 6.994965076446533 32.270870208740234 0
          17.276609420776367 34.851070404052734 0 14.285710334777832 34.80384826660156 0
          11.294819831848145 34.851070404052734 0 3.3059229850769043 32.300838470458984 0
          8.571429252624512 34.80384826660156 0 0 30.769229888916016 0
          20 36.92308044433594 0 15.714289665222168 37.401920318603516 0
          5.580530166625977 34.851070404052734 0 12.857139587402344 37.401920318603516 0
          10 37.401920318603516 0 2.6164190769195557 34.950538635253906 0
          0 33.84614944458008 0 7.142857074737549 37.401920318603516 0
          20 40 0 17.142860412597656 40 0
          14.285710334777832 40 0 4.285714149475098 37.401920318603516 0
          11.428569793701172 40 0 8.571429252624512 40 0
          0 36.92308044433594 0 5.714285850524902 40 0
          2.857142925262451 40 0 0 40 0
          <InformationKey name="L2_NORM_RANGE" location="vtkDataArray" length="2">
            <Value index="0">
              0
            </Value>
            <Value index="1">
              44.72135955
            </Value>
          </InformationKey>
        </DataArray>
      </Points>
      <Cells>
        <DataArray type="Int64" Name="connectivity" format="ascii" RangeMin="0" RangeMax="117">
          53 52 43 52 56 59
          56 53 61 43 52 46
          59 56 65 61 53 50
          53 43 50 52 59 46
          56 61 65 43 46 33
          59 65 66 61 50 62
          33 46 35 66 65 74
          62 50 55 43 33 36
          59 66 57 61 62 69
          42 32 44 10 4 7
          109 110 101 115 116 111
          24 16 21 1 0 2
          112 113 104 32 24 30
          4 1 3 110 112 103
          116 117 114 16 10 13
          108 109 100 113 115 107
          35 46 47 55 50 41
          57 66 67 74 65 73
          36 33 25 69 62 71
          33 35 23 62 55 68
          59 57 46 66 74 75
          43 36 50 61 69 65
          7 4 3 7 3 8
          104 113 107 104 107 98
          13 10 7 13 7 12
          8 3 5 98 107 102
          12 7 8 12 8 14
          14 8 9 12 14 20
          111 116 114 3 1 2
          101 110 103 101 103 95
          95 103 96 101 95 94
          30 24 21 30 21 27
          27 21 19 30 27 37
          107 115 111 107 111 102
          102 111 105 21 16 13
          21 13 19 19 13 12
          19 12 20 19 20 26
          26 20 29 19 26 27
          27 26 38 38 26 34
          27 38 37 37 38 48
          37 48 44 103 112 104
          103 104 96 96 104 98
          96 98 90 90 98 93
          96 90 88 109 101 100
          32 30 44 105 111 114
          102 105 97 34 26 29
          34 29 39 39 29 35
          39 35 47 39 47 49
          34 39 49 49 47 58
          38 34 45 93 98 102
          93 102 97 90 93 85
          88 90 82 96 88 95
          95 88 86 86 88 79
          95 86 94 94 86 91
          94 91 100 93 97 87
          79 88 82 79 82 71
          86 79 78 58 47 57
          58 57 67 57 47 46
          58 67 70 70 67 77
          49 58 64 25 33 23
          75 74 83 67 66 75
          23 35 29 41 50 36
          41 36 31 31 36 25
          41 31 40 71 62 68
          29 20 23 73 65 69
          73 69 76 76 69 71
          76 85 80 68 55 63
          55 41 51 74 73 80
          5 3 2 9 8 5
          9 6 11 20 14 23
          14 9 17 101 94 100
          30 37 44 97 105 106
          106 105 114 45 34 49
          38 54 48 85 93 87
          80 73 76 85 76 82
          82 76 71 82 90 85
          87 97 89 78 79 68
          86 81 91 83 74 80
          75 83 84 84 83 92
          80 85 87 80 87 89
          17 9 15 14 17 23
          89 97 99 15 9 11
          15 11 18 17 22 25
          63 72 68 99 92 89
          99 97 106 18 28 22
          22 28 31 22 31 25
          18 22 15 70 64 58
          6 9 5 6 5 2
          81 86 78 81 78 72
          84 77 75 75 77 67
          40 51 41 60 54 45
          45 54 38 28 40 31
          64 60 49 51 63 55
          83 80 89 89 92 83
          22 17 15 72 78 68
          60 45 49 79 71 68
          25 23 17
        </DataArray>
        <DataArray type="Int64" Name="offsets" format="ascii" RangeMin="3" RangeMax="579">
          3 6 9 12 15 18
          21 24 27 30 33 36
          39 42 45 48 51 54
          57 60 63 66 69 72
          75 78 81 84 87 90
          93 96 99 102 105 108
          111 114 117 120 123 126
          129 132 135 138 141 144
          147 150 153 156 159 162
          165 168 171 174 177 180
          183 186 189 192 195 198
          201 204 207 210 213 216
          219 222 225 228 231 234
          237 240 243 246 249 252
          255 258 261 264 267 270
          273 276 279 282 285 288
          291 294 297 300 303 306
          309 312 315 318 321 324
          327 330 333 336 339 342
          345 348 351 354 357 360
          363 366 369 372 375 378
          381 384 387 390 393 396
          399 402 405 408 411 414
          417 420 423 426 429 432
          435 438 441 444 447 450
          453 456 459 462 465 468
          471 474 477 480 483 486
          489 492 495 498 501 504
          507 510 513 516 519 522
          525 528 531 534 537 540
          543 546 549 552 555 558
          561 564 567 570 573 576
          579
        </DataArray>
        <DataArray type="UInt8" Name="types" format="ascii" RangeMin="5" RangeMax="5">
          5 5 5 5 5 5
          5 5 5 5 5 5
          5 5 5 5 5 5
          5 5 5 5 5 5
          5 5 5 5 5 5
          5 5 5 5 5 5
          5 5 5 5 5 5
          5 5 5 5 5 5
          5 5 5 5 5 5
          5 5 5 5 5 5
          5 5 5 5 5 5
          5 5 5 5 5 5
          5 5 5 5 5 5
          5 5 5 5 5 5
          5 5 5 5 5 5
          5 5 5 5 5 5
          5 5 5 5 5 5
          5 5 5 5 5 5
          5 5 5 5 5 5
          5 5 5 5 5 5
          5 5 5 5 5 5
          5 5 5 5 5 5
          5 5 5 5 5 5
          5 5 5 5 5 5
          5 5 5 5 5 5
          5 5 5 5 5 5
          5 5 5 5 5 5
          5 5 5 5 5 5
          5 5 5 5 5 5
          5 5 5 5 5 5
          5 5 5 5 5 5
          5 5 5 5 5 5
          5
        </DataArray>
      </Cells>
    </Piece>
  </UnstructuredGrid>
</VTKFile>
