<?xml version="1.0"?>
<VTKFile type="UnstructuredGrid" version="0.1" byte_order="LittleEndian" header_type="UInt32" compressor="vtkZLibDataCompressor">
  <UnstructuredGrid>
    <Piece NumberOfPoints="118" NumberOfCells="193">
      <PointData>
        <DataArray type="Float64" Name="plcd_BC" NumberOfComponents="3" format="ascii" RangeMin="0" RangeMax="0">
          0 0 0 0 0 0
          0 0 0 0 0 0
          0 0 0 0 0 0
          0 0 0 0 0 0
          0 0 0 0 0 0
          0 0 0 0 0 0
          0 0 0 0 0 0
          0 0 0 0 0 0
          0 0 0 0 0 0
          0 0 0 0 0 0
          0 0 0 0 0 0
          0 0 0 0 0 0
          0 0 0 0 0 0
          0 0 0 0 0 0
          0 0 0 0 0 0
          0 0 0 0 0 0
          0 0 0 0 0 0
          0 0 0 0 0 0
          0 0 0 0 0 0
          0 0 0 0 0 0
          0 0 0 0 0 0
          0 0 0 0 0 0
          0 0 0 0 0 0
          0 0 0 0 0 0
          0 0 0 0 0 0
          0 0 0 0 0 0
          0 0 0 0 0 0
          0 0 0 0 0 0
          0 0 0 0 0 0
          0 0 0 0 0 0
          0 0 0 0 0 0
          0 0 0 0 0 0
          0 0 0 0 0 0
          0 0 0 0 0 0
          0 0 0 0 0 0
          0 0 0 0 0 0
          0 0 0 0 0 0
          0 0 0 0 0 0
          0 0 0 0 0 0
          0 0 0 0 0 0
          0 0 0 0 0 0
          0 0 0 0 0 0
          0 0 0 0 0 0
          0 0 0 0 0 0
          0 0 0 0 0 0
          0 0 0 0 0 0
          0 0 0 0 0 0
          0 0 0 0 0 0
          0 0 0 0 0 0
          0 0 0 0 0 0
          0 0 0 0 0 0
          0 0 0 0 0 0
          0 0 0 0 0 0
          0 0 0 0 0 0
          0 0 0 0 0 0
          0 0 0 0 0 0
          0 0 0 0 0 0
          0 0 0 0 0 0
          0 0 0 0 0 0
          <InformationKey name="L2_NORM_RANGE" location="vtkDataArray" length="2">
            <Value index="0">
              0
            </Value>
            <Value index="1">
              0
            </Value>
          </InformationKey>
        </DataArray>
        <DataArray type="Float64" Name="plcd_FIXNO" NumberOfComponents="3" format="ascii" RangeMin="1.4142135623730951" RangeMax="1.4142135623730951">
          -1 -1 0 -1 -1 0
          -1 -1 0 -1 -1 0
          -1 -1 0 -1 -1 0
          -1 -1 0 -1 -1 0
          -1 -1 0 -1 -1 0
          -1 -1 0 -1 -1 0
          -1 -1 0 -1 -1 0
          -1 -1 0 -1 -1 0
          -1 -1 0 -1 -1 0
          -1 -1 0 -1 -1 0
          -1 -1 0 -1 -1 0
          -1 -1 0 -1 -1 0
          -1 -1 0 -1 -1 0
          -1 -1 0 -1 -1 0
          -1 -1 0 -1 -1 0
          -1 -1 0 -1 -1 0
          -1 -1 0 -1 -1 0
          -1 -1 0 -1 -1 0
          -1 -1 0 -1 -1 0
          -1 -1 0 -1 -1 0
          -1 -1 0 -1 -1 0
          -1 -1 0 -1 -1 0
          -1 -1 0 -1 -1 0
          -1 -1 0 -1 -1 0
          -1 -1 0 -1 -1 0
          -1 -1 0 -1 -1 0
          -1 -1 0 -1 -1 0
          -1 -1 0 -1 -1 0
          -1 -1 0 -1 -1 0
          -1 -1 0 -1 -1 0
          -1 -1 0 -1 -1 0
          -1 -1 0 -1 -1 0
          -1 -1 0 -1 -1 0
          -1 -1 0 -1 -1 0
          -1 -1 0 -1 -1 0
          -1 -1 0 -1 -1 0
          -1 -1 0 -1 -1 0
          -1 -1 0 -1 -1 0
          -1 -1 0 -1 -1 0
          -1 -1 0 -1 -1 0
          -1 -1 0 -1 -1 0
          -1 -1 0 -1 -1 0
          -1 -1 0 -1 -1 0
          -1 -1 0 -1 -1 0
          -1 -1 0 -1 -1 0
          -1 -1 0 -1 -1 0
          -1 -1 0 -1 -1 0
          -1 -1 0 -1 -1 0
          -1 -1 0 -1 -1 0
          -1 -1 0 -1 -1 0
          -1 -1 0 -1 -1 0
          -1 -1 0 -1 -1 0
          -1 -1 0 -1 -1 0
          -1 -1 0 -1 -1 0
          -1 -1 0 -1 -1 0
          -1 -1 0 -1 -1 0
          -1 -1 0 -1 -1 0
          -1 -1 0 -1 -1 0
          -1 -1 0 -1 -1 0
          <InformationKey name="L2_NORM_RANGE" location="vtkDataArray" length="2">
            <Value index="0">
              1.4142135624
            </Value>
            <Value index="1">
              1.4142135624
            </Value>
          </InformationKey>
        </DataArray>
        <DataArray type="Float64" Name="proc" format="ascii" RangeMin="0" RangeMax="0">
          0 0 0 0 0 0
          0 0 0 0 0 0
          0 0 0 0 0 0
          0 0 0 0 0 0
          0 0 0 0 0 0
          0 0 0 0 0 0
          0 0 0 0 0 0
          0 0 0 0 0 0
          0 0 0 0 0 0
          0 0 0 0 0 0
          0 0 0 0 0 0
          0 0 0 0 0 0
          0 0 0 0 0 0
          0 0 0 0 0 0
          0 0 0 0 0 0
          0 0 0 0 0 0
          0 0 0 0 0 0
          0 0 0 0 0 0
          0 0 0 0 0 0
          0 0 0 0
        </DataArray>
        <DataArray type="Float64" Name="Displacement" NumberOfComponents="3" format="ascii" RangeMin="0" RangeMax="0.005112567932863311">
          -0.0010669290266339298 0 0 -0.000914141121519807 0 0
          -0.0010668336588146368 0.00038402937650808375 0 -0.0008377771342617637 0.0003239426979188459 0
          -0.000761613022802032 0 0 -0.0009211323875837099 0.0006424004033489431 0
          -0.0010667919603027068 0.0007683682742466473 0 -0.0006854276549826921 0.0003235855490950045 0
          -0.000761417157391257 0.0006474644466725013 0 -0.0008848992664723933 0.000966169988724868 0
          -0.0006093858358023481 0 0 -0.0010670649470817387 0.0011532007985740444 0
          -0.0006093061333385893 0.000646805981742783 0 -0.0005333507059277498 0.0003233997898052353 0
          -0.0006851305501493897 0.0009704656901262912 0 -0.0009276499590274631 0.0012881532817124518 0
          -0.0004573069412605442 0 0 -0.0007669540781797541 0.0012920706221707812 0
          -0.0010681560142040303 0.0015387557107221866 0 -0.00046456030154432335 0.0006408004789483191 0
          -0.0005289509254920335 0.00098453403447336 0 -0.0003813110522681108 0.00032349141523354104 0
          -0.0009297917418007037 0.0017295935916188316 0 -0.000606825992327954 0.0014042612140832893 0
          -0.00030513640433609836 0 0 -0.0007551907909161285 0.0017322807405218208 0
          -0.0003695453902413436 0.0009344992516654055 0 -0.0003054528374123536 0.000647168805494498 0
          -0.0010709156609168143 0.0019245981833913013 0 -0.0004383210547604453 0.0013114386221435102 0
          -0.00022905656970776105 0.00032378306773502084 0 -0.0008998575275479586 0.0020432869436702106 0
          -0.00015269690695376707 0 0 -0.0006105080207056686 0.0018863521524745707 0
          -0.0002944251198023247 0.0012610447336354259 0 -0.0004706164123213313 0.001718544046867098 0
          -0.0007432828109204356 0.0021054364778902886 0 -0.00014587159312493003 0.0006420269351047723 0
          -0.00018038459886059912 0.000961364057521319 0 -0.0003611412555649559 0.0015884322175149833 0
          -0.0010747958706981415 0.00230899377260901 0 -0.000899495391612204 0.0024179050725865884 0
          0 0 0 -0.0005964834461449791 0.0022340664865955796 0
          -1.4472152851778849e-7 0.0003837482644697285 0 -0.00014458536434228166 0.0013236225445127303 0
          -0.0004606782127052293 0.002118497999737482 0 -0.0003407088373791583 0.001938356165631952 0
          -3.6134562680448405e-7 0.0007678364654930186 0 -0.00021257453692721288 0.0017250421389623876 0
          -0.0007130698934398243 0.0025307334389380017 0 -0.0010747905891407609 0.0026914635263029173 0
          -0.0005009557165103756 0.002315870484861618 0 -0.0006090344199627257 0.002499600883195601 0
          -3.6953039064002184e-7 0.0011525715465651963 0 -0.0008919145953977178 0.0028279447569822297 0
          -0.0005014356497849327 0.0026825126777187515 0 -0.00027895016784077966 0.002273803210337789 0
          -0.00018997833595305145 0.0020988151761017395 0 -0.00040050446941992707 0.0024990570227054172 0
          7.106494463419741e-7 0.0015384693452081886 0 -0.0005959235097858665 0.0027673626613644304 0
          -0.0007184174339971643 0.0029648420681518536 0 -0.0010713879955760444 0.003075454232838634 0
          0.0000041525161492183775 0.001924598164621903 0 -0.00043781648017806647 0.0028491111321147775 0
          -0.0002640462710686212 0.0026437547198447917 0 -0.0001324397580863424 0.0024313801912585085 0
          -0.0008726911929831276 0.0032914260979992026 0 -0.000573692238073305 0.0031281377910651856 0
          0.000008149849055656318 0.0023088584946814416 0 -0.0007038887525084665 0.0033380512278310724 0
          -0.0010682225818200775 0.0034611872618942286 0 -0.0004263075937742236 0.003180687036367831 0
          -0.0002797506304726309 0.003018378346945892 0 -0.00013206033302708798 0.0028466455143412945 0
          -0.0005115089212300313 0.003413695361966177 0 0.000007987840532128902 0.00269134903220442 0
          -0.0009279949199002581 0.0037201865284976136 0 -0.0007675120325285317 0.003724099898539977 0
          -0.0002964567696589256 0.0033925403049580413 0 -0.0010670314171718467 0.003846864561592452 0
          -0.0006178692550402095 0.0037194374716619655 0 -0.00014611308749600877 0.0032224418417586185 0
          0.000004035477505148389 0.003075534241705148 0 -0.0004512873072694488 0.003713250200106611 0
          -0.0008858168212056605 0.004040363906794467 0 -0.0002929881348637588 0.003715891526477682 0
          -0.0006905675084224137 0.0040504356896439555 0 -0.00015252438319472364 0.0036132189879689944 0
          -0.0005321908218169044 0.004033264308196693 0 -0.0010668000340851864 0.004231678360494016 0
          6.049058754658573e-7 0.0034617470968346725 0 -0.0003737952087749098 0.004037950115854977 0
          -0.0009211500770638727 0.004357625640963794 0 -0.0007614400214724565 0.004352528344570235 0
          -0.0006021885111867105 0.0043590430625013565 0 -0.00017721038016756317 0.004040043239492246 0
          -0.00045739721683095484 0.00435325606542258 0 -3.9572261490318684e-7 0.0038475597639031746 0
          -0.0010668441150275775 0.004615988742012226 0 -0.0008377906235764169 0.004676059805889169 0
          -0.000298239360936149 0.00435864445584585 0 -0.0006854285975600302 0.004676399178294111 0
          -0.0005333218590609299 0.004676574561594776 0 -0.00014006541985336072 0.004370383058356069 0
          -2.94178608060675e-7 0.004232250354548323 0 -0.00038124998230933707 0.00467648513420811 0
          -0.0010669352689560033 0.005000000000000001 0 -0.0009141524012663123 0.005 0
          -0.0007616186558225649 0.005000000000000002 0 -0.00022897398837158552 0.004676211608387174 0
          -0.0006093708264574114 0.004999999999999999 0 -0.0004572625200113392 0.005000000000000002 0
          -5.936832195877832e-8 0.00461628033738052 0 -0.00030506434126278254 0.005000000000000001 0
          -0.00015261236415999065 0.005 0 7.866467960181836e-8 0.005 0
          <InformationKey name="L2_NORM_RANGE" location="vtkDataArray" length="2">
            <Value index="0">
              0
            </Value>
            <Value index="1">
              0.0051125679329
            </Value>
          </InformationKey>
        </DataArray>
        <DataArray type="Float64" Name="Pressure" format="ascii" RangeMin="-631.2544742519196" RangeMax="-581.3244848164887">
          -594.378484222544 -594.2439587863796 -594.4880334839837 -594.204441531778 -594.0688499976977 -594.5089734160472
          -594.9922017150552 -593.9354945228177 -593.9970883921419 -594.5534268764221 -593.8973862721292 -595.7074984248288
          -593.6473294954778 -593.7917981518071 -593.3785417862214 -595.286715223128 -593.8372159843019 -593.6483715025112
          -596.0652211376406 -593.5702027136188 -592.9638421299927 -593.8139081803985 -595.3798642695606 -591.6003897624728
          -593.8866705686173 -593.1160882572343 -593.3036177617377 -593.8052436295677 -595.6540733475061 -591.7961339794631
          -593.945527804044 -596.1209757117412 -593.9303566768095 -588.0923457608911 -593.4057432458303 -587.1287421763437
          -596.6723481697428 -594.2457437919186 -594.367852475987 -591.2831576856134 -595.6002809652197 -598.7161323300163
          -594.010431063935 -589.385938536139 -594.1479117607541 -595.0490037047118 -581.3244848164887 -590.4720182838753
          -594.7512471391001 -594.7662312505294 -609.2820961389393 -595.0003805242534 -615.7010701410977 -620.3245115332801
          -595.6882516370454 -596.9499038015201 -616.6579843107688 -604.787675301514 -597.4265866095596 -631.2544742519196
          -595.8825371718635 -586.1937117114812 -594.1416748712384 -595.6728081219198 -596.119022855156 -585.0508802425938
          -606.1743732517756 -597.5694860386127 -594.767331617969 -586.1759685462381 -595.4470341902619 -592.1825090168551
          -595.7433649648157 -586.5821061662706 -593.7511494880239 -597.226903965982 -589.6212838320381 -595.1805750053809
          -595.1208692254922 -593.6143279097139 -592.4085101835306 -595.6935358858727 -592.3484552171045 -595.3121073069707
          -596.1246382429453 -591.8118462927956 -594.5432217044792 -593.4024354364079 -593.5006271550718 -594.9002020269744
          -593.0660758022398 -594.9594909068995 -596.1842987385146 -593.3254324164197 -594.488502364321 -593.9814958365275
          -593.6346583471268 -594.4125271369353 -593.5805685034302 -595.4911873694488 -594.4563867408642 -594.1811928541257
          -593.8207770336116 -593.9213780425083 -593.7802929586521 -594.2137136895263 -594.7355758383679 -593.8067124867417
          -594.3490767478703 -594.2188553733607 -594.049942266473 -593.9212856847587 -593.8838069291386 -593.8265219653797
          -594.099279146713 -593.8699138735061 -593.8980982119781 -593.9658119791964
        </DataArray>
      </PointData>
      <CellData>
        <DataArray type="UInt8" Name="vtkGhostType" format="ascii" RangeMin="0" RangeMax="0">
          0 0 0 0 0 0
          0 0 0 0 0 0
          0 0 0 0 0 0
          0 0 0 0 0 0
          0 0 0 0 0 0
          0 0 0 0 0 0
          0 0 0 0 0 0
          0 0 0 0 0 0
          0 0 0 0 0 0
          0 0 0 0 0 0
          0 0 0 0 0 0
          0 0 0 0 0 0
          0 0 0 0 0 0
          0 0 0 0 0 0
          0 0 0 0 0 0
          0 0 0 0 0 0
          0 0 0 0 0 0
          0 0 0 0 0 0
          0 0 0 0 0 0
          0 0 0 0 0 0
          0 0 0 0 0 0
          0 0 0 0 0 0
          0 0 0 0 0 0
          0 0 0 0 0 0
          0 0 0 0 0 0
          0 0 0 0 0 0
          0 0 0 0 0 0
          0 0 0 0 0 0
          0 0 0 0 0 0
          0 0 0 0 0 0
          0 0 0 0 0 0
          0 0 0 0 0 0
          0
        </DataArray>
        <DataArray type="Float64" Name="Stress" NumberOfComponents="6" format="ascii" RangeMin="780.6037113430614" RangeMax="1482.9789328106438">
          -686.6507831614656 868.9049598767454 0 124.48460036168942 0 0
          -829.8297628449916 1229.068132591477 0 -0.7780134446423744 0 0
          -686.928958527018 873.0175476251095 0 -119.14317465966215 0 0
          -520.390266211079 616.7083012429621 0 68.08576322806854 0 0
          -599.5469172841538 781.3342682655644 0 146.02193496829506 0 0
          -596.4192333488974 815.6454956450879 0 37.684120091869744 0 0
          -582.0625163002005 803.9314700085189 0 -39.062521274082314 0 0
          -580.9476334596129 745.7830986389108 0 -158.50585107923126 0 0
          -506.11951266814924 592.2971989499217 0 -48.67464612294045 0 0
          -589.8344205049748 768.7430905388179 0 8.482193405310786 0 0
          -617.4117784991233 818.9706722922597 0 -3.1952794671242684 0 0
          -609.9177582635314 793.4360350493787 0 -15.80328650722008 0 0
          -583.019353854233 759.2341524375393 0 7.265996534972498 0 0
          -604.8153071783397 788.257519542151 0 14.21618808981794 0 0
          -600.8240800628421 787.0990556295303 0 6.0775088480233865 0 0
          -593.2118670884979 770.8742605409126 0 12.303234843876021 0 0
          -588.7174435687105 776.3507358374485 0 1.078647987017596 0 0
          -589.1214541996039 765.1699996355435 0 -11.829621716403407 0 0
          -593.8615861381077 776.6161356483481 0 -0.1809019151697835 0 0
          -592.5827782260212 775.3227200715953 0 0.10625365654892463 0 0
          -593.4815689833683 776.2963884389056 0 -0.14089087890146798 0 0
          -593.185658817672 775.9237074963617 0 0.20083224075263398 0 0
          -592.3879087878399 775.0859309558969 0 -0.132355486894822 0 0
          -594.259464145878 777.1664647089618 0 0.11920977709637373 0 0
          -592.2107986495091 774.8989676006528 0 0.007637603954686918 0 0
          -593.1584970452702 775.9029831972719 0 -0.20716623161951342 0 0
          -593.4743971429291 776.2972474437925 0 0.14834175908727948 0 0
          -592.6344098625364 775.3704076897086 0 -0.09791784103834991 0 0
          -593.8275125740388 776.5638142114277 0 0.17254142449217028 0 0
          -592.1331862426969 774.8229287346064 0 -0.006352011849472224 0 0
          -594.2356358479706 777.1323704232566 0 -0.11394252447318498 0 0
          -592.4601746558213 775.1560423998976 0 0.12816906650107215 0 0
          -584.6459670117874 758.7191756104802 0 -15.575323382818464 0 0
          -589.5654173306665 775.6574318835926 0 2.0969839591886337 0 0
          -597.0283317679593 780.5344456377146 0 0.8721268909473336 0 0
          -588.7357189897784 763.8797100173613 0 13.765432930569373 0 0
          -598.7979341220105 782.2061493423737 0 6.228168657545985 0 0
          -595.8280714333799 778.708712477272 0 -6.928155290523081 0 0
          -589.2899059123704 771.6128437406145 0 2.7503299530138356 0 0
          -600.4844387287221 782.4319126612744 0 -1.4152266165600225 0 0
          -615.5347655949467 812.4885777659958 0 -4.9445520610747415 0 0
          -601.7052435510299 787.7618207548802 0 -5.096860455746293 0 0
          -608.0812529618868 795.102401335243 0 12.617887534268025 0 0
          -589.5256036383985 766.5543663144078 0 -2.7923358687068793 0 0
          -592.9775590304628 775.7844685054336 0 0.4969045503344719 0 0
          -592.9145942004618 775.6585388454316 0 0.7546038710899032 0 0
          -592.1893498276961 774.9544365646244 0 0.15506437441324258 0 0
          -591.9967763532679 774.569289615768 0 0.285105190279756 0 0
          -592.2214549917178 775.0045607817801 0 0.24510945707428278 0 0
          -592.0444431770807 774.6505371525061 0 0.37300257357880706 0 0
          -593.5254176703766 776.2820491326828 0 1.1686654179571307 0 0
          -592.1229685799565 774.9130677274713 0 0.8206938314890426 0 0
          -592.3388656706318 775.147641669376 0 0.9841156602177914 0 0
          -592.122419855848 774.7147500398088 0 1.228505841519599 0 0
          -593.1479222759087 775.8242962033202 0 2.055036724234532 0 0
          -591.3652973904773 774.1876240115242 0 1.227307094176556 0 0
          -593.5598013480638 776.2294879494065 0 0.2950664797815673 0 0
          -593.9123500790683 776.6935121917628 0 0.33890098962943893 0 0
          -593.0058877480421 775.8073463476547 0 -0.47063148698055224 0 0
          -592.9386652568402 775.6729013652507 0 -0.7075094113173217 0 0
          -592.3933755897986 775.2032599834633 0 -0.8950634439077851 0 0
          -593.5110676777754 776.2663318536999 0 -1.1146583721250063 0 0
          -592.6824997550075 775.4491054202527 0 -0.4628286776334093 0 0
          -592.5782042607741 775.2405144317861 0 -0.7908324707270216 0 0
          -592.0248914408833 774.8338866559001 0 -0.8347559218405309 0 0
          -593.1201923202782 775.8208084827279 0 -1.2148649963715095 0 0
          -592.7348172284078 775.495825123098 0 0.43877875679784484 0 0
          -592.6575005903212 775.3411918469251 0 0.7543360262386725 0 0
          -593.1499859277494 775.8326426106461 0 1.1121520130325118 0 0
          -592.1077764537656 774.8780442907629 0 -0.15881853067279578 0 0
          -591.89950580548 774.4615029941921 0 -0.2918736656707426 0 0
          -591.6699551105014 774.5012382982717 0 0.13912504022963254 0 0
          -591.2058502878488 773.5719841654269 0 0.18133181497624806 0 0
          -591.1041358825325 773.8929006814285 0 -0.7822595883955182 0 0
          -590.3387775716076 772.4086929417668 0 -0.8049808028012566 0 0
          -591.7198428702611 774.2153897705525 0 -1.1081036663818176 0 0
          -592.5981044237706 775.2640858233033 0 -2.0993840032035544 0 0
          -592.4598456451072 774.9565579245242 0 -2.3850414620787315 0 0
          -593.4464417406357 776.481281878807 0 -1.4752440116520669 0 0
          -593.9876967315495 776.6798080904921 0 -1.0763793020728425 0 0
          -594.2061288442219 777.2133277039801 0 -0.788842204026207 0 0
          -592.2946247657878 775.0706979000616 0 -0.22957671173710004 0 0
          -592.1136603672721 774.7087691030302 0 -0.33592910392491365 0 0
          -591.7841919411812 774.5992247535266 0 -0.08776600866417647 0 0
          -591.3543920483638 773.740834812731 0 -0.1114973550746425 0 0
          -591.2353016140037 774.0454260042972 0 0.7031198633073905 0 0
          -591.5653618867104 774.3118979178878 0 -1.0758606024550346 0 0
          -593.9011108126292 776.6768512819067 0 -0.3252333745422395 0 0
          -593.5620269412825 776.2392373689623 0 -0.32231761334767406 0 0
          -593.7860165825507 776.6031572501195 0 0.6184182178179086 0 0
          -593.4523148116243 776.4542819529505 0 1.3809576189954602 0 0
          -591.2554972596972 773.8350358582677 0 -2.9965885050978853 0 0
          -591.050424340939 773.4102818513671 0 -2.899512227994231 0 0
          -589.6344243318281 771.0470060503685 0 -5.273689204867728 0 0
          -591.7358096807543 774.480568738629 0 -5.774889949685641 0 0
          -594.6489526382709 775.9314466138255 0 -6.109320442053845 0 0
          -595.0413544296589 777.0464411667679 0 -5.326513930115471 0 0
          -602.1489563807295 783.9421616550837 0 -4.448510932969382 0 0
          -594.5467619330619 777.3007959289466 0 -3.0503799330909844 0 0
          -591.8048799092514 774.2845711499023 0 1.05653067450275 0 0
          -592.5913707339116 775.272896348058 0 1.9818191717490086 0 0
          -590.4479415934884 772.4744273644176 0 0.8219568995773063 0 0
          -591.0671282962103 773.3406454553074 0 -1.3008216141116988 0 0
          -592.1793621226624 774.7685453463253 0 -1.1120350710877012 0 0
          -593.1209939279624 775.8023827258623 0 -1.910350957680914 0 0
          -593.1240102717189 775.803603099829 0 -2.04236330307948 0 0
          -593.8446288590344 776.9368236303573 0 -1.22931972665385 0 0
          -594.2834772319177 777.0910167809477 0 -0.883861340236282 0 0
          -594.5472120784206 777.6605020664567 0 -0.6654497869334219 0 0
          -592.5206034163868 775.1326072693157 0 2.057625397772312 0 0
          -592.374173177471 774.9074246118662 0 -2.81866647661255 0 0
          -592.4712258542629 775.0953609337722 0 -2.660461116594356 0 0
          -594.7556044456026 777.5387783592926 0 -2.4350831067798135 0 0
          -604.2244021856932 791.5142304592796 0 2.296146321157532 0 0
          -594.9823846094409 779.5856591721962 0 4.3120433192240695 0 0
          -602.729570531443 783.2494316050264 0 -17.950010108108756 0 0
          -596.9163559319231 780.1061263640019 0 2.504026649964441 0 0
          -592.2581246129728 774.2427123238591 0 -0.7708579332982588 0 0
          -598.1275278849103 782.6083811587639 0 1.8523322288245425 0 0
          -592.603782827225 773.1971607163651 0 6.981016806603964 0 0
          -601.0755696996642 783.199750836645 0 0.33165916273506435 0 0
          -592.348797616336 777.1217644886116 0 -2.6965268543972147 0 0
          -588.0431032296078 769.0967007728707 0 0.8654763545434739 0 0
          -597.1556762350399 784.993349111721 0 -8.01716062974202 0 0
          -598.869721687186 781.7945901064992 0 -0.6806374270963557 0 0
          -598.4812905836687 781.550610278588 0 0.7941539540482154 0 0
          -596.9352225894479 780.7484328881349 0 -3.583520636548722 0 0
          -596.6819818860513 779.4574736208384 0 -2.9721852827225965 0 0
          -589.9243843758111 772.7607252460324 0 0.43909972780544126 0 0
          -583.7629261627192 760.0308463578622 0 -2.293023620793112 0 0
          -589.4537553252239 771.6424608925109 0 -0.20481047737390837 0 0
          -589.2473628749976 769.2509573988866 0 -5.19514631721425 0 0
          -590.5875737876243 772.7131502607627 0 3.346500143634568 0 0
          -597.0439101914101 780.922098002304 0 1.640765478135214 0 0
          -596.340964024505 779.0151188787632 0 0.9726352823873798 0 0
          -595.8395142156073 779.2042002544848 0 7.159735007250022 0 0
          -594.1119184738282 777.0437410348737 0 0.5297830983217523 0 0
          -593.8912140542109 777.017032814055 0 1.2847609414352306 0 0
          -595.3208031858954 778.7010690282106 0 0.9303210936524742 0 0
          -590.655500984325 772.7946828967754 0 1.5109234738843642 0 0
          -593.2104649305053 775.9536780441631 0 2.2175889082432145 0 0
          -594.087541343763 777.0023506338462 0 -0.5112286060206964 0 0
          -593.7840038131374 776.6053528815087 0 -0.6421408115889381 0 0
          -593.9530971321385 776.6333474595588 0 0.9998445218392378 0 0
          -594.1423632029375 777.1075800598189 0 0.7262532591032023 0 0
          -594.8175272917817 778.1654408409174 0 -1.9870777371656985 0 0
          -595.0511721362108 778.444449431299 0 -1.2553190121513322 0 0
          -591.6353880542861 774.1914749576133 0 2.6594559883510573 0 0
          -587.995173444373 767.4682031638507 0 4.357513396122916 0 0
          -588.6895329086831 769.714007375421 0 -0.82889132161845 0 0
          -591.4156248856493 773.8683584226533 0 -3.7512570146057707 0 0
          -590.4435883124816 773.2144117324885 0 -0.652196585460731 0 0
          -594.1671708364561 777.1771595541124 0 3.01003699822851 0 0
          -595.3524231506738 778.7421479272692 0 -1.3264635255852189 0 0
          -595.2391339886934 778.6372966390302 0 -0.9685908273990618 0 0
          -597.3473497177235 780.342315546842 0 3.1398316699515347 0 0
          -597.4357117793111 781.5031242985372 0 -1.909752435919422 0 0
          -598.2511864969747 781.8905759391815 0 -0.4057078152741467 0 0
          -591.858090283049 774.6344800471594 0 2.5674169397826394 0 0
          -593.3206771814894 775.391782736552 0 3.5782082537082545 0 0
          -594.9411608580226 777.6936582515399 0 2.533397730982673 0 0
          -592.2778043308851 774.5941395967001 0 3.563087024333666 0 0
          -594.3996464769926 777.5319646998338 0 1.2419308428328637 0 0
          -594.9848339597277 778.2073873695068 0 0.868922843596835 0 0
          -596.2594668790989 780.0736989369037 0 0.56270261672385 0 0
          -596.2025723660907 778.2697001011973 0 3.3046155908942825 0 0
          -597.4134158949691 780.8719093952742 0 0.6812139599835001 0 0
          -596.6506548352704 780.5916435195784 0 1.433119700388011 0 0
          -594.9321857375076 778.3298120389082 0 1.2840590340587599 0 0
          -597.367733898004 780.9858726058824 0 -0.3663145396079678 0 0
          -596.7514353799568 780.5320784658046 0 -0.9376688316635802 0 0
          -597.7803513042022 781.322999053323 0 0.04952113433285049 0 0
          -595.3571553585705 778.9254579101165 0 0.6644955918549147 0 0
          -595.6715123232298 778.1616490619311 0 2.4995167631928417 0 0
          -594.3375050603261 777.1660641142346 0 0.9033175786960197 0 0
          -594.5883456168704 777.7178069922303 0 0.6781712300573466 0 0
          -594.8225425928298 778.0191623535828 0 -0.9185564324758844 0 0
          -596.319846160153 780.2570297999629 0 -0.5401937432838817 0 0
          -594.9310489897534 777.6975166027784 0 -2.888530442620497 0 0
          -596.8329178724673 779.3900964043812 0 -1.029465249114185 0 0
          -592.3272538832 774.2512971466541 0 0.3780206979742558 0 0
          -596.5549598871225 780.6500538487893 0 -1.0881499372047734 0 0
          -594.5548474171071 777.7274347946988 0 -1.1623369062022832 0 0
          -595.9430020701527 778.466468052179 0 -2.182416411807733 0 0
          -598.2113823952402 781.7656294799018 0 0.21245484724973818 0 0
          -595.0012275136395 777.4894769153286 0 2.5070597935614614 0 0
          -597.1218961015725 780.0007972140168 0 3.1348031750100476 0 0
          -595.558352288944 779.2842615557491 0 0.7044986639708919 0 0
          -595.65201263379 779.071384803729 0 1.236611295646326 0 0
          -595.4927400697327 778.7974767963553 0 -1.2436333222981522 0 0
          -595.5158642194758 778.6053386831537 0 -2.0220242515399374 0 0
          -595.9521542609548 777.7571587982952 0 -4.226502917630175 0 0
          -593.7943865962743 777.0466491893142 0 3.1397096527096484 0 0
          <InformationKey name="L2_NORM_RANGE" location="vtkDataArray" length="2">
            <Value index="0">
              780.60371134
            </Value>
            <Value index="1">
              1482.9789328
            </Value>
          </InformationKey>
        </DataArray>
        <DataArray type="Float64" Name="Damage" format="ascii" RangeMin="0" RangeMax="0">
          0 0 0 0 0 0
          0 0 0 0 0 0
          0 0 0 0 0 0
          0 0 0 0 0 0
          0 0 0 0 0 0
          0 0 0 0 0 0
          0 0 0 0 0 0
          0 0 0 0 0 0
          0 0 0 0 0 0
          0 0 0 0 0 0
          0 0 0 0 0 0
          0 0 0 0 0 0
          0 0 0 0 0 0
          0 0 0 0 0 0
          0 0 0 0 0 0
          0 0 0 0 0 0
          0 0 0 0 0 0
          0 0 0 0 0 0
          0 0 0 0 0 0
          0 0 0 0 0 0
          0 0 0 0 0 0
          0 0 0 0 0 0
          0 0 0 0 0 0
          0 0 0 0 0 0
          0 0 0 0 0 0
          0 0 0 0 0 0
          0 0 0 0 0 0
          0 0 0 0 0 0
          0 0 0 0 0 0
          0 0 0 0 0 0
          0 0 0 0 0 0
          0 0 0 0 0 0
          0
        </DataArray>
        <DataArray type="Float64" Name="Tau" format="ascii" RangeMin="10000" RangeMax="10000">
          10000 10000 10000 10000 10000 10000
          10000 10000 10000 10000 10000 10000
          10000 10000 10000 10000 10000 10000
          10000 10000 10000 10000 10000 10000
          10000 10000 10000 10000 10000 10000
          10000 10000 10000 10000 10000 10000
          10000 10000 10000 10000 10000 10000
          10000 10000 10000 10000 10000 10000
          10000 10000 10000 10000 10000 10000
          10000 10000 10000 10000 10000 10000
          10000 10000 10000 10000 10000 10000
          10000 10000 10000 10000 10000 10000