<?xml version="1.0"?>
<VTKFile type="UnstructuredGrid" version="0.1" byte_order="LittleEndian" header_type="UInt32" compressor="vtkZLibDataCompressor">
  <UnstructuredGrid>
    <Piece NumberOfPoints="25" NumberOfCells="15">
      <PointData>
        <DataArray type="Float64" Name="Velocity" NumberOfComponents="3" format="ascii" RangeMin="0" RangeMax="1.0043843653844768">
          0 0 0 0 0 0
          0 0 0 -0.48706739465332 -0.10933861689732956 0
          0.8407923573138207 0.15334924371281822 0 0 0 0
          0 0 0 0 0 0
          -0.2671959081106339 -0.1652202357111866 0 0 0 0
          0 0 0 0 0 0
          0 0 0 0 0 0
          -0.4778792334199627 0.00784110930206771 0 0.22685396958998633 0.4714421572078302 0
          -0.15042050187824524 -0.04162230539563109 0 -0.23044821772566923 -0.19037404855579929 0
          0.5764668302953602 0.600851467418805 0 0.9669217341697047 0.2717541414937944 0
          0 0 0 0 0 0
          0 0 0 0 0 0
          0 0 0
          <InformationKey name="L2_NORM_RANGE" location="vtkDataArray" length="2">
            <Value index="0">
              0
            </Value>
            <Value index="1">
              1.0043843654
            </Value>
          </InformationKey>
        </DataArray>
        <DataArray type="Float64" Name="Temperature" format="ascii" RangeMin="163.4744502151784" RangeMax="960.0004971002031">
          959.99884219826 756.719234206574 960.0000016171538 274.84324418123265 461.28014038173006 960.0004971002031
          163.4744502151784 240.0003503502916 272.47977581266895 237.83905948299662 243.93358664617352 239.9998260927197
          240.00029256898833 959.999636313776 303.27973209642096 388.0328700991767 264.37391421786623 355.00152014369127
          669.7949910044189 514.9718666903993 240.00003073943168 859.4546587779076 960.0001880609373 738.8204057810444
          239.99986578000536
        </DataArray>
        <DataArray type="Float64" Name="Density" format="ascii" RangeMin="0.251062783883138" RangeMax="1.4743612657141387">
          0.25106321667979425 0.31850703198245667 0.2510629134637146 0.8769376815107146 0.5225033038095205 0.251062783883138
          1.4743612657141387 1.0042501895492777 0.8845441707089335 1.0133760108835455 0.9880574489349605 1.0042523832415586
          1.0042504313276694 0.2510630089993032 0.7947131701321418 0.6211339706081378 0.9116648215623588 0.6789277894743024
          0.3598420420698298 0.4680263387593455 1.0042515269210508 0.2804341041956649 0.25106286470422473 0.32622325458969764
          1.0042522171745858
        </DataArray>
      </PointData>
      <CellData>
        <DataArray type="UInt8" Name="vtkGhostType" format="ascii" RangeMin="0" RangeMax="1">
          1 1 1 1 1 1
          1 1 1 1 1 1
          1 0 1
        </DataArray>
      </CellData>
      <Points>
        <DataArray type="Float32" Name="Points" NumberOfComponents="3" format="ascii" RangeMin="0" RangeMax="1.4142135623730951">
          0 0.75 0 0.5 1 0
          0 0.5 0 0.25 0.25 0
          0.75 0.75 0 0 0 0
          0.25 0 0 1 0.75 0
          0.75 0.25 0 0.5 0 0
          0.75 0 0 1 0.25 0
          1 0 0 0 0.25 0
          0.5 0.25 0 0.25 0.5 0
          0.5 0.5 0 0.75 0.5 0
          0.25 0.75 0 0.5 0.75 0
          1 0.5 0 0.25 1 0
          0 1 0 0.75 1 0
          1 1 0
          <InformationKey name="L2_NORM_RANGE" location="vtkDataArray" length="2">
            <Value index="0">
              0
            </Value>
            <Value index="1">
              1.4142135624
            </Value>
          </InformationKey>
        </DataArray>
      </Points>
      <Cells>
        <DataArray type="Int64" Name="connectivity" format="ascii" RangeMin="0" RangeMax="24">
          6 3 13 5 9 14
          3 6 3 15 2 13
          14 16 15 3 8 17
          16 14 15 18 0 2
          17 4 19 16 20 7
          4 17 18 21 22 0
          19 1 21 18 4 23
          1 19 7 24 23 4
          10 8 14 9 12 11
          8 10 11 20 17 8
        </DataArray>
        <DataArray type="Int64" Name="offsets" format="ascii" RangeMin="4" RangeMax="60">
          4 8 12 16 20 24
          28 32 36 40 44 48
          52 56 60
        </DataArray>
        <DataArray type="UInt8" Name="types" format="ascii" RangeMin="9" RangeMax="9">
          9 9 9 9 9 9
          9 9 9 9 9 9
          9 9 9
        </DataArray>
      </Cells>
    </Piece>
  </UnstructuredGrid>
</VTKFile>
