<?xml version="1.0"?>
<VTKFile type="UnstructuredGrid" version="0.1" byte_order="LittleEndian" header_type="UInt32" compressor="vtkZLibDataCompressor">
  <UnstructuredGrid>
    <Piece NumberOfPoints="25" NumberOfCells="15">
      <PointData>
        <DataArray type="Float64" Name="Velocity" NumberOfComponents="3" format="ascii" RangeMin="0" RangeMax="1.0043372277751432">
          0 0 0 0 0 0
          0 0 0 -0.48703475214450037 -0.10934772949611513 0
          0.8407365295430822 0.153327611330202 0 0 0 0
          0 0 0 0 0 0
          -0.2671947607764498 -0.16525570440306955 0 0 0 0
          0 0 0 0 0 0
          0 0 0 0 0 0
          -0.47785826292299605 0.007853565814882562 0 0.22682729936675886 0.4714297087971824 0
          -0.15044170762123052 -0.041637967138674056 0 -0.2303852085142922 -0.1903793508645889 0
          0.5764211900240562 0.6008015962178923 0 0.9668821442154357 0.27172078737634575 0
          0 0 0 0 0 0
          0 0 0 0 0 0
          0 0 0
          <InformationKey name="L2_NORM_RANGE" location="vtkDataArray" length="2">
            <Value index="0">
              0
            </Value>
            <Value index="1">
              1.0043372278
            </Value>
          </InformationKey>
        </DataArray>
        <DataArray type="Float64" Name="Temperature" format="ascii" RangeMin="163.5725511884552" RangeMax="960.0003690083565">
          959.999053353155 756.6720748527742 960.0000649255174 274.8557285624348 461.26317813411237 960.0003690083565
          163.5725511884552 240.00034355457112 272.48811403263375 237.85987582002483 243.93430518680287 239.99988174812972
          240.00030721130673 959.9996426918059 303.29764104290865 388.02159031102224 264.3750313640645 355.0129694952812
          669.7722546133336 514.9486831783693 240.00006303098127 859.4168030566527 960.0000541441652 738.763488104303
          239.9998751300764
        </DataArray>
        <DataArray type="Float64" Name="Density" format="ascii" RangeMin="0.2510684950388932" RangeMax="1.473510354472735">
          0.2510688391221194 0.318534086156948 0.25106857456557613 0.8769176802111295 0.5225343346475229 0.2510684950388932
          1.473510354472735 1.0042729285881455 0.884537106285834 1.013310240126758 0.988076882827672 1.0042748610045449
          1.00427308066527 0.2510686849923007 0.7946842153302847 0.6211660740076699 0.9116815859656554 0.6789212468107138
          0.3598623953493817 0.4680579944316957 1.0042741024305337 0.2804527989521073 0.2510685773852205 0.32625576624285035
          1.0042748886976618
        </DataArray>
      </PointData>
      <CellData>
        <DataArray type="UInt8" Name="vtkGhostType" format="ascii" RangeMin="0" RangeMax="1">
          1 1 1 1 1 1
          1 1 1 1 1 1
          1 0 1
        </DataArray>
      </CellData>
      <Points>
        <DataArray type="Float32" Name="Points" NumberOfComponents="3" format="ascii" RangeMin="0" RangeMax="1.4142135623730951">
          0 0.75 0 0.5 1 0
          0 0.5 0 0.25 0.25 0
          0.75 0.75 0 0 0 0
          0.25 0 0 1 0.75 0
          0.75 0.25 0 0.5 0 0
          0.75 0 0 1 0.25 0
          1 0 0 0 0.25 0
          0.5 0.25 0 0.25 0.5 0
          0.5 0.5 0 0.75 0.5 0
          0.25 0.75 0 0.5 0.75 0
          1 0.5 0 0.25 1 0
          0 1 0 0.75 1 0
          1 1 0
          <InformationKey name="L2_NORM_RANGE" location="vtkDataArray" length="2">
            <Value index="0">
              0
            </Value>
            <Value index="1">
              1.4142135624
            </Value>
          </InformationKey>
        </DataArray>
      </Points>
      <Cells>
        <DataArray type="Int64" Name="connectivity" format="ascii" RangeMin="0" RangeMax="24">
          6 3 13 5 9 14
          3 6 3 15 2 13
          14 16 15 3 8 17
          16 14 15 18 0 2
          17 4 19 16 20 7
          4 17 18 21 22 0
          19 1 21 18 4 23
          1 19 7 24 23 4
          10 8 14 9 12 11
          8 10 11 20 17 8
        </DataArray>
        <DataArray type="Int64" Name="offsets" format="ascii" RangeMin="4" RangeMax="60">
          4 8 12 16 20 24
          28 32 36 40 44 48
          52 56 60
        </DataArray>
        <DataArray type="UInt8" Name="types" format="ascii" RangeMin="9" RangeMax="9">
          9 9 9 9 9 9
          9 9 9 9 9 9
          9 9 9
        </DataArray>
      </Cells>
    </Piece>
  </UnstructuredGrid>
</VTKFile>
