<?xml version="1.0"?>
<VTKFile type="UnstructuredGrid" version="0.1" byte_order="LittleEndian" header_type="UInt32" compressor="vtkZLibDataCompressor">
  <UnstructuredGrid>
    <Piece NumberOfPoints="644" NumberOfCells="2488">
      <PointData>
        <DataArray type="Float64" Name="Velocity" NumberOfComponents="3" format="ascii" RangeMin="0" RangeMax="1.3192068776009578">
          1.1957890208182358 0 0 1.1880209136362891 0 0
          1.2542461391273894 0 0 1.0773470579491191 -0.08778488985897044 -0.0022951241876368674
          1.250520103186765 0 0 1.070712439203716 -0.10609747160705436 0
          1.088864903599017 -0.0290835955818082 0 1.0908846165827053 -0.03625211537378858 0
          1.284254198765375 0 0 1.2782554787280895 0 0
          0.8241940509993939 -0.029539873215483067 0.039672830905600934 0.812274935874166 -0.03298067909823856 0
          0.8707656735985756 -0.06536853286725841 0 1.307708362705982 0 0
          0.9014883527529932 -0.06632042806969508 0 1.3039279392244347 0 0
          0.8313364890365741 0.056268241679533974 0.025872399042659255 0.821338957177818 0.06974418586800656 0
          1.2760740506334658 0 0 1.2695005089254676 0 0
          0.8362357237173103 0.03610484748818515 0 0.8420876478214279 0.03982043882249048 0
          0.8241048153100791 -0.15623461130690658 0 0.5169945033285415 0.009700537231756198 0
          0.882805688429267 -0.11850598109386218 0 0.49380803984947846 -0.004428007832164092 0
          1.1035378982276731 0.09759690770205093 -0.013046147032744702 1.0955086546120547 0.10606660080387423 0
          1.0981414390424786 0.024417506884960083 0 0.27673521362986425 -0.10557168989405727 0
          1.0981815374577217 0.031197253372479104 0 0.21602803079801935 -0.10731342922778843 0
          1.053072632353631 0 0 1.1525867262910345 0.27201886632326205 0
          1.0550218968535996 0 0 1.1685998730010927 0.2820759494636319 0
          0.7018868998234409 -0.05803017506123634 0 0.7034908429951428 -0.04218259490153147 0
          0.27418347155235295 0.09158472257717362 0 0.26183539795573496 0.09924356261596934 0
          0 0 0 0 0 0
          0 0 0 0 0 0
          0 0 0 0 0 0
          0 0 0 0.8710642071207648 0.12332423883784281 0
          0 0 0 0.8892809562986239 0.1455890973903267 0
          0 0 0 0.8755368187979693 0.37957235886092705 0
          0 0 0 0 0 0
          0.8898297649259115 0.40871841111035967 0 0 0 0
          0 0 0 0.5475385837357515 0.1078210802461364 -0.0019492518520840638
          0 0 0 0 0 0
          0 0 0 0 0 0
          0 0 0 0 0 0
          0.6877722404405077 0.057087215915896154 0 0 0 0
          0.6940663639657108 0.04795859761250234 0 0 0 0
          0 0 0 0 0 0
          0 0 0 0 0 0
          0 0 0 0 0 0
          0 0 0 0 0 0
          0 0 0 0 0 0
          1.2133397422431444 0 0 1 0 0
          1.2121472218640592 0 0 1.0000000000000002 0 0
          1.2679555512209226 0 0 1.0000000000000002 0 0
          1.258074153240751 0 0 1 0 0
          0.5406721196236309 0.2343739786527418 0 0.8343557062164175 -0.36923830472207747 0
          0.6268058555918541 0.2129437945014665 0 0.876943981690794 -0.4281542671731749 0
          1 0 0 0.5734207938987462 -0.24458313215138736 0
          1.0000000000000002 0 0 1.290584481323368 0 0
          0.6079379646789106 -0.264083070711622 0 1.2848574412242668 0 0
          1.1775971810512598 -0.2761608442418363 0 1.17394903824833 -0.31333507353576495 0
          1 0 0 1 0 0
          1.3115092932776524 0 0 1.3064384528837376 0 0
          1 0 0 1 0 0
          1 0 0 1.0000000000000002 0 0
          1.2795727479276722 0 0 1.2776978209485448 0 0
          1.0000000000000002 0 0 1 0 0
          1.0560917274180268 0 0 1 0 0
          1.0566824610108105 0 0 1.0000000000000002 0 0
          1.0125191836380123 -0.00396632472563819 0.0004957128795187625 1 0 0
          1 0 0 1.235616954703695 0 0
          1.192454764048535 -0.06079386659659306 -0.022510577704476523 1.1935966477500708 0 0
          1.1817326501457004 -0.06348213381661316 -0.011077973034098762 1.168520379197136 -0.06780289105934534 0
          1.2359758652548454 0 0 1.2317744738337306 0 0
          1.2536246865339513 0 0 1.2101664717348146 -0.018037866893232165 0
          1.2710141518860385 0 0 1.2140203350957597 -0.017251783949958605 0
          1.1946615097018878 -0.029953955976676234 0 1.1996310642188102 -0.029066110132439902 -0.012990960686536015
          1.0810495760387133 -0.044229283995412816 -0.0044800001236974 0.9296141760439276 -0.08064533951704494 0.02040956505011954
          1.0784996799354838 -0.035888263342423773 -0.009799728124943808 1.075473864846996 -0.09884975785523517 0.0001390067178370154
          1.2657237450439554 0 0 1.211238445307689 -0.019796130148821575 0
          1.2689245527321997 0 0 1.1928626339223352 -0.032415024801526096 0
          1.0809981108573405 -0.04973270910273099 0 0.9273164950700123 -0.08701480140323092 0.007764896042506965
          0.9237766181608144 -0.09337180756716536 0 1.0893990793155588 -0.031663781617261764 0
          0.919424552158271 -0.03948052447821777 0.008392686615619193 1.0040394210356565 -0.04588017919780758 0
          1.2307750280316938 -0.009991305201605263 0 1.2232712770882963 -0.00782285314618119 0
          1.226151976013837 -0.009789748782397774 0 1.013246863123442 -0.05042277972276358 0
          0.9244604445978506 -0.04300920773190545 0.006779469982230617 0.9190240475402868 -0.04460600370512547 0
          1.006775266665706 -0.04860067657286003 0 1.2812285417785212 0 0
          1.1817976651490578 -0.026016680207215325 0 1.1772076910881963 -0.025822694015697326 0
          1.295731854561491 0 0 1.1851061736888424 -0.02620325055443217 0
          1.2911998989119682 0 0 1.2934921254625567 0 0
          0.766786446506897 0.011483486598872581 0.006997488605140195 0.8498376351584329 -0.038853818909739914 -0.0001652084644480513
          0.8394104125495501 -0.03778806557517763 -0.00408913623783256 0.8182248500651312 -0.03178070510344655 0.019700741830518623
          0.7781992733870905 0.019288774196467687 0.016773936529705682 0.7585087683374985 0.010506100177368213 0.007896041103218896
          0.7821573550140494 0.02039045433291363 0.0372530593127002 0.8580103869040513 -0.03665348712950887 0
          0.7610688094048246 0.010346804828875995 0 0.7798349034224031 0.012460341987433461 0
          0.7077736270086683 -0.015520524900934161 0 0.8866731157431116 -0.06513952690189945 0
          0.6980808500067078 -0.08258607037585942 0 0.7020145542623816 -0.012013332992797034 0
          0.8470670083957139 -0.11022099623109712 0 1.2025653033798245 -0.031248371837200858 0
          1.2039819330219905 -0.031133992886923017 0 1.204794152514333 -0.03942708084613948 0
          1.2124191540146219 -0.031166038429443908 0 1.3143706182698862 0 0
          1.3121768981085207 0 0 1.3060471753492824 0 0
          0.7186824966251057 -0.01413966342583451 0 0.863953785538924 -0.1131565938722501 0
          0.8795308614425349 -0.11311447284732574 0 0.6917376199915474 -0.09467729311427467 0
          1.207485657080309 -0.029947079083464133 0 0.7094603229634038 -0.08607434690990869 0
          1.3089768086483689 0 0 1.2167971907661208 -0.025627843790858792 0
          0.8375749630739528 0.03566200265113116 0.0011923347551363965 0.9392977192066058 0.04349283053505241 -0.0023415245025788798
          0.8317379672963015 0.03064015441623155 0.0006080098727436426 0.9515130196255238 0.09559907965372334 0.008436251566984465
          0.9386994733840308 0.05197567873618004 -0.0008352258551748543 0.8290419761006483 0.06599229021144347 0.01650530300985096
          0.940844250161287 0.11826904177595808 0 0.937423955116206 0.06320141480812148 0
          0.9450758382608859 0.10536817776652421 0.00441212724985273 0.8354460325525588 0.04169946191752737 0
          1.276945478752457 0.16583507882194182 0 1.260121470759413 0.052919441082982306 0
          1.2786585294053194 0.1641118051130491 0 1.274667339380867 0 0
          1.1663260799980917 0 0 1.2566978518082539 0.06112624750924016 0
          1.1677681068051415 0 0 1.2609867499235778 0.14685634213631 0
          1.1700538541379208 0 0 1.2533817496807516 0.060585509164129685 0
          0.8382390634220837 0.03779281419903067 0 0.9849529133654685 0.03794630467925616 0
          0.835217428176151 0.09182153738572617 0 1.168839659216703 0.0399228453553782 0
          0.6873191518332964 0.05948446244529475 0 1.1536990136094485 0.017260666899162665 0
          0.9883422606193367 0.038137452198735294 0 1.1528502607581022 0.017408078326213654 0
          1.1717274226553753 0.040743363117627544 0 1.1535470838639192 0.014454042941929026 0
          0.8346540520220723 0.09795499671397646 0 0.993828621407865 0.04178163820607751 0
          0.6744553510738636 0.05988888564235515 0 0.8388364003854251 0.10487219096459091 0
          0.691062549629388 0.06086580071157491 0 1.1744407808132693 0.03958503660214083 0
          1.0459273749471862 0.04541217836217768 0 1.0475163364559774 0.05369719166268733 0
          0.8547752151634412 -0.1341625538933658 0 0.7571975842977774 -0.11283108049179594 0
          0.5245043035448951 -0.14442572013193045 0 0.5463410178564376 -0.16187369372466925 0
          0.5389126984729945 -0.14266026605644166 0 0.5517948502843638 0.1176881082834083 0
          0.5367454887262032 0.13106986639673146 0 0.5092161716953384 0.005638707548274005 0
          0.3601579120618602 0.04875802876281891 0 0.3574334117101681 -0.048902482894960034 0
          0.5184126509061879 -0.14462262799863565 0 0.5335392890971389 -0.16130811826921299 0
          0.5596687391596059 -0.15548301241099224 0 1.063173550653428 0.05410690069204507 0
          0.7842174612800255 -0.10327735186486964 0 0.7797229103960607 -0.08405994076533728 0
          0.33390134953094414 -0.054124507699723344 0 0.3460255196024584 -0.0713823547393232 0
          0.5314570672551333 0.1303193520476329 0 0.36091014699449664 0.03564745373292182 0
          0.3242871230927972 0.04486848133695059 0 1.0977247190486707 0.10449153133084939 -0.0063772362365082805
          1.09799869233072 0.045358300634126866 -0.00911018568816621 1.2111352258716233 0.02753532039557117 -0.012532335287809886
          1.2131628885161607 0.02571814307206607 -0.02630661930995234 1.1982400165036817 0.061369420783752855 -0.012613737583481121
          1.2027101780386926 0.05591407629463801 -0.022527347755888393 1.0985129674603686 0.041003623250954344 -0.017608990599532717
          1.0980841515048847 0.04469687439014942 0 1.2124400702511984 0.03185438460719677 0
          1.198523132419343 0.0705105051223944 0 1.2323271975867907 0.0019867712142303553 0
          1.098453077857552 0.02797483416950434 0 1.221879743056829 0.01283513987811321 0
          0.25346175256411185 -0.10185249424294096 0 0.11033650172354803 -0.06032912100775043 0
          0.16360189663272567 -0.10573362334747517 0 0.1606379347961789 -0.10964333898025534 0
          0.3992316874803934 -0.15445181923630255 0 0.15466606327580854 -0.1056693368089813 0
          0.1539624058318704 -0.012188517168023992 0 0.09505557570034837 -0.06580888786029852 0
          1.2231451470396189 0.007383049304695053 0 1.2244585840927589 0.0053758736964418605 0
          1.2134163245069254 0.016702414979764244 0 1.216504781897063 0.016475332248527576 0
          0.11942735938085941 -0.1022273038469911 0 0.37949635519815256 -0.15005886425229736 0
          0.12716805239331466 -0.10944002162566711 0 0.07037385132735867 -0.06373832661142358 0
          0.08690553052145625 -0.056608057686664 0 0.14215201585991455 -0.011300531630719106 0
          0.37971272623562236 -0.15019216511949054 0 0.13005311387899632 0.003923488832162516 0
          1.0263906516942385 0 0 1.0540334345809834 0 0
          1.0228463003780643 0 0 1.027123000255278 0 0
          1.196821313482168 0.1897910571005417 0 1.2063982102616648 0.19056404740646643 0
          1.0228427530647917 0 0 1.1607848653903408 0.2733759908873285 0
          1.1326130228103508 0.31106267880258853 0 1.082276548801377 0.14561130876272124 0
          1.1149557695626129 0.28410992800684776 0 1.106953514343414 0.363880317281625 0
          1.1866778161125002 0.1848765783521866 0 1.0221891507641736 0 0
          1.0226637975113984 0 0 1.1358809168640644 0.3318863589032618 0
          1.0862382096849303 0.1319466440111022 0 1.0923171804681429 0.1290035625311491 0
          1.1031279865611288 0.2739554339134237 0 1.08876295296078 0.34804740973779286 0
          1.106603917261259 0.24673801294309017 0 1.1028485380432316 0.35721468814880997 0
          1.1378203556824102 0.3462250947129198 0 0.7952622473152855 0.09929054018540089 0
          0.4067732175613868 -0.0732045668903787 0 0.43670851639846214 -0.0747081716910341 0
          0.7035151428158627 -0.0506980986278425 0 0.36876369622406163 -0.10092638353481849 0
          0.4841394015177622 -0.04046604058611779 0 0.4478162463375933 -0.016590339972134095 0
          0.7971908026725855 0.10935334383145838 0 0.3523520784570181 -0.08090497898513592 0
          0.4182604857638366 -0.058829540217242994 0 0.45332383737495546 -0.00742658239049237 0
          0.4668882700876479 -0.03423126882439663 0 0.7848391130919967 0.11986001034680534 0
          0.09605273971331874 0.04560089195945327 0 0.09844315986154654 0.039187695549302 0
          0.14476721540017234 0.09239317601728714 0 0.5725253370486942 0.15658972528551393 0
          0.5998749137256953 0.1550981855360601 0 0.2728188954073485 0.09033020828153732 0
          0.16017682582575643 0.09710980231705223 0 0.3975777119469127 0.149252193591432 0
          0.3506962788493661 0.1458391599495723 0.002258139904235006 0.10163517150579997 0.044409837294738706 0
          0.13980829950375478 0.09410800144424371 0 0.09393184437838872 0.04899091139560465 0
          0.5793252483715997 0.16375124402662952 0 0.34264331349894167 0.1479300277784047 -0.00025476034985046054
          0.38795974917967063 0.14923103761763143 0 0 0 0
          0 0 0 0 0 0
          0 0 0 0 0 0
          0 0 0 0 0 0
          0 0 0 0 0 0
          0 0 0 0 0 0
          0 0 0 0 0 0
          0 0 0 0 0 0
          0 0 0 0 0 0
          0 0 0 0 0 0
          0 0 0 0.15111832535455214 0.08436897269231786 0.005975403584797489
          0 0 0 0 0 0
          0 0 0 0 0 0
          0 0 0 0 0 0
          0 0 0 0 0 0
          0 0 0 0.466452092158449 0.08876419593360983 0
          0 0 0 0 0 0
          0 0 0 0 0 0
          0 0 0 0 0 0
          0.7793396305523694 0.11616427819968125 0 1.0527754545491443 -0.02304486407575705 0
          0.74619828901979 0.12185169377458158 0.001872589613564231 1.2086820007402528 0.03523048444368111 0
          0.8790016455386869 0.13480041974041182 0 1.2626362922099927 -0.05754552275434002 0
          0.5342455060534473 0.1514221976470395 0 0 0 0
          0 0 0 0 0 0
          1.0645523822124896 -0.04010836288592618 0 0.7381915220058427 0.12995843133028695 -0.006030357563156192
          1.2593915746412594 -0.045966674071789136 0 1.2620143066635479 -0.057144023304884294 0
          1.2131505249600207 0.037950195485804486 0 1.2153968858921262 0.035714931648357456 0
          0.7745647886577269 0.1072722725265286 0 1.0751338401791593 -0.05906901291039942 0
          0 0 0 0.5649101678631115 0.18456838189961097 0
          0 0 0 0 0 0
          0.5243837992648501 0.2426886937966675 0 0.4721155149862361 0.28126227928421116 0
          0.4468777590490291 0.2796974073366124 0 0.6054805053010902 0.4040687926740112 0
          0.35902196321409185 0.2554403900163786 0 0.5432115983216208 0.2127889944756684 0
          1.0659381704849509 0.4162756157818978 0 0.885587197147153 0.3939734375612489 0
          0.9130570974641786 0.43381296277293463 0 0 0 0
          0 0 0 0.36677444005968574 0.09152663075412286 0
          0.2925343988231873 0.10142335139009571 -0.010973126117878618 0 0 0
          0.5642338279088469 0.2272216970355989 0 0 0 0
          0 0 0 0 0 0
          0 0 0 1.0359080044050502 0.38388361655349496 0
          1.0535475552591491 0.40362490319962274 0 0.9267003527704862 0.4090542933579646 0
          0.5214149582564092 0.29960865484699645 0 0.6249174476749305 0.4211597073369907 0
          0.4673362797255797 0.28976255783287935 0 0.9346087803396566 0.42893230831052864 0
          0.6232562145258215 0.40648849522352587 0 0.5487632964554429 0.25700678827440276 0
          0 0 0 0 0 0
          0 0 0 0 0 0
          0 0 0 0.3628948837590088 0.08649339775927413 0
          0 0 0 0 0 0
          0.2656900059157314 0.10590420665330641 0.004394225511881425 0 0 0
          0.6209067824093852 0.08506633683206251 -0.004719916393496196 1.0331313723790692 -0.08568488563930403 -0.0019159398283496306
          0.3205890856280061 0.10248613485668474 0.009581470599813456 0.3511508218422982 0.046101556802609994 0.001861871116111765
          0.6187771902998775 0.08324668868263327 0.003950965669749595 0.31465882807491 0.1001645896955242 -0.0032534025052136503
          1.0361551815786054 -0.1135373775337785 -0.0017982907603728742 0 0 0
          0 0 0 0 0 0
          0 0 0 0 0 0
          0 0 0 0 0 0
          0 0 0 0 0 0
          0 0 0 0 0 0
          0 0 0 0 0 0
          0 0 0 0 0 0
          0 0 0 0.41916201182547025 0.06925566019199363 0
          0 0 0 0 0 0
          0 0 0 0 0 0
          0 0 0 0 0 0
          0 0 0 0 0 0
          0 0 0 0 0 0
          0.4407328357767463 -0.08855494695960488 0 0.4293007127025167 0.058420271323928366 0
          0 0 0 0 0 0
          0 0 0 0 0 0
          0.31233738195704486 0.2509358641706621 0 0 0 0
          0 0 0 0.33194182194793387 0.2724701539392638 0
          0 0 0 1.0681419217051173 -0.12830015174258427 0
          1.0722962090106833 -0.15094524369788995 0 0.4688771867769795 0.04325511954727324 0
          0.7643651807688205 -0.10615930219244324 0 0.45100382268937783 0.01648212746516067 0
          0.6933607846087984 0.04802497096304514 0 0.3315230830300134 0.23763078547691413 0
          0 0 0 0.3345745534718551 0.24275974051803723 0
          0 0 0 0 0 0
          0.7894436609492363 -0.10382677162810078 0 0.4823471140221676 0.032432027657570354 0
          0.45310629663009605 0.008703666451135543 0 0.7648366134031785 -0.10608824316144926 0
          1.0838676868305999 -0.16000635799723423 0 0.5284163019092544 -0.17302704685107434 0
          0 0 0 0 0 0
          0.5134974706322255 -0.16054109288041785 0 0 0 0
          0 0 0 0 0 0
          0.2947720400055248 0.20043753683297327 0 0.27295797965071794 0.19229205305169011 0
          0 0 0 0.22009101748143 -0.07765303483576347 0
          0 0 0 0.5298403999966939 -0.21072402569065765 0
          0 0 0 0 0 0
          0 0 0 0.5213227973251545 -0.21294135201816242 0
          0.25877783291911305 0.13467408390414604 0 0.2406767866507144 -0.14333987205512566 0
          0 0 0 0 0 0
          0.5207032563503987 -0.2484769048956909 0 0 0 0
          0 0 0 0.5114914337086455 -0.2522452068474297 0
          0 0 0 0.2677239884281599 0.13918508756592257 0
          0 0 0 0.2871541277629416 -0.15043034867910746 0
          0 0 0 0.4838445748883397 -0.27265664583790106 0
          0 0 0 0.3142839513634352 -0.26982398537219804 0
          0.248772999979071 0.07670531642629055 0 0.24631222719941884 0.06355544437906507 0
          0.2923263618161782 -0.19464671510017598 0 0 0 0
          0.3450017817955756 -0.2631067566150072 0 0 0 0
          0.31749045335820925 -0.21677867505257958 0 0.435197369750404 -0.2665076298597387 0
          0.31957958776846185 -0.2415171382508427 0 0.3573430850401527 -0.2537477067846659 0
          0.4321912241917191 -0.28512940794716657 0 0.46687478306707536 -0.2988554291088466 0
          0.37347199973637407 -0.28827643062587466 0 1.2134675902641907 0 0
          1.2491262993618448 0 0 1.2487881912508116 0 0
          1 0 0 1 0 0
          1.248468933676866 0 0 1 0 0
          1 0 0 1.261931373989951 0 0
          1.2798983285477905 0 0 1 0 0
          1 0 0 1 0 0
          1.2733592666517508 0 0 1.2752054606430285 0 0
          1.0000000000000002 0 0 0.5911758677750806 0.23902098957068704 0
          0.8472989839159905 0.06339407691143314 0 0.5055442383363679 -0.002875352661584185 0
          0.4796597669626655 -0.023117643979773818 0 0.8982073345652548 0.26197836729377966 0
          0.8534537159445594 -0.39773704881714395 0 0.5925643659114147 -0.4091988804417284 0
          0.625192031637855 -0.40867360360539373 0 0.9280993527591065 -0.42858477860936367 0
          1.1022259856874164 -0.3271364605359788 0 1.116723636095007 -0.3489966228818004 0
          1.0642191742552158 -0.4184559471654908 0 0.8720365879979883 0.06320901290357528 0
          0.5336059093875051 -0.02720449361866054 0 0.92022739326184 0.2072097629455699 0
          0.8727391663807033 0.01890505178805526 0 0.9280792117943478 0.23737275595535515 0
          0.6367931417994335 -0.4340377224530742 0 1.0403086231317862 -0.4176595407731248 0
          1.0376338583632352 -0.39492460019405046 0 1.1174900936517402 -0.3678858734895375 0
          0.9453787383579103 -0.42109035463889105 0 0.9412875099825067 -0.41619176421334914 0
          1 0 0 1 0 0
          1 0 0 0.5931908961273538 -0.24468077332287333 0
          0.9354252013037208 -0.25267867580726255 0 0.8329833043626598 -0.07731710092189109 0
          1 0 0 1.2964900693551116 0 0
          1.2871403864333217 0 0 0.8694833913952527 -0.09136336549767926 0
          0.930861594052369 -0.2479566729548594 0 0.9199448862377648 -0.24556211390757182 0
          0.9033310826386037 -0.10218997378126396 0 1.2935947024087076 0 0
          1.29101942294707 0 0 1.110485222142014 -0.3670177010505025 0
          1.1239848278357067 -0.2753445586784475 0 1.1766020372592283 -0.2987224900760423 0
          1.2892040300560894 -0.15140093221722173 0 1.2075584740301093 -0.1890460054275715 0
          1.1078110020218899 -0.35973534112701494 0 1.105861018233971 -0.2672639006739102 0
          1.080313373489752 -0.3525992654316203 0 1.1029690241789762 -0.2525367560686079 0
          1.1964372215083086 -0.19099647454960553 0 1.1873824657069565 -0.190326481917814 0
          1.2790460098991858 -0.1549698754315725 0 1.2678122696334362 -0.150888612538778 0
          1 0 0 1 0 0
          1 0 0 1 0 0
          1.3171370715729782 0 0 1.3192068776009578 0 0
          1.3089231779226067 0 0 1.3141438328736064 0 0
          1 0 0 1 0 0
          1 0 0 1 0 0
          1 0 0 0.9999999999999999 0 0
          1 0 0 1 0 0
          1.2795033189072829 0 0 1.1753403029527365 0 0
          1.1749139427120092 0 0 1.1772251206081539 0 0
          1.0000000000000002 0 0 1 0 0
          1 0 0 1 0 0
          1.026610997656451 0 0 1.0252889263051561 0 0
          1.0326405214488839 -0.0018489626248678716 -0.0001815303076057368 1.0567011823313892 0 0
          1.021215560472113 0 0 1.0000000000000002 0 0
          1 0 0 1.0068146629735117 -0.004349613583712246 -0.00043295833013079737
          1.0000000000000002 0 0 1.019815246536406 0 0
          1.03099839727088 -0.0018124192836827127 -0.00021436026029797298 1.021859450944293 0 0
          1.0196102889822147 0 0 1.006047788061296 -0.0046564088284244635 0.0016729111315293061
          1 0 0 1.0044163113808315 -0.002005564037731005 0.00023777296953820677
          1.0046756166372037 -0.0022853807185641154 0.0005638762999703533 1.0000000000000002 0 0
          <InformationKey name="L2_NORM_RANGE" location="vtkDataArray" length="2">
            <Value index="0">
              0
            </Value>
            <Value index="1">
              1.3192068776
            </Value>
          </InformationKey>
        </DataArray>
        <DataArray type="Float64" Name="Pressure" format="ascii" RangeMin="-3.7895390005277396" RangeMax="2.526614039560548">
          -0.03370295209688998 -0.0628572555819497 -0.317990634319861 0.015485722559279496 -0.3354663709799719 -0.04687282610343895
          -0.26774307356211796 -0.31654242645892605 -0.7953148007030864 -0.791994058011941 0.1744905635917322 0.0691443653521737
          -0.8576031708371493 -1.2326240752704083 -0.8917115573233063 -1.2277823772761425 0.05196403714793876 -0.04238598037150664
          -1.5825395091539325 -1.5976313492141587 -0.6082943090499271 -0.647526652794268 -1.8827366033858457 -1.666935981105062
          -1.8829252952645452 -1.6543268635743755 0.03017552739122766 -0.020669195429628112 -0.32043397433522736 -2.6867951681118547
          -0.353697420354376 -2.669067518807157 -1.990442973682935 -1.8139230003078723 -1.989830718100884 -1.8011496821624702
          -2.4159089150546675 -2.400072056776599 -2.719886424173059 -2.6502636446908165 -3.5611542730025043 -3.307313622430718
          -3.6330453304322874 -3.461309558730994 -3.130625313707894 -3.2002167029202786 -3.4410226706604234 -1.8480374594375062
          -2.564104183379498 -1.857882964242853 -2.2154387618124773 -1.089856808285373 -3.57530197983234 -1.8979890018063086
          -0.9892971702747567 -0.5348723902293889 -3.564650848201095 -2.6471700876159825 0 -3.4167989481348227
          0 -3.174816727876859 0.8412574286728947 0.7410091898445585 -2.283044687429076 1.066905369445514
          -2.408578941297846 -2.198747279043607 -2.609324646819215 2.076062793999998 -1.87404037269602 2.2812481187213156
          -0.5721878757188076 2.4597271788510184 0.613031240357617 2.0934846867796333 0.9995749537151032 0.9015470370108916
          -0.02839230298403544 -2.1847526754336424 -0.05001653846956528 -2.2100069360709114 -0.33391896083238426 -2.004097832117639
          -0.35730893900989646 -1.9876397282033282 0.7240850308493774 -1.0868929945046713 0.6722130711876475 -1.0015681432188934
          -1.5251993523639311 0.6207386036350431 -1.5273514788704308 -0.8078321596574036 0.685057683547927 -0.8015311423279375
          -1.8581515893974374 -1.8370292338764473 -0.0671600783080969 -0.13755493562951063 -1.213676441875561 -1.213578177623519
          0.8637825566697509 0.7049193477432408 -0.2521428321513379 -0.2749742512513803 -1.5736405213962006 -1.5909357717236932
          -1.60772593289343 -1.5971313586744293 -1.9798173385454887 -2.031820247002179 -1.9751949828985405 -2.007789067831725
          -2.2682004748305604 -2.434862682773345 -2.4374756300252547 -0.1692784652660206 0.0057837286772873505 -0.051714263441356594
          -0.023435276323948654 -0.03781655733086142 -0.18774096058553452 -0.19630141349185057 -0.33083809090868127 -0.32898336273037604
          -0.536283621132636 -0.3096056939670346 -0.1383838200825616 -0.10127883274700084 -0.0890179908574041 0.09782406084998677
          -0.028828662805537215 -0.03260272084715168 -0.5373867927462679 -0.33805298142492257 -0.5387805747212047 -0.15046044749326262
          -0.11255816643845307 0.018736132893447985 -0.012329262422430985 -0.30322391130350745 0.12851229210343842 -0.4869568794075391
          -0.5597474111035194 -0.5626930952995074 -0.5626607752250786 -0.5309906676818308 0.02830764034148148 -0.0057324670144496504
          -0.5165184876328986 -0.7940024000534676 -0.8404596657623974 -0.8374199188847123 -1.013914434974134 -0.8436372406557965
          -1.007870380406887 -1.012183839319545 0.014720276693405407 -0.0945262398632535 -0.017256765655992972 0.09131565960225757
          0.0412090859274116 0.11440106161361023 0.1321274261907734 -0.11668355274112473 -0.024552075223709335 0.010351980187917137
          -0.6500868572371248 -0.8801117138019298 -1.2395305737557964 -0.6074722512730416 -1.351923546808483 -1.0835161555594421
          -1.085280391080727 -1.4680239845461402 -1.4647616605456322 -1.394676733219753 -1.4030501459529865 -1.2290584597296361
          -0.6748726009740164 -1.3534541257318593 -1.3514487818387777 -1.2648911043544269 -1.0841271400500074 -1.248745047030968
          -1.4128133384706694 -1.4611701612984385 -0.07369905475838319 0.030053352699236285 0.006594080557193979 0.04219941900101185
          -0.03644257871566809 -0.016726637223282364 -0.028949456439715453 -0.06941609640331807 -0.015881719680154376 -0.09483653859050675
          -1.666595035812874 -1.6319547259916454 -1.6687770124158956 -1.5886967457395853 -1.7953228009887208 -1.6246877963260127
          -1.7892418155155907 -1.6779838238258626 -1.7942567291468086 -1.6217819125094783 -0.6343324168661731 -0.4499670292429118
          -1.2146133851766983 -0.9783319469026596 -1.0849790640491281 -0.7514370149466096 -0.4767197225713992 -0.7581468385957782
          -0.976658616072789 -0.7594412185818034 -1.2189683015069457 -0.4885549150838147 -1.09334485965056 -1.2196832743125734
          -1.0962008242584123 -0.9759331408911174 -1.9118745875489003 -1.8912603574943285 -1.882098994708113 -2.272849817859594
          -1.825048282336817 -2.2973026569526414 -1.8159815129628603 -1.8078704897420852 -1.8098492979402443 -1.6604801281072112
          -2.180363972708396 -2.1484702444304173 -1.8372792376670692 -2.3740891075683477 -2.331975741259575 -1.9158756232461314
          -2.284701862143152 -2.281310945270145 -2.185626254547964 -2.168948490859399 -1.8173303393877827 -2.175078305752793
          -2.1843115801974378 -0.01112263165139604 -0.1182131916837249 -0.14428710807740244 -0.10870369352420535 -0.01142391469999933
          0.014224119291464297 -0.06514303919071858 -0.13190797068867938 -0.15499941068984183 -0.02102841954194961 -0.6028811895008479
          -0.34273228419526164 -0.34008837110279877 -2.723063527582049 -3.1912163835528764 -3.1540705420407877 -3.388737014311899
          -2.709278076361104 -3.412788389283442 -2.770467775791517 -3.329379954327186 -0.6006662481576512 -0.6017129636242632
          -0.36845277918878283 -0.3582947497247296 -3.123223939029989 -2.69995665368612 -3.0839507234386985 -3.136391691214515
          -3.0931594352442464 -2.776278897434341 -2.748491991930811 -2.724687229221924 -2.006398528511554 -1.9890551065592972
          -2.1515428025187204 -2.000932834178104 -1.8243196678177034 -1.819726669347876 -2.133854443570815 -1.8121326763864118
          -1.5617444595101058 -1.967656981293928 -1.770507235927234 -1.4794338383231311 -1.8318595955215355 -2.0204412553693314