<?xml version="1.0"?>
<VTKFile type="UnstructuredGrid" version="0.1" byte_order="LittleEndian" header_type="UInt32" compressor="vtkZLibDataCompressor">
  <UnstructuredGrid>
    <Piece NumberOfPoints="32" NumberOfCells="44">
      <PointData>
        <DataArray type="Float64" Name="proc" format="ascii" RangeMin="0" RangeMax="1">
          0 0 0 0 0 0
          0 0 0 0 0 0
          0 0 0 0 0 0
          0 0 0 0 0 0
          0 0 0 1 1 1
          1 1
        </DataArray>
        <DataArray type="Float64" Name="Displacement" NumberOfComponents="3" format="ascii" RangeMin="2.1872260642994374e-11" RangeMax="8.060761352936058e-11">
          6.46199512792794e-11 0 0 4.2488671244409765e-11 -1.0006559999020687e-11 0
          5.810144813911655e-11 -3.3986484364798764e-11 0 3.8146821898322035e-11 -3.936678345377229e-11 0
          3.2112854229461626e-11 -1.5953448724378862e-11 0 4.466927544496795e-11 -5.073641372694445e-11 0
          2.7794987288893244e-11 -3.1940333795097126e-11 0 5.1502038648965296e-11 -5.714731104918198e-11 0
          3.67324099891214e-11 -5.451572140938202e-11 0 4.2694745983820945e-11 -5.971374798949497e-11 0
          2.086984715439312e-11 -1.9044427496831313e-11 0 2.8916262588883164e-11 -4.6722685190443e-11 0
          2.066950192291353e-11 -3.8004370340077764e-11 0 4.2820372466509556e-11 -6.485837620661091e-11 0
          3.052882979237414e-11 -5.889877408389325e-11 0 3.603163404627934e-11 -6.417807564047451e-11 0
          9.878779364142464e-12 -1.9514238491667402e-11 0 2.309696664897544e-11 -5.224449222789113e-11 0
          1.0348590358978505e-11 -3.2250318548451954e-11 0 1.2818722741636589e-11 -4.504868497528916e-11 0
          3.184646133496793e-11 -6.707936194625452e-11 0 3.444663703359284e-11 -7.022165209851922e-11 0
          2.652915341772658e-11 -6.243018161349173e-11 0 1.772547275451486e-11 -5.647477929210658e-11 0
          3.051229558911545e-11 -6.824866758000776e-11 0 2.4428700818377222e-11 -6.434535000810228e-11 0
          3.211615330409637e-11 -6.7612717141295e-11 0 3.4695334762523454e-11 -6.905767302749882e-11 0
          3.293572325568452e-11 -7.036824781812668e-11 0 3.2379928539187555e-11 -7.119323084690577e-11 0
          3.4204131955219624e-11 -7.29908536468007e-11 0 4.0022447433585315e-11 -6.577456322900127e-11 0
          <InformationKey name="L2_NORM_RANGE" location="vtkDataArray" length="2">
            <Value index="0">
              2.1872260643e-11
            </Value>
            <Value index="1">
              8.0607613529e-11
            </Value>
          </InformationKey>
        </DataArray>
        <DataArray type="Float64" Name="TopologicalDerivative1" format="ascii" RangeMin="-0.07038875354722311" RangeMax="0.28499940115586253">
          0.28499940115586253 0.0617062336016274 0.05716892138914477 -0.026154086738494987 0.013796687331350518 -0.008402015996086906
          -0.008306908368816562 0.05727842979914689 -0.04550672031427063 0.001279412306143965 -0.054368687359574175 -0.0363168299244239
          -0.047076958673301875 0.03185835702416849 -0.047589387705164604 -0.04585433618532497 -0.07038875354722311 -0.027722952183650847
          -0.0641107864725747 -0.03116645986376397 -0.05377200098490313 -0.02264972524075594 -0.014388973738248531 0.014444877100922238
          -0.005128109317244875 0.054623713928003984 0.07828781331444189 0.00018682195660572887 -0.06007846800647101 -0.021999868957013655
          0.055122921578820275 0.07776590860051617
        </DataArray>
      </PointData>
      <CellData>
        <DataArray type="UInt8" Name="vtkGhostType" format="ascii" RangeMin="0" RangeMax="0">
          0 0 0 0 0 0
          0 0 0 0 0 0
          0 0 0 0 0 0
          0 0 0 0 0 0
          0 0 0 0 0 0
          0 0 0 0 0 0
          0 0 0 0 0 0
          0 0
        </DataArray>
        <DataArray type="Float64" Name="Stress" NumberOfComponents="6" format="ascii" RangeMin="0.000013393235140216335" RangeMax="0.11742919066918513">
          0.029180235328669125 -0.1113246493896475 0 0.023344188262935574 0 0
          -0.0905255331124254 0.004125548788380909 0 0.0031264631682050587 0 0
          -0.04742112716414511 -0.0006636887103493166 0 0.0010676806868231603 0 0
          -0.034733171033856744 -0.00044943117017002057 0 0.0036529584949056898 0 0
          -0.000044576837722669054 0.000010736227779991216 0 0.000009130411670821319 0 0
          -0.000012193444369545916 0.000002925662263510407 0 0.000005166638338848336 0 0
          -0.00005247821392986129 0.00001060831331303902 0 0.0000021789091988786884 0 0
          -0.000008053902768618008 -0.000008053902768618455 0 0.00000805390276861798 0 0
          -0.07093748588376048 0.003800800480880522 0 0.006513922902128484 0 0
          -0.007125071161345727 -0.00007654074240019638 0 0.0015930554594853121 0 0
          -0.000038126888830048205 0.000010197841316551469 0 0.00001654932450862423 0 0
          -0.006336356837816568 0.00034633322462983805 0 0.0012068784403995365 0 0
          -0.000014822342165612451 0.0000032974544850435067 0 0.0000129296514505566 0 0
          -0.00001867802388611213 0.000002242608519265131 0 0.00002088705526323296 0 0
          -0.000029574122507236457 -3.351432994305655e-7 0 0.00001250374938314885 0 0
          -0.000011943919348190203 0.000012892197209784325 0 0.000011941069519145518 0 0
          -0.000026895612431921554 0.000006663572880327288 0 0.000023355193236772967 0 0
          -0.00003069658756327941 -0.000003516663237941268 0 0.00001079504953985021 0 0
          0.000032671747926335034 0.000012663764341941038 0 0.000012794836967981632 0 0
          -0.000014339302810504301 -0.000002946664035417467 0 0.000026690966881340732 0 0
          -0.000008441692204021566 0.00001543150281525825 0 0.0000062230362597350805 0 0
          0.008335067557899504 0.0006009747032972609 0 0.0011843882756971003 0 0
          -0.000013672200147834254 -7.229884931839806e-7 0 0.000022964357852993995 0 0
          0.000026676977601919853 0.000011788582496333779 0 0.0000021533189485926744 0 0
          0.0000038934030587382076 0.000005580624085417048 0 0.000026848090668031152 0 0
          0.0031407917838950934 -0.013685683763605277 0 0.024637873989095234 0 0
          -0.00001347614143803594 0.000019582216679519094 0 0.000018839055489204232 0 0
          0.000007736435857491514 0.000027375109870845726 0 0.00002004888443958941 0 0
          0.00001128805455188088 0.00000959581079258701 0 0.00001340155378955221 0 0
          0.00015639434772137022 0.00008717592062167529 0 0.000056027255893742364 0 0
          0.00003095567006434983 0.000054368258231666755 0 0.0000069080714186032385 0 0
          0.02327895706019508 0.0035864964544853268 0 0.0016282557533962652 0 0
          0.09032042882430082 0.023254778242419144 0 -0.012527314891697467 0 0
          0.037751139457420535 0.04434945795448719 0 0.004019819686702881 0 0
          0.06804822211046273 0.019104423412492216 0 0.02511768946525738 0 0
          0.027392042574230592 0.0014067822175923015 0 0.007892522842256531 0 0
          -0.000009082348354243147 -4.1120263619439126e-7 0 0.000009834663608140813 0 0
          0.0006341164354664859 -0.004528147899573286 0 0.0022989417822105304 0 0
          0.016732684756295534 0.016682979318802624 0 0.0005884970804267715 0 0
          -0.003104385000146221 -0.06911510930759215 0 0.01771679392964692 0 0
          -0.000009570775661105034 -0.000010087027608777525 0 0.000021328606981484175 0 0
          0.07780914799662333 0.016976897843375974 0 0.014615618122898855 0 0
          -0.0011548535397144055 -0.0071098049215642615 0 0.016554560279340113 0 0
          -0.09345981272829657 0.004719056085235866 0 -0.0011613927193445618 0 0
          <InformationKey name="L2_NORM_RANGE" location="vtkDataArray" length="2">
            <Value index="0">
              1.339323514e-05
            </Value>
            <Value index="1">
              0.11742919067
            </Value>
          </InformationKey>
        </DataArray>
        <DataArray type="Float64" Name="Strain" NumberOfComponents="6" format="ascii" RangeMin="8.277440619337013e-14" RangeMax="6.182795405352412e-13">
          2.6074012560651406e-13 -5.003279999510344e-13 0 2.528953728484687e-13 0 0
          -3.8437262428595725e-13 1.3103738020879016e-13 0 3.4049487089138166e-14 0 0
          -2.0915195867040024e-13 6.007059125813363e-14 0 1.2295101122788081e-14 0 0
          -1.991571085694434e-13 5.739292305446079e-14 0 5.467120104837276e-14 0 0
          -1.991571085694434e-13 1.0045532956996635e-13 0 9.891279310056427e-14 0 0
          -5.446309603582932e-14 2.743206489322576e-14 0 5.5971915337523645e-14 0 0
          -2.0915195867040024e-13 9.902004632147019e-14 0 2.1287550475818686e-14 0 0
          -2.3490549741801955e-14 -2.349054974180438e-14 0 8.725061332669481e-14 0 0
          -3.3516140319311806e-13 1.1663150709691354e-13 0 7.875332252064682e-14 0 0
          -1.7160933843755685e-13 4.9799787835603205e-14 0 1.0008242752028796e-13 0 0
          -1.7160933843755685e-13 9.014961652319135e-14 0 1.792843488434291e-13 0 0
          -2.453375006439135e-13 8.560719383245215e-14 0 1.195356998441795e-13 0 0
          -6.58815771296896e-14 3.226732139469684e-14 0 1.4007122404769653e-13 0 0
          -8.062836017454861e-14 3.269173202124487e-14 0 2.2627643201835707e-13 0 0
          -1.2280658132253035e-13 3.5571222719751554e-14 0 1.3545728498411256e-13 0 0
          -6.58815771296896e-14 6.864738755933912e-14 0 1.293615864574098e-13 0 0
          -1.2039451790008226e-13 6.138440254126564e-14 0 2.530145933983739e-13 0 0
          -1.2350661913290424e-13 2.37179709626773e-14 0 1.1694637001504395e-13 0 0
          1.203025775989696e-13 1.1925999850168876e-14 0 1.3861073381980103e-13 0 0
          -5.6063764999496076e-14 5.6463616988909264e-15 0 2.8915214121452467e-13 0 0
          -5.446309603582932e-14 7.485004365193634e-14 0 6.741622614713005e-14 0 0
          1.4136138351008004e-13 -3.292823948425779e-14 0 5.338094329377633e-14 0 0
          -5.6063764999496076e-14 1.4077798129859563e-14 0 2.4878054340743493e-13 0 0
          9.64183452209155e-14 1.5772871732324253e-14 0 2.33276219430873e-14 0 0
          9.24673263797122e-15 1.8385846532481604e-14 0 2.908543155703375e-13 0 0
          4.874879716794025e-14 -9.84052814685595e-14 0 4.309355974390112e-13 0 0
          -8.062836017454861e-14 9.843774629554112e-14 0 2.0408976779971252e-13 0 0
          -1.9837379323425214e-15 1.0439241297332614e-13 0 2.1719624809555192e-13 0 0
          3.5038797142103236e-14 2.5872476779261437e-14 0 1.451834993868156e-13 0 0
          1.177117031738884e-13 3.6384639137626715e-14 0 1.3165662436344184e-13 0 0
          3.5038797142103034e-14 1.0785816081172927e-13 0 4.297187148144917e-14 0 0
          2.1689012974014393e-13 -3.318546386437342e-14 0 4.135461100808087e-14 0 0
          3.4726664729822943e-13 -1.6005626686962913e-14 0 -1.3571257799338923e-13 0 0
          1.14565668416135e-13 1.5476491805698244e-13 0 4.8980277374849483e-14 0 0
          2.6397637960605e-13 -5.5493853798801106e-15 0 2.766382932219461e-13 0 0
          1.8773037758992478e-13 -4.7408209743462683e-14 0 1.4283764304486516e-13 0 0
          -3.732911484743679e-14 9.639591125327305e-15 0 1.0654218908819215e-13 0 0
          6.526561508197549e-14 -1.545489386226226e-13 0 1.957826368631964e-13 0 0
          9.636677853749473e-14 9.583582272714852e-14 0 1.2572706729276082e-14 0 0
          7.688375879124073e-14 -2.973444362679088e-13 0 2.0088020193951398e-13 0 0
          -2.7269447410299076e-14 -3.006581212685839e-14 0 2.3105990896607856e-13 0 0
          3.4464962045159724e-13 -3.017195976693708e-14 0 1.801100260764612e-13 0 0
          4.494942805591113e-15 -3.1081935637864204e-14 0 1.9780499989908612e-13 0 0
          -3.953147064744471e-13 1.3648749959885348e-13 0 -1.2581754459566087e-14 0 0
          <InformationKey name="L2_NORM_RANGE" location="vtkDataArray" length="2">
            <Value index="0">
              8.2774406193e-14
            </Value>
            <Value index="1">
              6.1827954054e-13
            </Value>
          </InformationKey>
        </DataArray>
      </CellData>
      <Points>
        <DataArray type="Float32" Name="Points" NumberOfComponents="3" format="ascii" RangeMin="92.44066980668491" RangeMax="215.40659228538016">
          200 0 0 200 20 0
          175 0 0 170.3333282470703 25.352571487426758 0
          200 40 0 157 13.358983993530273 0
          180 45.35898208618164 0 150 0 0
          150 28.038475036621094 0 142.39999389648438 13.887187004089355 0
          200 60 0 160 45.35898208618164 0
          171.6666717529297 62.23291015625 0 125 0 0
          140 45.35898208618164 0 130 28.038475036621094 0
          200 80 0 150 62.67949295043945 0
          180 80 0 160 80 0
          120 45.35898208618164 0 110.71759033203125 23.771137237548828 0
          130 62.67949295043945 0 140 80 0
          110 62.67949295043945 0 120 80 0
          100 80 0 90 62.67949295043945 0
          100 45.35898208618164 0 89.30555725097656 23.870376586914062 0
          100 0 0 80 80 0
          <InformationKey name="L2_NORM_RANGE" location="vtkDataArray" length="2">
            <Value index="0">
              92.440669807
            </Value>
            <Value index="1">
              215.40659229
            </Value>
          </InformationKey>
        </DataArray>
      </Points>
      <Cells>
        <DataArray type="Int64" Name="connectivity" format="ascii" RangeMin="0" RangeMax="31">
          0 1 2 25 26 24
          24 26 27 25 24 22
          22 24 20 20 24 28
          28 24 27 16 18 10
          25 22 23 23 22 17
          17 22 14 23 17 19
          14 22 20 17 14 11
          19 17 12 14 20 15
          17 11 12 19 12 18
          15 20 21 12 11 6
          21 20 28 15 21 13
          6 11 3 21 28 29
          3 11 8 6 3 1
          8 11 14 3 8 5
          8 14 15 5 8 9
          8 15 9 9 15 13
          9 13 7 9 7 5
          5 7 2 5 2 3
          18 12 10 4 10 6
          21 29 30 1 4 6
          12 6 10 30 13 21
          3 2 1 27 26 31
        </DataArray>
        <DataArray type="Int64" Name="offsets" format="ascii" RangeMin="3" RangeMax="132">
          3 6 9 12 15 18
          21 24 27 30 33 36
          39 42 45 48 51 54
          57 60 63 66 69 72
          75 78 81 84 87 90
          93 96 99 102 105 108
          111 114 117 120 123 126
          129 132
        </DataArray>
        <DataArray type="UInt8" Name="types" format="ascii" RangeMin="5" RangeMax="5">
          5 5 5 5 5 5
          5 5 5 5 5 5
          5 5 5 5 5 5
          5 5 5 5 5 5
          5 5 5 5 5 5
          5 5 5 5 5 5
          5 5 5 5 5 5
          5 5
        </DataArray>
      </Cells>
    </Piece>
  </UnstructuredGrid>
</VTKFile>
