<?xml version="1.0"?>
<VTKFile type="UnstructuredGrid" version="0.1" byte_order="LittleEndian" header_type="UInt32" compressor="vtkZLibDataCompressor">
  <UnstructuredGrid>
    <Piece NumberOfPoints="33" NumberOfCells="46">
      <PointData>
        <DataArray type="Float64" Name="proc" format="ascii" RangeMin="0" RangeMax="1">
          1 1 1 1 1 1
          1 1 1 1 1 1
          1 1 1 1 1 1
          1 1 1 1 1 1
          1 1 1 1 0 0
          0 0 0
        </DataArray>
        <DataArray type="Float64" Name="Displacement" NumberOfComponents="3" format="ascii" RangeMin="0" RangeMax="8.060761352936058e-11">
          3.4204131955219624e-11 -7.29908536468007e-11 0 3.293572325568452e-11 -7.036824781812668e-11 0
          3.2379928539187555e-11 -7.119323084690577e-11 0 2.5373566687218873e-11 -6.71057185456618e-11 0
          3.4695334762523454e-11 -6.905767302749882e-11 0 3.404803971923319e-11 -6.878261457066894e-11 0
          3.04441187203868e-11 -6.691269432845842e-11 0 2.3927064184006088e-11 -6.375642843072678e-11 0
          4.0022447433585315e-11 -6.577456322900127e-11 0 3.8895573498364014e-11 -6.459096406975718e-11 0
          3.55695730251438e-11 -6.181561407364825e-11 0 1.5771882538748195e-11 -6.283206744461644e-11 0
          3.0430290492942826e-11 -5.762845873549628e-11 0 2.2441774596477605e-11 -5.38557503797451e-11 0
          4.725833913856051e-11 -5.889922275339135e-11 0 4.2709220686202814e-11 -5.512965328072596e-11 0
          3.787432824808574e-11 -4.895946478505911e-11 0 7.741005959129254e-12 -3.705272229534862e-11 0
          3.039986047293616e-11 -3.841956215595531e-11 0 5.269685259448812e-11 -4.803861951098792e-11 0
          4.550401313629879e-11 -4.2362162569916977e-11 0 3.972943513989271e-11 -3.337320153283465e-11 0
          5.5596467350997456e-11 -3.5428594055341327e-11 0 0 0 0
          2.335376952438486e-11 -1.1472087102864069e-11 0 3.584881683615889e-11 -1.858576832813683e-11 0
          4.5443931094945304e-11 -2.212192272493266e-11 0 5.6148440989009865e-11 -2.2673896362945043e-11 0
          3.051229558911545e-11 -6.824866758000776e-11 0 3.211615330409637e-11 -6.7612717141295e-11 0
          3.184646133496793e-11 -6.707936194625452e-11 0 3.444663703359284e-11 -7.022165209851922e-11 0
          4.2820372466509556e-11 -6.485837620661091e-11 0
          <InformationKey name="L2_NORM_RANGE" location="vtkDataArray" length="2">
            <Value index="0">
              0
            </Value>
            <Value index="1">
              8.0607613529e-11
            </Value>
          </InformationKey>
        </DataArray>
        <DataArray type="Float64" Name="TopologicalDerivative1" format="ascii" RangeMin="-0.066620893134996" RangeMax="0.5057958565670165">
          0.055122921578820275 -0.06007846800647101 -0.021999868957013655 0.06122998503236095 0.00018682195660572887 -0.054517176652080904
          -0.036788195328613715 0.056021539239763815 0.07776590860051617 -0.000029489381564995476 -0.03875963228255996 0.17395357854546978
          -0.01996547062851231 0.04670622171515061 0.04486595561624465 -0.009759593886456877 -0.01383729103820456 0.14676674726363226
          0.019949819847927264 -0.00984723221373314 -0.03499797002638902 -0.009813831686012409 -0.057013738975895026 0.5057958565670165
          0.1939232426516851 0.08253437596376985 -0.03914679451722501 -0.066620893134996 -0.005128109317244875 0.07828781331444189
          -0.05377200098490313 -0.02264972524075594 0.03185835702416849
        </DataArray>
      </PointData>
      <CellData>
        <DataArray type="UInt8" Name="vtkGhostType" format="ascii" RangeMin="0" RangeMax="1">
          1 1 1 0 0 1
          1 1 1 0 0 0
          1 0 0 0 0 0
          0 0 0 0 0 0
          0 0 0 0 0 0
          0 0 0 0 0 0
          0 0 0 0 0 0
          0 0 0 0
        </DataArray>
        <DataArray type="Float64" Name="Stress" NumberOfComponents="6" format="ascii" RangeMin="0.000012953947534091416" RangeMax="0.13502604727732648">
          -0.04742112716414511 -0.0006636887103493166 0 0.0010676806868231603 0 0
          -0.000012193444369545916 0.000002925662263510407 0 0.000005166638338848336 0 0
          -0.00005247821392986129 0.00001060831331303902 0 0.0000021789091988786884 0 0
          -0.00001243288436210426 0.000003520279712555708 0 -9.14206705239633e-7 0 0
          -0.000008508465559578899 0.000016131106676683778 0 -0.0000023758310698902923 0 0
          -0.000008441692204021566 0.00001543150281525825 0 0.0000062230362597350805 0 0
          0.000026676977601919853 0.000011788582496333779 0 0.0000021533189485926744 0 0
          0.016732684756295534 0.016682979318802624 0 0.0005884970804267715 0 0
          0.07780914799662333 0.016976897843375974 0 0.014615618122898855 0 0
          0.08393397392420163 0.01848724779856927 0 -0.013108346665394063 0 0
          -0.0021322371339005212 -0.08600384584344326 0 -0.03344529043319036 0 0
          0.004876792277039312 -0.013925091167639299 0 -0.022774437927392838 0 0
          -0.09345981272829657 0.004719056085235866 0 -0.0011613927193445618 0 0
          -0.0505898210215358 -0.0006318608689661297 0 -0.0034175069075174378 0 0
          -0.08512163042730458 0.005696828114593506 0 -0.006445357719507887 0 0
          -0.00018328925684971923 0.00005210432694704094 0 -0.00002357526444432078 0 0
          -0.000016829312478389536 0.000004763623975126127 0 -0.0000103754229360868 0 0
          -0.000041357927867059794 0.000014686127956685898 0 -0.000015779843215118313 0 0
          -0.03768245195894757 -0.00037163400794817416 0 -0.007603367434766582 0 0
          -0.00002321477024713748 0.0000029768706011578825 0 -0.000022397316352992894 0 0
          0.00003545982441302416 0.000014917346695905786 0 -0.000007785310576229533 0 0
          -0.0432135712317671 0.0025421752661474277 0 -0.007674948787510559 0 0
          -0.00003134102952882032 0.000007321599574438072 0 -0.000023761876525090155 0 0
          -0.00001269326759828958 0.000018550440242125958 0 -0.000008894276739711445 0 0
          -0.00003362347986717066 -2.865682200630483e-7 0 -0.00001314618902996677 0 0
          0.000006668029697254105 0.000012097395894167429 0 -0.000012333305754966017 0 0
          -0.0000353654063104043 -0.0000019000974409740776 0 -0.00001214010699041784 0 0
          -0.000014564392569487424 0.000031428233878196416 0 -0.000019868244745376787 0 0
          0.00797357360328009 0.02029884758891713 0 -0.00014473476410332094 0 0
          -0.000011738845315968594 -0.000001059917392705912 0 -0.00001111172576777157 0 0
          -0.0013313718109089119 0.0014586931052096796 0 -0.010108054298831416 0 0
          0.03056158326978526 0.02310981432081928 0 -0.013163719419211153 0 0
          0.0027926788990261095 0.03123109119865499 0 -0.020323341744662993 0 0
          0.049147587709803986 0.07675639384134049 0 -0.006620591344549816 0 0
          0.0849140547633628 0.026058798663403285 0 -0.031739518265496314 0 0
          0.10290500662164202 0.03576279598774506 0 0.02199415094840759 0 0
          0.04805663536840386 -0.0006590075906156602 0 -0.013498782626174233 0 0
          0.053488510387354395 0.009853596323507893 0 0.0012871589093551663 0 0
          0.0013107381811178435 -0.009803741697863586 0 -0.03203245805203242 0 0
          -0.005592393782998558 -0.0029976629428755475 0 -0.010926608937351643 0 0
          -0.006371680020563741 -0.02765173212172683 0 -0.016235692316977367 0 0
          -0.000012191863525761231 -0.000012796943295349086 0 -0.000023925044386299065 0 0
          -0.00001194664505575571 9.36020625173174e-7 0 -0.000029001902372742374 0 0
          -0.000009462405223069708 -0.000009462405223069521 0 -0.000009462405223069508 0 0
          0.03627927872234088 -0.12678126161766656 0 -0.029023422977972467 0 0
          0.01634594574796535 0.0011534614103875466 0 -0.000950371373470771 0 0
          <InformationKey name="L2_NORM_RANGE" location="vtkDataArray" length="2">
            <Value index="0">
              1.2953947534e-05
            </Value>
            <Value index="1">
              0.13502604728
            </Value>
          </InformationKey>
        </DataArray>
        <DataArray type="Float64" Name="Strain" NumberOfComponents="6" format="ascii" RangeMin="6.389634720318721e-14" RangeMax="7.237121190064698e-13">
          -2.0915195867040024e-13 6.007059125813363e-14 0 1.2295101122788081e-14 0 0
          -5.446309603582932e-14 2.743206489322576e-14 0 5.5971915337523645e-14 0 0
          -2.0915195867040024e-13 9.902004632147019e-14 0 2.1287550475818686e-14 0 0
          -5.5615823177433455e-14 2.989278166146841e-14 0 -9.800255238843762e-15 0 0
          -5.5615823177433455e-14 7.784852643565604e-14 0 -2.57381699238115e-14 0 0
          -5.446309603582932e-14 7.485004365193634e-14 0 6.741622614713005e-14 0 0
          9.64183452209155e-14 1.5772871732324253e-14 0 2.33276219430873e-14 0 0
          9.636677853749473e-14 9.583582272714852e-14 0 1.2572706729276082e-14 0 0
          3.4464962045159724e-13 -3.017195976693708e-14 0 1.801100260764612e-13 0 0
          3.532226107200299e-13 -3.015902091106507e-14 0 -1.5357527045486704e-13 0 0
          9.862048591305187e-14 -3.556840612636379e-13 0 -3.623239796928955e-13 0 0
          3.772633178054625e-14 -6.411720354479622e-14 0 -2.4672307754675576e-13 0 0
          -3.953147064744471e-13 1.3648749959885348e-13 0 -1.2581754459566087e-14 0 0
          -2.1001193679202825e-13 6.060765155190426e-14 0 -3.702490292439788e-14 0 0
          -3.6179458524876015e-13 1.3013885421530294e-13 0 -6.982472599600452e-14 0 0
          -2.1001193679202805e-13 1.1306227338913566e-13 0 -6.471340312093789e-14 0 0
          -7.60766652955307e-14 4.088507382767911e-14 0 -1.1240041514094035e-13 0 0
          -1.9068235939193984e-13 1.1288960965334932e-13 0 -1.7094830149711512e-13 0 0
          -1.9068235939193984e-13 5.548832149157445e-14 0 -1.0033155214566359e-13 0 0
          -1.0044929761452021e-13 4.142209031374637e-14 0 -2.426375938240897e-13 0 0
          1.2910258501771843e-13 1.783083071666057e-14 0 -8.434086457581996e-14 0 0
          -2.719256727963803e-13 9.588241516634963e-14 0 -1.2339032601619977e-13 0 0
          -1.3973962250479893e-13 6.968295180451738e-14 0 -2.5742032902181e-13 0 0
          -7.60766652955307e-14 9.31600855067201e-14 0 -9.635466468020733e-14 0 0
          -1.3973962250479893e-13 4.083531558370062e-14 0 -1.4241704782464002e-13 0 0
          1.266171220418281e-14 4.207077910413e-14 0 -1.336108123454652e-13 0 0
          -1.4498073782546697e-13 3.628968521728005e-14 0 -1.3151782572952664e-13 0 0
          -9.997026138727646e-14 1.4915646520434435e-13 0 -2.1523931807491521e-13 0 0
          1.7617026142466144e-14 1.6745097722365517e-13 0 -3.5189776048266185e-15 0 0
          -4.758695874232008e-14 1.0257234175352777e-14 0 -1.2037702915085864e-13 0 0
          -2.4916550673635898e-14 2.6171898704807583e-14 0 -3.701740539276092e-13 0 0
          1.0685160907394876e-13 6.304444969431824e-14 0 -1.5477268782096091e-13 0 0
          -3.222477401399886e-14 1.489233958656607e-13 0 -2.5891291849177053e-13 0 0
          1.0883612315584102e-13 2.5838382303499706e-13 0 -7.172307289928969e-14 0 0
          3.2123506318475755e-13 2.4357593099768723e-15 0 -3.4384478120954334e-13 0 0
          3.840673659388272e-13 2.03803916718852e-14 0 2.382699686077489e-13 0 0
          2.0105974018995233e-13 -6.281665917140343e-14 0 -1.4623681178355422e-13 0 0
          2.4730698837212454e-13 -3.030848602278067e-14 0 1.6378408845696868e-14 0 0
          1.8358730515869945e-14 -4.402855884031279e-14 0 -3.596062525716814e-13 0 0
          -4.933383312824095e-14 -1.38752653165589e-14 0 -2.986374524599604e-13 0 0
          1.3214711785275556e-14 -1.7680771983979148e-13 0 -2.8995659583181525e-13 0 0
          -3.480325223815209e-14 -3.8080767656753e-14 0 -2.5918798085157327e-13 0 0
          -5.0947713513781916e-14 1.8833392257916194e-14 0 -3.1418727570470915e-13 0 0
          -2.7598681900620207e-14 -2.7598681900619203e-14 0 -1.0250938991658633e-13 0 0
          3.0964023836517025e-13 -5.736043551432035e-13 0 -3.144204155947018e-13 0 0
          1.4489495367911535e-13 -3.396287034270096e-14 0 -2.23770322344407e-14 0 0
          <InformationKey name="L2_NORM_RANGE" location="vtkDataArray" length="2">
            <Value index="0">
              6.3896347203e-14
            </Value>
            <Value index="1">
              7.2371211901e-13
            </Value>
          </InformationKey>
        </DataArray>
      </CellData>
      <Points>
        <DataArray type="Float32" Name="Points" NumberOfComponents="3" format="ascii" RangeMin="0" RangeMax="128.28654354956544">
          100 0 0 100 45.35898208618164 0
          89.30555725097656 23.870376586914062 0 75 0 0
          90 62.67949295043945 0 80 45.35898208618164 0
          70 28.038475036621094 0 57 13.358983993530273 0
          80 80 0 70 62.67949295043945 0
          60 45.35898208618164 0 50 0 0
          48.827545166015625 28.876956939697266 0 41.327545166015625 13.757295608520508 0
          60 80 0 50 62.67949295043945 0
          38.48822784423828 45.76527404785156 0 25 0 0
          24.63772964477539 27.38901710510254 0 40 80 0
          30 62.67949295043945 0 17.464101791381836 47.607696533203125 0
          20 80 0 0 0 0
          0 20 0 0 40 0
          0 60 0 0 80 0
          110 62.67949295043945 0 100 80 0
          120 45.35898208618164 0 110.71759033203125 23.771137237548828 0
          125 0 0
          <InformationKey name="L2_NORM_RANGE" location="vtkDataArray" length="2">
            <Value index="0">
              0
            </Value>
            <Value index="1">
              128.28654355
            </Value>
          </InformationKey>
        </DataArray>
      </Points>
      <Cells>
        <DataArray type="Int64" Name="connectivity" format="ascii" RangeMin="0" RangeMax="32">
          28 29 4 30 28 1
          1 28 4 4 5 1
          1 5 2 31 30 1
          31 1 2 31 2 0
          0 32 31 3 0 2
          25 24 18 18 24 17
          4 29 8 4 8 9
          9 8 14 4 9 5
          5 9 10 10 9 15
          15 9 14 10 15 16
          2 5 6 15 14 19
          16 15 20 6 5 10
          15 19 20 6 10 12
          20 19 22 12 10 16
          6 12 7 20 22 26
          12 16 18 7 12 13
          13 12 18 7 13 11
          11 13 17 7 11 3
          17 13 18 7 3 6
          25 18 21 21 18 16
          25 21 26 26 21 20
          20 21 16 27 26 22
          24 23 17 2 6 3
        </DataArray>
        <DataArray type="Int64" Name="offsets" format="ascii" RangeMin="3" RangeMax="138">
          3 6 9 12 15 18
          21 24 27 30 33 36
          39 42 45 48 51 54
          57 60 63 66 69 72
          75 78 81 84 87 90
          93 96 99 102 105 108
          111 114 117 120 123 126
          129 132 135 138
        </DataArray>
        <DataArray type="UInt8" Name="types" format="ascii" RangeMin="5" RangeMax="5">
          5 5 5 5 5 5
          5 5 5 5 5 5
          5 5 5 5 5 5
          5 5 5 5 5 5
          5 5 5 5 5 5
          5 5 5 5 5 5
          5 5 5 5 5 5
          5 5 5 5
        </DataArray>
      </Cells>
    </Piece>
  </UnstructuredGrid>
</VTKFile>
