<?xml version="1.0"?>
<VTKFile type="UnstructuredGrid" version="0.1" byte_order="LittleEndian" header_type="UInt32" compressor="vtkZLibDataCompressor">
  <UnstructuredGrid>
    <Piece NumberOfPoints="32" NumberOfCells="44">
      <PointData>
        <DataArray type="Float64" Name="proc" format="ascii" RangeMin="0" RangeMax="1">
          0 0 0 0 0 0
          0 0 0 0 0 0
          0 0 0 0 0 0
          0 0 0 0 0 0
          0 0 0 1 1 1
          1 1
        </DataArray>
        <DataArray type="Float64" Name="Displacement" NumberOfComponents="3" format="ascii" RangeMin="1.0783987032949017e-10" RangeMax="1.0753827979404951e-9">
          2.615329704186647e-10 0 0 -1.0744563034810089e-10 -9.212716851207103e-12 0
          2.5209868812373816e-10 -4.748907103315407e-10 0 -1.9674549419200415e-10 -5.509585225678903e-10 0
          -4.6430254741985133e-10 -1.1578186361225983e-11 0 2.9582934306586756e-11 -7.86725145360917e-10 0
          -5.602944158862283e-10 -3.716622457478227e-10 0 2.0555627237232948e-10 -8.913094828542662e-10 0
          -7.898032462416906e-11 -8.38341060500834e-10 0 7.269162650009845e-11 -9.621691709756544e-10 0
          -8.078944957225404e-10 -1.720039997937212e-11 0 -2.585713532001696e-10 -6.745180502274187e-10 0
          -2.6615693660802653e-10 -4.835592673089455e-10 0 1.3981038308291545e-10 -1.0662557005186589e-9 0
          -6.315950883946195e-11 -7.7896194306321e-10 0 7.593015323562896e-11 -1.0062837548513764e-9 0
          -4.837468799086914e-10 -1.3271085988629348e-10 0 1.3003230052295873e-10 -6.83314431500501e-10 0
          -3.6823642000176984e-10 -2.3760209515529573e-10 0 1.3113352283436573e-10 -6.77688947172497e-10 0
          7.178817512763658e-11 -8.26101993168578e-10 0 1.6327798991452476e-10 -1.0543593059778166e-9 0
          1.3263566967580415e-10 -6.750773063045204e-10 0 1.4141581150807024e-10 -6.7951406239248e-10 0
          1.3278848551186374e-10 -6.632032503295739e-10 0 1.4340320498031194e-10 -6.691341300705879e-10 0
          1.4555001550344496e-10 -6.558133713235063e-10 0 1.327669887280803e-10 -6.483552503397176e-10 0
          1.5660717076785323e-10 -8.008204095534092e-10 0 2.179444085043973e-10 -9.76041449098866e-10 0
          1.0361290233894297e-10 -1.0306749875606988e-9 0 1.4760173045502858e-10 -6.395933459586394e-10 0
          <InformationKey name="L2_NORM_RANGE" location="vtkDataArray" length="2">
            <Value index="0">
              1.0783987033e-10
            </Value>
            <Value index="1">
              1.0753827979e-09
            </Value>
          </InformationKey>
        </DataArray>
        <DataArray type="Float64" Name="TopologicalDerivative1" format="ascii" RangeMin="-0.053570213044029744" RangeMax="0.47438862901643736">
          -0.028251372379992836 -0.0409277593962257 0.03592298138321704 -0.03450394331779587 -0.05052393080225848 0.16145889878046743
          -0.021477093836004227 0.47438862901643736 -0.041320865502814996 0.318593296622301 0.0017386358971929333 -0.011838960030370639
          0.03573168184388389 0.35997851340994386 -0.03277595490859468 0.1729150521012381 -0.013619126982941418 -0.014886876648457427
          0.02909858207241036 0.024862669343670547 -0.03704618700985319 0.15746790204544436 -0.04642197858950881 -0.05162651638576996
          -0.04744534975504219 -0.053469970143310605 -0.053468918745032755 -0.04732924874801564 -0.03861072207094663 0.1048626188433564
          0.1768963993400965 -0.053570213044029744
        </DataArray>
      </PointData>
      <CellData>
        <DataArray type="UInt8" Name="vtkGhostType" format="ascii" RangeMin="0" RangeMax="0">
          0 0 0 0 0 0
          0 0 0 0 0 0
          0 0 0 0 0 0
          0 0 0 0 0 0
          0 0 0 0 0 0
          0 0 0 0 0 0
          0 0 0 0 0 0
          0 0
        </DataArray>
        <DataArray type="Float64" Name="Stress" NumberOfComponents="6" format="ascii" RangeMin="6.460920967031105e-7" RangeMax="6.894305564138575">
          0.016552158196005844 -0.024043028600986806 0 0.013241726556805113 0 0
          -0.00002497720137969052 0.0000026150829930191033 0 8.101160878462891e-7 0 0
          1.2760782247723054e-7 -4.3451194308013117e-7 0 -4.6081516075924617e-7 0 0
          -0.0000019870684089704047 -5.109279208509868e-7 0 0.0000021738210312607163 0 0
          0.0007149931922745459 0.0023894232743575366 0 0.00026988372417320486 0 0
          -0.0004321070060802555 0.0019524031386744813 0 -0.0000176065955474035 0 0
          0.0006628381728049839 0.0022086007046652747 0 -0.0001955255068325352 0 0
          -1.4208950048238402 -1.4208950048238391 0 1.4208950048238402 0 0
          -0.00002276668812620936 0.0000036067784689702036 0 0.000004181189165608742 0 0
          -0.00003578366519925605 -0.000015144117883703561 0 0.000015712454629100596 0 0
          0.00042140588126042707 0.001508821036981906 0 0.0009985136153134078 0 0
          -0.02328101008046475 0.006344866021325125 0 0.008509622721702022 0 0
          -0.0011973111302678052 0.0014068702577912577 0 0.0009014435366589686 0 0
          -0.002378489503466116 -0.0001118245704587466 0 0.0020323553519541403 0 0
          -4.588959348187053 -2.431680309244067 0 1.6112668216272248 0 0
          -0.5878959440786815 1.7791237853332356 0 -0.11366060830474614 0 0
          -2.3200191090133955 -0.07535149956497333 0 1.045469427822593 0 0
          -6.306381121567652 -1.046472691780084 0 2.581840674132659 0 0
          -0.20890135507024232 2.3728675079615136 0 -0.21068559250561938 0 0
          -1.837245397071507 -0.45569379575149427 0 1.089231913214025 0 0
          -0.15540667913915296 1.6889127030178734 0 -0.22087826323772025 0 0
          -0.9657875354743599 0.13360445409326144 0 0.05279508258480638 0 0
          -0.003848590390455827 -0.0007597121274104083 0 0.0003932745479306571 0 0
          0.1061699881737249 2.293777709652522 0 -0.4538620309683358 0 0
          -0.0016594337984553197 -0.0002083160949401702 0 0.000716848485668483 0 0
          -0.000055046151556810194 0.000014076980818694596 0 0.000021396480318313026 0 0
          -0.002067060680920471 0.000926271504693406 0 0.000045651304533739454 0 0
          -1.0718303656065191 0.22038337782018208 0 0.22707283225481656 0 0
          -0.9421839035372117 1.065728416073688 0 0.3031988852821537 0 0
          -0.6699111577108069 0.32708917394743503 0 0.2830825170256395 0 0
          -1.6694889811370395 0.4943822269991611 0 0.16599921177130492 0 0
          -0.5281028717755485 0.14159051970960695 0 0.28891575337393144 0 0
          0.5928755246507852 -0.12761670842529793 0 -0.10434052713153429 0 0
          -0.768616163078278 0.1302789208058429 0 0.061098799357013525 0 0
          0.4198483356910571 -0.08986285174155342 0 0.2315610330715897 0 0
          -0.2012174584838441 -0.012490609079033516 0 -0.03236467821676947 0 0
          -4.510875717343872 0.06393855157976414 0 1.8491773979713284 0 0
          0.00010305804619098661 -0.00020446754948936536 0 0.00024130894569397926 0 0
          -0.6173316004946262 -0.028862787266583756 0 -0.0001106527943667779 0 0
          -0.0000044478364206764214 -0.000029719985046429493 0 0.000011969153887693851 0 0
          -3.099770587341652 -0.6857347436352375 0 1.5006920330456173 0 0
          0.35380231232812653 0.02102165728663563 0 0.040056334017535146 0 0
          -0.004949205843251122 0.019946688215983093 0 0.01301133372433961 0 0
          -0.00002407771046088236 0.0000018095631937373102 0 -0.0000012687660370173133 0 0
          <InformationKey name="L2_NORM_RANGE" location="vtkDataArray" length="2">
            <Value index="0">
              6.460920967e-07
            </Value>
            <Value index="1">
              6.8943055641
            </Value>
          </InformationKey>
        </DataArray>
        <DataArray type="Float64" Name="Strain" NumberOfComponents="6" format="ascii" RangeMin="5.473370931681296e-15" RangeMax="3.765836769499599e-11">
          3.7737129179706224e-13 -4.606358425603551e-13 0 5.466983749233456e-13 0 0
          -1.0734052615665106e-13 4.211768086219275e-14 0 8.7762576183348e-15 0 0
          1.074839189171958e-15 -1.969976207597085e-15 0 -4.9921642415585e-15 0 0
          -7.640791802979618e-15 3.5496917433389416e-16 0 2.354972783865776e-14 0 0
          -7.640791802979618e-15 9.062188819479886e-12 0 2.9237403452097187e-12 0 0
          -4.2409497820108326e-12 8.675146835410658e-12 0 -1.9073811843020455e-13 0 0
          1.074839189171958e-15 8.373955220099081e-12 0 -2.118192990685798e-12 0 0
          -5.7755229953460764e-12 -5.775522995346069e-12 0 2.1451942554142562e-11 0 0
          -9.936967361208506e-14 4.348660377847086e-14 0 4.5296215960761364e-14 0 0
          -1.3016845764227074e-13 -1.8370909683028117e-14 0 1.7021825848192318e-13 0 0
          -1.3016845764227074e-13 5.759996969182409e-12 0 1.0817230832561918e-11 0 0
          -5.141144336852246e-13 2.7210095054962493e-13 0 4.516589669685653e-13 0 0
          -6.747384198354925e-12 7.35859832029833e-12 0 9.765638313805494e-12 0 0
          -9.770592218035382e-12 2.5071761690878676e-12 0 2.2017182979503183e-11 0 0
          -1.8069320690904394e-11 -4.9392975521023195e-12 0 1.9613569008778253e-11 0 0
          -6.747384198354928e-12 1.1763614943365544e-11 0 -1.7777388136087166e-12 0 0
          -1.803786823593452e-11 4.872992389889784e-12 0 2.1341782853354877e-11 0 0
          -2.496849714180678e-11 3.5226735195425475e-12 0 2.7969940636437144e-11 0 0
          -3.969775429966994e-12 1.0500588310096043e-11 0 -2.361711927044426e-12 0 0
          -1.5086153134302937e-11 8.470400924919058e-13 0 2.512384267869343e-11 0 0
          -4.240949782010832e-12 1.1116949747015757e-11 0 -3.678566963801479e-12 0 0
          -4.191120298759744e-12 1.7639196447315395e-12 0 5.71946728002069e-13 0 0
          -1.5086153134302937e-11 1.645270790526416e-12 0 4.260474269248786e-12 0 0
          -2.5603931303218025e-12 9.951523355077226e-12 0 -5.191683839487164e-12 0 0
          -6.653912374888618e-12 1.206308519151774e-12 0 7.765858594741899e-12 0 0
          -2.4695519084341076e-13 1.2746177619057358e-13 0 2.317952034483911e-13 0 0
          -9.770592218035386e-12 6.443290454039778e-12 0 4.945557991155107e-13 0 0
          -7.223653389393486e-12 3.4401760599182636e-12 0 3.747779294339155e-12 0 0
          -7.745523892989903e-12 8.276342969438033e-12 0 4.838669622554626e-12 0 0
          -3.2767392412279027e-12 2.2529137728020176e-12 0 3.1401154920108566e-12 0 0
          -7.745523892989901e-12 4.240595177852198e-12 0 1.8390062314943074e-12 0 0
          -2.377416782035128e-12 1.2500890885094647e-12 0 3.129920661550923e-12 0 0
          2.6298355715765607e-12 -1.2728306909188897e-12 0 -1.1303557105916216e-12 0 0
          -3.3654159971667955e-12 1.5035990405388594e-12 0 6.619036597009799e-13 0 0
          1.861696630056346e-12 -8.992389685369605e-13 0 2.5085778582755553e-12 0 0
          -9.003851506611085e-13 2.1828907868985772e-13 0 -3.836818298670092e-13 0 0
          -1.8875238678407502e-11 5.90500527826219e-12 0 2.003275514468939e-11 0 0
          1.9633421140748327e-13 -2.811106809073068e-13 0 7.492821749459235e-13 0 0
          -2.536136517977713e-12 6.514028870075172e-13 0 -1.198738605640094e-15 0 0
          1.861732955521845e-14 -1.1827347550094404e-13 0 1.296658337833501e-13 0 0
          -1.846506499044096e-11 1.558059723182137e-12 0 2.489486128613371e-11 0 0
          1.4478992297588996e-12 -3.5466265171584314e-13 0 4.339436185232975e-13 0 0
          -1.9045553267152079e-13 3.733338477985251e-13 0 5.893061532219653e-13 0 0
          -1.0258574757918146e-13 3.7636984716675076e-14 0 -1.3744965401020895e-14 0 0
          <InformationKey name="L2_NORM_RANGE" location="vtkDataArray" length="2">
            <Value index="0">
              5.4733709317e-15
            </Value>
            <Value index="1">
              3.7658367695e-11
            </Value>
          </InformationKey>
        </DataArray>
      </CellData>
      <Points>
        <DataArray type="Float32" Name="Points" NumberOfComponents="3" format="ascii" RangeMin="92.44066980668491" RangeMax="215.40659228538016">
          200 0 0 200 20 0
          175 0 0 170.3333282470703 25.352571487426758 0
          200 40 0 157 13.358983993530273 0
          180 45.35898208618164 0 150 0 0
          150 28.038475036621094 0 142.39999389648438 13.887187004089355 0
          200 60 0 160 45.35898208618164 0
          171.6666717529297 62.23291015625 0 125 0 0
          140 45.35898208618164 0 130 28.038475036621094 0
          200 80 0 150 62.67949295043945 0
          180 80 0 160 80 0
          120 45.35898208618164 0 110.71759033203125 23.771137237548828 0
          130 62.67949295043945 0 140 80 0
          110 62.67949295043945 0 120 80 0
          100 80 0 90 62.67949295043945 0
          100 45.35898208618164 0 89.30555725097656 23.870376586914062 0
          100 0 0 80 80 0
          <InformationKey name="L2_NORM_RANGE" location="vtkDataArray" length="2">
            <Value index="0">
              92.440669807
            </Value>
            <Value index="1">
              215.40659229
            </Value>
          </InformationKey>
        </DataArray>
      </Points>
      <Cells>
        <DataArray type="Int64" Name="connectivity" format="ascii" RangeMin="0" RangeMax="31">
          0 1 2 25 26 24
          24 26 27 25 24 22
          22 24 20 20 24 28
          28 24 27 16 18 10
          25 22 23 23 22 17
          17 22 14 23 17 19
          14 22 20 17 14 11
          19 17 12 14 20 15
          17 11 12 19 12 18
          15 20 21 12 11 6
          21 20 28 15 21 13
          6 11 3 21 28 29
          3 11 8 6 3 1
          8 11 14 3 8 5
          8 14 15 5 8 9
          8 15 9 9 15 13
          9 13 7 9 7 5
          5 7 2 5 2 3
          18 12 10 4 10 6
          21 29 30 1 4 6
          12 6 10 30 13 21
          3 2 1 27 26 31
        </DataArray>
        <DataArray type="Int64" Name="offsets" format="ascii" RangeMin="3" RangeMax="132">
          3 6 9 12 15 18
          21 24 27 30 33 36
          39 42 45 48 51 54
          57 60 63 66 69 72
          75 78 81 84 87 90
          93 96 99 102 105 108
          111 114 117 120 123 126
          129 132
        </DataArray>
        <DataArray type="UInt8" Name="types" format="ascii" RangeMin="5" RangeMax="5">
          5 5 5 5 5 5
          5 5 5 5 5 5
          5 5 5 5 5 5
          5 5 5 5 5 5
          5 5 5 5 5 5
          5 5 5 5 5 5
          5 5 5 5 5 5
          5 5
        </DataArray>
      </Cells>
    </Piece>
  </UnstructuredGrid>
</VTKFile>
