<?xml version="1.0"?>
<VTKFile type="UnstructuredGrid" version="0.1" byte_order="LittleEndian" header_type="UInt32" compressor="vtkZLibDataCompressor">
  <UnstructuredGrid>
    <Piece NumberOfPoints="9" NumberOfCells="8">
      <PointData>
        <DataArray type="Float64" Name="sld_BC" NumberOfComponents="3" format="ascii" RangeMin="0" RangeMax="0.0001">
          0 -0.0001 0 0 -0.0001 0
          0 0 0 0 0 0
          0 0 0 0 -0.0001 0
          0 0 0 0 0 0
          0 0 0
          <InformationKey name="L2_NORM_RANGE" location="vtkDataArray" length="2">
            <Value index="0">
              0
            </Value>
            <Value index="1">
              0.0001
            </Value>
          </InformationKey>
        </DataArray>
        <DataArray type="Float64" Name="sld_FIXNO" NumberOfComponents="3" format="ascii" RangeMin="0" RangeMax="1.4142135623730951">
          0 0 0 0 0 0
          -1 -1 0 -1 -1 0
          1 1 0 0 0 0
          1 1 0 -1 -1 0
          1 1 0
          <InformationKey name="L2_NORM_RANGE" location="vtkDataArray" length="2">
            <Value index="0">
              0
            </Value>
            <Value index="1">
              1.4142135624
            </Value>
          </InformationKey>
        </DataArray>
        <DataArray type="Float64" Name="Disp" NumberOfComponents="3" format="ascii" RangeMin="0" RangeMax="0.0000798246440732097">
          -0.000007342366398006955 -0.00007479091635840308 0 1.0587911840678754e-22 -0.0000798246440732097 0
          -0.0000029584897972774616 -0.00001136941709390976 0 5.1285197978287716e-23 -0.000012986073797233221 0
          0 0 0 0.000007342366398006955 -0.00007479091635840307 0
          0 0 0 0.000002958489797277463 -0.000011369417093909762 0
          0 0 0
          <InformationKey name="L2_NORM_RANGE" location="vtkDataArray" length="2">
            <Value index="0">
              0
            </Value>
            <Value index="1">
              7.9824644073e-05
            </Value>
          </InformationKey>
        </DataArray>
      </PointData>
      <CellData>
        <DataArray type="UInt8" Name="vtkGhostType" format="ascii" RangeMin="0" RangeMax="0">
          0 0 0 0 0 0
          0 0
        </DataArray>
        <DataArray type="Float64" Name="Gauss Stress" NumberOfComponents="6" format="ascii" RangeMin="6468818.803835765" RangeMax="37920558.90944514">
          -2623711.637056098 -6121993.819797563 0 -455152.27650422486 0 0
          -2623711.637056099 -6121993.819797564 0 455152.276504225 0 0
          -10682148.692879325 -32455645.81980247 0 1448862.202390173 0 0
          -10682148.692879329 -32455645.819802485 0 -1448862.2023901711 0 0
          -1403753.2931351871 -6309772.860676936 0 -248716.4158959171 0 0
          -1403753.2931351864 -6309772.860676935 0 248716.4158959168 0 0
          -13831252.480537476 -35307270.96461561 0 248716.4158959168 0 0
          -13831252.480537476 -35307270.96461561 0 -248716.4158959171 0 0
          <InformationKey name="L2_NORM_RANGE" location="vtkDataArray" length="2">
            <Value index="0">
              6468818.8038
            </Value>
            <Value index="1">
              37920558.909
            </Value>
          </InformationKey>
        </DataArray>
        <DataArray type="Float64" Name="Gauss Strain" NumberOfComponents="6" format="ascii" RangeMin="0.00002349606834650276" RangeMax="0.00013384708763829924">
          0 -0.00002273883418781952 0 -0.0000059169795945549215 0 0
          0 -0.000022738834187819523 0 0.000005916979594554924 0 0
          0.00001468473279601391 -0.0001268429985289866 0 0.000018835208631072245 0 0
          0.00001468473279601391 -0.00012684299852898663 0 -0.00001883520863107222 0 0
          0.0000059169795945549215 -0.00002597214759446644 0 -0.000003233313406646922 0 0
          0.000005916979594554924 -0.00002597214759446644 0 0.0000032333134066469178 0 0
          0.000005916979594554924 -0.00013367714055195293 0 0.0000032333134066469178 0 0
          0.0000059169795945549215 -0.00013367714055195293 0 -0.000003233313406646922 0 0
          <InformationKey name="L2_NORM_RANGE" location="vtkDataArray" length="2">
            <Value index="0">
              2.3496068347e-05
            </Value>
            <Value index="1">
              0.00013384708764
            </Value>
          </InformationKey>
        </DataArray>
      </CellData>
      <Points>
        <DataArray type="Float32" Name="Points" NumberOfComponents="3" format="ascii" RangeMin="0" RangeMax="1.4142135623730951">
          0 1 0 0.5 1 0
          0 0.5 0 0.5 0.5 0
          0 0 0 1 1 0
          0.5 0 0 1 0.5 0
          1 0 0
          <InformationKey name="L2_NORM_RANGE" location="vtkDataArray" length="2">
            <Value index="0">
              0
            </Value>
            <Value index="1">
              1.4142135624
            </Value>
          </InformationKey>
        </DataArray>
      </Points>
      <Cells>
        <DataArray type="Int64" Name="connectivity" format="ascii" RangeMin="0" RangeMax="8">
          4 6 2 8 7 6
          5 1 7 0 2 1
          2 6 3 3 6 7
          3 7 1 3 1 2
        </DataArray>
        <DataArray type="Int64" Name="offsets" format="ascii" RangeMin="3" RangeMax="24">
          3 6 9 12 15 18
          21 24
        </DataArray>
        <DataArray type="UInt8" Name="types" format="ascii" RangeMin="5" RangeMax="5">
          5 5 5 5 5 5
          5 5
        </DataArray>
      </Cells>
    </Piece>
  </UnstructuredGrid>
</VTKFile>
