<?xml version="1.0"?>
<VTKFile type="UnstructuredGrid" version="0.1" byte_order="LittleEndian" header_type="UInt32" compressor="vtkZLibDataCompressor">
  <UnstructuredGrid>
    <Piece NumberOfPoints="126" NumberOfCells="100">
      <PointData>
        <DataArray type="Float64" Name="Velocity" NumberOfComponents="3" format="ascii" RangeMin="0" RangeMax="0.4560763146224146">
          0 0 0 0 0 0
          0 0 0 0 0 0
          -0.08217801114920141 0.022401866846296067 0 -0.08788533976823665 -0.06264160328258624 0
          0 0 0 -0.13592017557166375 0.2834641100273073 0
          0 0 0 0 0 0
          -0.025766860677578236 0.2849016885884055 0 -0.024086719222353226 0.032701985829779484 0
          -0.08035412389097049 -0.19722002813920853 0 0.009522910253629426 0.11900579420394392 0
          0 0 0 0 0 0
          0.03261241925464431 -0.42521079195760314 0 0 0 0
          -0.03018073053463478 0.2523163832184988 0 -0.008251876571491014 0.05058755959405343 0
          0 0 0 -0.006711005248006098 -0.06068352341771095 0
          0.03392033572265443 -0.37591178676176484 0 0 0 0
          0 0 0 -0.017072668342920535 0.29202687486329226 0
          0.017274019201535686 -0.026300698055958256 0 0.027630081542430997 -0.009565047567390766 0
          0.033293700516442794 -0.38145870071208926 0 0 0 0
          0 0 0 -0.020306559041658345 0.2742666796777203 0
          0.002515655872313595 -0.024064352728894595 0 0.013519870308078923 -0.01634348440665301 0
          0.03333070379247328 -0.3728834051874926 0 0 0 0
          0 0 0 -0.020279098762266152 0.28282542367288926 0
          0.005134278253093729 -0.020714753002329465 0 0.014944067636028832 -0.024681806389018554 0
          0.032505407611131076 -0.37153131085880164 0 0 0 0
          0 0 0 -0.019859353396319872 0.28426071847744394 0
          0.004608535915301413 -0.02008857033515281 0 0.014102752858466183 -0.032284029966185845 0
          0.032428314745477575 -0.3718956982756516 0 0 0 0
          0 0 0 -0.020051241554909137 0.2865307822634927 0
          0.0047718629033298 -0.018066137205334697 0 0.01409582855969875 -0.037908770224486306 0
          0.0323774808431815 -0.37312042288644176 0 0 0 0
          0 0 0 -0.019802312100574867 0.28834641652638643 0
          0.005134524560170856 -0.017126188196659675 0 0.01413401201632209 -0.040982974879528594 0
          0.032405052305069654 -0.37464813903428196 0 0 0 0
          0 0 0 -0.019776196133396116 0.28897327874178835 0
          0.0054098222707880395 -0.01642566718865548 0 0.014217785429403771 -0.04191871160844818 0
          0.03250966256732543 -0.37639917436842113 0 0 0 0
          0 0 0 -0.019689067287163377 0.28900575775551557 0
          0.0057107497022595415 -0.01634326605425527 0 0.014163111490787264 -0.04097767963839991 0
          0.03237210670555302 -0.37819078067795664 0 0 0 0
          0 0 0 -0.019648824742334016 0.2880026865216049 0
          0.006060914015364101 -0.016874759038784232 0 0.014567118947197822 -0.03870220711577411 0
          0.033016431404322616 -0.38076480807005003 0 0 0 0
          0 0 0 -0.01967036004758304 0.2861758972733669 0
          0.006117046831092723 -0.01790383343627147 0 0.01390550616744431 -0.03474722725023578 0
          0.03146580391054357 -0.3820452487863351 0 0 0 0
          0 0 0 -0.019913145373444206 0.28363528615195144 0
          0.00641675960092085 -0.020410154282945316 0 0.015093779805971859 -0.031522768855505215 0
          0.03469268709456226 -0.3908444898529042 0 0 0 0
          0 0 0 -0.020957135576654712 0.28217993039669964 0
          0.004125463703981937 -0.02810402936600189 0 0.01425027610579558 -0.033717039191771436 0
          0.027339689966856345 -0.38710152441563495 0 0 0 0
          0 0 0 -0.019772169928030887 0.28218419214916074 0
          0.00448495854077313 -0.043549488263784186 0 0.003386760233384722 -0.07001541523533555 0
          0.03149511135021768 -0.4549875412806389 0 0 0 0
          0 0 0 -0.019082836042373107 0.2834417926959144 0
          0.02374808581007632 -0.05202792067574378 0 0.05202542866374965 -0.0777087406441083 0
          0.04670248506113295 -0.35665722791547283 0 0 0 0
          0 0 0 -0.025829737907905 0.3105442596312315 0
          0.025718747557181586 -0.08753071010287442 0 0.027329967533342724 -0.08049736902385125 0
          0.033373410591147804 -0.35430711021215033 0 0 0 0
          0 0 0 0.09587012458285463 0.1853300259863458 0
          0.1430217840037406 -0.13228922294079568 0 0.11608611816535629 -0.02550315320952435 0
          0.08705675056346751 -0.05614743535763662 0 0 0 0
          0 0 0 0 0 0
          0 0 0 0 0 0
          0 0 0 0 0 0
          <InformationKey name="L2_NORM_RANGE" location="vtkDataArray" length="2">
            <Value index="0">
              0
            </Value>
            <Value index="1">
              0.45607631462
            </Value>
          </InformationKey>
        </DataArray>
        <DataArray type="Float64" Name="Pressure" format="ascii" RangeMin="-22.24569925206133" RangeMax="22.48982611589352">
          21.96612427472772 22.02615231637482 22.08961006375364 19.822762391164304 19.8275062537287 19.834085909100054
          22.153554715439668 19.850854734769086 17.57867246444897 22.330433045233193 17.58159436732693 17.584561331924746
          19.863880916038582 17.572013652650057 22.48982611589352 19.852618831620234 17.548956436904177 15.356359869013374
          15.347899686081178 15.34366558178833 17.556301723362267 15.337016887032306 15.332199277881102 15.336389616123924
          13.165442529284078 13.165990974589207 13.157781927581993 13.142828018434372 13.128120020302234 13.132952563023295
          10.995202317545704 10.992024306451711 10.982413527096185 10.966382578809132 10.951819688743143 10.956900281306801
          8.837980154048552 8.835106434861643 8.825588375651947 8.809897409210592 8.795772998507445 8.801256327735004
          6.698026823824975 6.694955563171504 6.684805872537979 6.668669063823145 6.654367253192532 6.659999690349338
          4.566190188936872 4.563040451794322 4.5526916882196815 4.536275957946273 4.521689076872178 4.527379986083417
          2.4373730776231355 2.4342128723642986 2.4235349674109727 2.4067738850971807 2.391931493852084 2.397594622163396
          0.3051321532461202 0.30201237961091465 0.2911922760679744 0.2742336759828845 0.25914541402669045 0.2646295220474144
          -1.836016038200512 -1.83902163290702 -1.8498617872946141 -1.8668627237507138 -1.881932081826207 -1.8765897153500788
          -3.9910777890174813 -3.9938939511373377 -4.004576628735933 -4.0214672594118355 -4.03678268758452 -4.031890117647819
          -6.164312443098709 -6.166844937909389 -6.177191310276029 -6.193661858202034 -6.208184132862101 -6.203526061137609
          -8.359195577907244 -8.361348038805659 -8.371073966764726 -8.38723205010848 -8.402970907063889 -8.398949199756174
          -10.578506414227988 -10.580220577797064 -10.589302590425703 -10.604022724297451 -10.616009633403237 -10.613184249855792
          -12.821704614617758 -12.824870181058017 -12.834969342438384 -12.85298935855019 -12.87342908865763 -12.873207508149434
          -15.087300551303045 -15.084933517486647 -15.099153175157625 -15.122015911270054 -15.141786907675197 -15.13288506176822
          -17.365919388601753 -17.37213500583647 -17.369942764473763 -17.37711880932423 -17.39605695542315 -17.40753260218264
          -19.631794800563426 -19.627565133711826 -19.647304369996192 -19.680178719447866 -19.707738066038416 -19.711428451117968
          -21.70206357543458 -21.772242294785713 -21.897451038141185 -21.99052810764445 -22.106450941970365 -22.24569925206133
        </DataArray>
        <DataArray type="Float64" Name="Temperature" format="ascii" RangeMin="300.00000010621187" RangeMax="600.0000002131427">
          600.0000002130787 484.17405766288806 446.88917816506404 600.000000213035 475.84834521084696 453.1835322701248
          455.6098727801001 449.8652669081244 600.0000002130262 412.753296027328 478.4571220743953 459.05896205321113
          424.0268661677464 450.346222862383 300.0000001065605 300.0000001063952 430.4189472261575 600.0000002129618
          477.50367175829484 454.7113751065264 300.0000001063073 447.858504995272 430.92577087995323 300.0000001064064
          600.0000002129492 482.88790308269165 452.5487703907442 448.7475396117015 431.39707159658394 300.00000010643066
          600.0000002129993 478.6319907141953 453.7897338770308 448.68513572477923 431.7482477942823 300.00000010647665
          600.0000002128405 482.4688090065326 453.9344637355066 448.7721681829369 432.2432187223607 300.0000001063338
          600.0000002129169 481.45321460943524 454.4088439298315 448.7288833126855 432.56491803907113 300.00000010659033
          600.0000002131427 482.6741139922319 454.65851683930055 448.7115669023925 432.76641265068145 300.0000001064998
          600.0000002128251 482.59877794380316 454.8188358028096 448.67395409830556 432.8453352339007 300.00000010656686
          600.0000002131392 482.79042823183755 454.8716823556701 448.62266677085967 432.74852226005413 300.0000001064669
          600.0000002130929 482.6101478677249 454.79912055683144 448.54373046445136 432.6702243358461 300.00000010647
          600.0000002131376 482.29344708845207 454.62220930577223 448.44973739987 432.04762184240735 300.0000001064185
          600.0000002127883 481.77535160091077 454.3332665918459 448.3147600363585 432.34287638256654 300.0000001065066
          600.0000002130042 481.0783323112165 453.94935000142317 448.1652777179877 430.0989817477033 300.00000010648665
          600.0000002126576 480.23700061947824 453.33021620837894 447.92862498860103 432.7781883999002 300.00000010634494
          600.0000002126798 479.2942511999014 452.2233423602163 446.24439509506817 424.30535373076225 300.00000010621187
          600.0000002129888 478.4758152672366 451.6359479236639 446.9583165108582 432.628999829603 300.00000010649563
          600.0000002126823 478.2761305231927 449.8968257864296 445.5834039106951 427.6807748337175 300.0000001064597
          600.0000002128343 471.6700089887538 449.7361299502313 444.29529374633404 428.75330477145883 300.00000010633426
          600.0000002126417 490.61486295035905 449.388850314054 446.74087554352025 432.763962270233 300.00000010643345
        </DataArray>
        <DataArray type="Float64" Name="Density" format="ascii" RangeMin="0.6012558065265344" RangeMax="1.20251161305451">
          0.6012558065265986 0.7450904862301665 0.8072549116658744 0.6012558065266423 0.7581270118407687 0.7960427913983491
          0.791803482753306 0.8019145077002585 0.6012558065266512 0.8740172095928915 0.75399334109605 0.785854353938651
          0.850779780310804 0.8010580876001111 1.2025116130531124 1.202511613053775 0.8381449895943386 0.6012558065267157
          0.755498869182899 0.7933680655329093 1.2025116130541273 0.8055077217923602 0.8371592242149106 1.20251161305373
          0.6012558065267284 0.7470750079699079 0.7971593508752406 0.8039118929905037 0.8362446288959247 1.2025116130536329
          0.6012558065266781 0.7537178689326056 0.7949793860736213 0.8040237024151341 0.8355644426748533 1.2025116130534486
          0.6012558065268373 0.7477239508744894 0.794725919409974 0.8038677743870624 0.8346076200117181 1.202511613054021
          0.6012558065267607 0.7493012261569894 0.7938962651435113 0.8039453163363498 0.833986920805929 1.2025116130529927
          0.6012558065265344 0.7474059071870589 0.7934603019249776 0.803976341716522 0.8335986192515948 1.2025116130533557
          0.6012558065268527 0.7475225809338505 0.7931806153263221 0.8040437398891935 0.8334466255692238 1.2025116130530868
          0.601255806526538 0.7472258415836673 0.793088464368279 0.804135659574985 0.8336330813101754 1.2025116130534874
          0.6012558065265844 0.7475049698767425 0.7932149991899432 0.8042771742022262 0.8337839392526601 1.2025116130534752
          0.6012558065265395 0.7479958233351492 0.7935236701149293 0.8044457471103394 0.8349854641154848 1.2025116130536817
          0.6012558065268896 0.7488002091541455 0.7940283280382369 0.8046879474028843 0.8344152378836805 1.2025116130533284
          0.6012558065266732 0.7498851222646572 0.7946998581294212 0.8049563453041124 0.8387685145827489 1.2025116130534084
          0.6012558065270206 0.7511988530219925 0.7957852160427115 0.8053816253722442 0.8335759373130116 1.2025116130539764
          0.6012558065269984 0.7526764261013698 0.7977330010460131 0.8084213225069613 0.8502213815406762 1.20251161305451
          0.6012558065266888 0.7539638839271054 0.7987705267983872 0.8071300403587187 0.833863389153667 1.2025116130533724
          0.6012558065269958 0.754278670878768 0.8018582558644838 0.8096205578526822 0.8435111075178329 1.2025116130535165
          0.6012558065268435 0.7648429562386604 0.8021447689426145 0.8119678266275819 0.8414010575064109 1.2025116130540192
          0.6012558065270365 0.7353089180271641 0.8027646520200991 0.8075228925608585 0.8336033392235346 1.2025116130536218
        </DataArray>
        <DataArray type="Float64" Name="stream" format="ascii" RangeMin="-0.0613217299000857" RangeMax="0.05659939431863292">
          -0.007097707772605338 0 0.0006456799209295077 0.003687500422771041 -0.005480027047926764 -0.013328307213574017
          -0.0015723707527312124 -0.02533535101038156 0.010496038465524226 -0.005651511669797745 -0.0166508359534496 -0.04433983574922132
          -0.024727252764774565 -0.05823244702809862 -0.005651511669797745 -0.005328380810325729 -0.03515158413625686 0.00473113178323477
          -0.020965560800176454 -0.05146450770157902 0.0010205571245888619 -0.05343233436910796 -0.021509075386715905 0.008551330207024721
          -0.0012878912587354161 -0.028159027953852122 -0.054592616143760674 -0.05296697479211611 -0.020628081341457424 0.015188526985419303
          -0.010274597305131757 -0.03536935302205281 -0.05981666357366342 -0.05629576105974153 -0.019589835964956778 0.01888768024883324
          -0.007042967774746051 -0.03539471351442022 -0.0613217299000857 -0.05668448859581247 -0.01752019049345133 0.021848389537035995
          -0.005057856494645697 -0.03402976909041669 -0.060584180008554395 -0.055367658857978556 -0.01513976898025049 0.024550323104135886
          -0.0028243315943007937 -0.032163742559451314 -0.059258308197193445 -0.053684408170911684 -0.012688188629038716 0.027196100434633292
          -0.0005048866324729243 -0.0300750056801572 -0.05748665362388654 -0.051718132861716365 -0.010239277557999048 0.029830358301984897
          0.0019218870670187765 -0.027756806241423102 -0.05533726525873178 -0.0495392837750502 -0.007776264829874433 0.03246866443981919
          0.004302971639593936 -0.025368696451029335 -0.052958350766856295 -0.04726042083743687 -0.005386452754476087 0.03510629010298863
          0.006753020809180152 -0.02283287562576565 -0.05027474259684856 -0.04474433959872955 -0.002851881439401077 0.037771651495867475
          0.008315077467771863 -0.020858371791524135 -0.04792936484436123 -0.04264392879853054 -0.0008162120540646488 0.04039101124745203
          0.009191147791440191 -0.019493155895362366 -0.04584574292175657 -0.04047341163124663 0.0018970294129795132 0.04316824221865075
          -0.0009121724210579031 -0.026728068385468685 -0.051081539940372095 -0.043235047002395985 0.001624730796464361 0.04562959598069475
          -0.0016448327854000511 -0.02920461108698719 -0.05367793012796712 -0.04397873691596443 0.004805845136703235 0.04894480828250683
          0.008366290523803057 -0.022659252605477305 -0.04818197050798352 -0.03570095565741942 0.010187911101244226 0.05073637801451028
          0.02805848439638539 -0.010529061516561886 -0.03211351540644158 -0.012810417550359807 0.02410337888013735 0.05346073382411157
          0.05064268287478954 0.024791758582239136 0.016881721999440755 0.02962212658747256 0.04224084949478265 0.05354658902978968
          0.05354658902978968 0.04875618626429988 0.049516333914989295 0.05319296962516676 0.05659939431863292 0.05354658902978968
        </DataArray>
      </PointData>
      <CellData>
        <DataArray type="UInt8" Name="vtkGhostType" format="ascii" RangeMin="0" RangeMax="0">
          0 0 0 0 0 0
          0 0 0 0 0 0
          0 0 0 0 0 0
          0 0 0 0 0 0
          0 0 0 0 0 0
          0 0 0 0 0 0
          0 0 0 0 0 0
          0 0 0 0 0 0
          0 0 0 0 0 0
          0 0 0 0 0 0
          0 0 0 0 0 0
          0 0 0 0 0 0
          0 0 0 0 0 0
          0 0 0 0 0 0
          0 0 0 0 0 0
          0 0 0 0 0 0
          0 0 0 0
        </DataArray>
      </CellData>
      <Points>
        <DataArray type="Float32" Name="Points" NumberOfComponents="3" format="ascii" RangeMin="0.10000000149011612" RangeMax="8.0156097709407">
          -0.5 0 0 -0.30000001192092896 0 0
          -0.10000000149011612 0 0 -0.5 0.4000000059604645 0
          -0.30000001192092896 0.4000000059604645 0 -0.10000000149011612 0.4000000059604645 0
          0.10000000149011612 0 0 0.10000000149011612 0.4000000059604645 0
          -0.5 0.800000011920929 0 0.30000001192092896 0 0
          -0.30000001192092896 0.800000011920929 0 -0.10000000149011612 0.800000011920929 0
          0.30000001192092896 0.4000000059604645 0 0.10000000149011612 0.800000011920929 0
          0.5 0 0 0.5 0.4000000059604645 0
          0.30000001192092896 0.800000011920929 0 -0.5 1.2000000476837158 0
          -0.30000001192092896 1.2000000476837158 0 -0.10000000149011612 1.2000000476837158 0
          0.5 0.800000011920929 0 0.10000000149011612 1.2000000476837158 0
          0.30000001192092896 1.2000000476837158 0 0.5 1.2000000476837158 0
          -0.5 1.600000023841858 0 -0.30000001192092896 1.600000023841858 0
          -0.10000000149011612 1.600000023841858 0 0.10000000149011612 1.600000023841858 0
          0.30000001192092896 1.600000023841858 0 0.5 1.600000023841858 0
          -0.5 2 0 -0.30000001192092896 2 0
          -0.10000000149011612 2 0 0.10000000149011612 2 0
          0.30000001192092896 2 0 0.5 2 0
          -0.5 2.4000000953674316 0 -0.30000001192092896 2.4000000953674316 0
          -0.10000000149011612 2.4000000953674316 0 0.10000000149011612 2.4000000953674316 0
          0.30000001192092896 2.4000000953674316 0 0.5 2.4000000953674316 0
          -0.5 2.799999952316284 0 -0.30000001192092896 2.799999952316284 0
          -0.10000000149011612 2.799999952316284 0 0.10000000149011612 2.799999952316284 0
          0.30000001192092896 2.799999952316284 0 0.5 2.799999952316284 0
          -0.5 3.200000047683716 0 -0.30000001192092896 3.200000047683716 0
          -0.10000000149011612 3.200000047683716 0 0.10000000149011612 3.200000047683716 0
          0.30000001192092896 3.200000047683716 0 0.5 3.200000047683716 0
          -0.5 3.5999999046325684 0 -0.30000001192092896 3.5999999046325684 0
          -0.10000000149011612 3.5999999046325684 0 0.10000000149011612 3.5999999046325684 0
          0.30000001192092896 3.5999999046325684 0 0.5 3.5999999046325684 0
          -0.5 4 0 -0.30000001192092896 4 0
          -0.10000000149011612 4 0 0.10000000149011612 4 0
          0.30000001192092896 4 0 0.5 4 0
          -0.5 4.400000095367432 0 -0.30000001192092896 4.400000095367432 0
          -0.10000000149011612 4.400000095367432 0 0.10000000149011612 4.400000095367432 0
          0.30000001192092896 4.400000095367432 0 0.5 4.400000095367432 0
          -0.5 4.800000190734863 0 -0.30000001192092896 4.800000190734863 0
          -0.10000000149011612 4.800000190734863 0 0.10000000149011612 4.800000190734863 0
          0.30000001192092896 4.800000190734863 0 0.5 4.800000190734863 0
          -0.5 5.199999809265137 0 -0.30000001192092896 5.199999809265137 0
          -0.10000000149011612 5.199999809265137 0 0.10000000149011612 5.199999809265137 0
          0.30000001192092896 5.199999809265137 0 0.5 5.199999809265137 0
          -0.5 5.599999904632568 0 -0.30000001192092896 5.599999904632568 0
          -0.10000000149011612 5.599999904632568 0 0.10000000149011612 5.599999904632568 0
          0.30000001192092896 5.599999904632568 0 0.5 5.599999904632568 0
          -0.5 6 0 -0.30000001192092896 6 0
          -0.10000000149011612 6 0 0.10000000149011612 6 0
          0.30000001192092896 6 0 0.5 6 0
          -0.5 6.400000095367432 0 -0.30000001192092896 6.400000095367432 0
          -0.10000000149011612 6.400000095367432 0 0.10000000149011612 6.400000095367432 0
          0.30000001192092896 6.400000095367432 0 0.5 6.400000095367432 0
          -0.5 6.800000190734863 0 -0.30000001192092896 6.800000190734863 0
          -0.10000000149011612 6.800000190734863 0 0.10000000149011612 6.800000190734863 0
          0.30000001192092896 6.800000190734863 0 0.5 6.800000190734863 0
          -0.5 7.199999809265137 0 -0.30000001192092896 7.199999809265137 0
          -0.10000000149011612 7.199999809265137 0 0.10000000149011612 7.199999809265137 0
          0.30000001192092896 7.199999809265137 0 0.5 7.199999809265137 0
          -0.5 7.599999904632568 0 -0.30000001192092896 7.599999904632568 0
          -0.10000000149011612 7.599999904632568 0 0.10000000149011612 7.599999904632568 0
          0.30000001192092896 7.599999904632568 0 0.5 7.599999904632568 0
          -0.5 8 0 -0.30000001192092896 8 0
          -0.10000000149011612 8 0 0.10000000149011612 8 0
          0.30000001192092896 8 0 0.5 8 0
          <InformationKey name="L2_NORM_RANGE" location="vtkDataArray" length="2">
            <Value index="0">
              0.10000000149
            </Value>
            <Value index="1">
              8.0156097709
            </Value>
          </InformationKey>
        </DataArray>
      </Points>
      <Cells>
        <DataArray type="Int64" Name="connectivity" format="ascii" RangeMin="0" RangeMax="125">
          15 12 9 14 20 16
          12 15 23 22 16 20
          29 28 22 23 35 34
          28 29 41 40 34 35
          47 46 40 41 53 52
          46 47 59 58 52 53
          65 64 58 59 71 70
          64 65 77 76 70 71
          83 82 76 77 89 88
          82 83 95 94 88 89
          101 100 94 95 107 106
          100 101 113 112 106 107
          119 118 112 113 125 124
          118 119 12 7 6 9
          16 13 7 12 22 21
          13 16 28 27 21 22
          34 33 27 28 40 39
          33 34 46 45 39 40
          52 51 45 46 58 57
          51 52 64 63 57 58
          70 69 63 64 76 75
          69 70 82 81 75 76
          88 87 81 82 94 93
          87 88 100 99 93 94
          106 105 99 100 112 111
          105 106 118 117 111 112
          124 123 117 118 7 5
          2 6 13 11 5 7
          21 19 11 13 27 26
          19 21 33 32 26 27
          39 38 32 33 45 44
          38 39 51 50 44 45
          57 56 50 51 63 62
          56 57 69 68 62 63
          75 74 68 69 81 80
          74 75 87 86 80 81
          93 92 86 87 99 98
          92 93 105 104 98 99
          111 110 104 105 117 116
          110 111 123 122 116 117
          5 4 1 2 11 10
          4 5 19 18 10 11
          26 25 18 19 32 31
          25 26 38 37 31 32
          44 43 37 38 50 49
          43 44 56 55 49 50
          62 61 55 56 68 67
          61 62 74 73 67 68
          80 79 73 74 86 85
          79 80 92 91 85 86
          98 97 91 92 104 103
          97 98 110 109 103 104
          116 115 109 110 122 121
          115 116 4 3 0 1
          10 8 3 4 18 17
          8 10 25 24 17 18
          31 30 24 25 37 36
          30 31 43 42 36 37
          49 48 42 43 55 54
          48 49 61 60 54 55
          67 66 60 61 73 72
          66 67 79 78 72 73
          85 84 78 79 91 90
          84 85 97 96 90 91
          103 102 96 97 109 108
          102 103 115 114 108 109
          121 120 114 115
        </DataArray>
        <DataArray type="Int64" Name="offsets" format="ascii" RangeMin="4" RangeMax="400">
          4 8 12 16 20 24
          28 32 36 40 44 48
          52 56 60 64 68 72
          76 80 84 88 92 96
          100 104 108 112 116 120
          124 128 132 136 140 144
          148 152 156 160 164 168
          172 176 180 184 188 192
          196 200 204 208 212 216
          220 224 228 232 236 240
          244 248 252 256 260 264
          268 272 276 280 284 288
          292 296 300 304 308 312
          316 320 324 328 332 336
          340 344 348 352 356 360
          364 368 372 376 380 384
          388 392 396 400
        </DataArray>
        <DataArray type="UInt8" Name="types" format="ascii" RangeMin="9" RangeMax="9">
          9 9 9 9 9 9
          9 9 9 9 9 9
          9 9 9 9 9 9
          9 9 9 9 9 9
          9 9 9 9 9 9
          9 9 9 9 9 9
          9 9 9 9 9 9
          9 9 9 9 9 9
          9 9 9 9 9 9
          9 9 9 9 9 9
          9 9 9 9 9 9
          9 9 9 9 9 9
          9 9 9 9 9 9
          9 9 9 9 9 9
          9 9 9 9 9 9
          9 9 9 9 9 9
          9 9 9 9
        </DataArray>
      </Cells>
    </Piece>
  </UnstructuredGrid>
</VTKFile>
