<?xml version="1.0"?>
<VTKFile type="UnstructuredGrid" version="0.1" byte_order="LittleEndian" header_type="UInt32" compressor="vtkZLibDataCompressor">
  <UnstructuredGrid>
    <Piece NumberOfPoints="99" NumberOfCells="20">
      <PointData>
        <DataArray type="Float64" Name="nsi_SBC" NumberOfComponents="3" format="ascii" RangeMin="0" RangeMax="25.6">
          25.6 0 0 14.4 0 0
          6.4 0 0 1.6 0 0
          0 0 0 0 0 0
          0 0 0 0 0 0
          1.6 0 0 0 0 0
          0 0 0 6.4 0 0
          0 0 0 14.4 0 0
          0 0 0 25.6 0 0
          0 0 0 0 0 0
          0 0 0 0 0 0
          0 0 0 0 0 0
          0 0 0 0 0 0
          0 0 0 0 0 0
          0 0 0 0 0 0
          0 0 0 0 0 0
          0 0 0 0 0 0
          0 0 0 0 0 0
          0 0 0 0 0 0
          0 0 0 0 0 0
          0 0 0 0 0 0
          0 0 0 0 0 0
          0 0 0 0 0 0
          0 0 0 0 0 0
          0 0 0 0 0 0
          0 0 0 0 0 0
          0 0 0 0 0 0
          0 0 0 0 0 0
          0 0 0 0 0 0
          0 0 0 0 0 0
          0 0 0 0 0 0
          0 0 0 0 0 0
          0 0 0 0 0 0
          0 0 0 0 0 0
          0 0 0 0 0 0
          0 0 0 0 0 0
          0 0 0 0 0 0
          0 0 0 0 0 0
          0 0 0 0 0 0
          0 0 0 0 0 0
          0 0 0 0 0 0
          0 0 0 0 0 0
          0 0 0 0 0 0
          0 0 0 0 0 0
          0 0 0 0 0 0
          0 0 0 0 0 0
          25.6 0 0 0 0 0
          0 0 0 0 0 0
          0 0 0 0 0 0
          0 0 0 0 0 0
          25.6 0 0
          <InformationKey name="L2_NORM_RANGE" location="vtkDataArray" length="2">
            <Value index="0">
              0
            </Value>
            <Value index="1">
              25.6
            </Value>
          </InformationKey>
        </DataArray>
        <DataArray type="Float64" Name="nsi_SFIXNO" NumberOfComponents="3" format="ascii" RangeMin="0" RangeMax="1.7320508075688772">
          1 1 1 1 1 1
          1 1 1 1 1 1
          0 0 0 1 1 1
          -1 -1 -1 -1 -1 -1
          1 1 1 -1 -1 -1
          -1 -1 -1 1 1 1
          -1 -1 -1 1 1 1
          -1 -1 -1 1 1 1
          0 0 0 -1 -1 -1
          -1 -1 -1 -1 -1 -1
          -1 -1 -1 0 0 0
          -1 -1 -1 -1 -1 -1
          -1 -1 -1 -1 -1 -1
          0 0 0 0 0 0
          -1 -1 -1 -1 -1 -1
          -1 -1 -1 -1 -1 -1
          -1 -1 -1 -1 -1 -1
          -1 -1 -1 0 0 0
          0 0 0 -1 -1 -1
          -1 -1 -1 -1 -1 -1
          -1 -1 -1 -1 -1 -1
          -1 -1 -1 -1 -1 -1
          0 0 0 0 0 0
          -1 -1 -1 -1 -1 -1
          -1 -1 -1 -1 -1 -1
          -1 -1 -1 -1 -1 -1
          -1 -1 -1 0 0 0
          0 0 0 -1 -1 -1
          -1 -1 -1 -1 -1 -1
          -1 -1 -1 -1 -1 -1
          -1 -1 -1 -1 -1 -1
          0 0 0 0 0 0
          -1 -1 -1 -1 -1 -1
          -1 -1 -1 -1 -1 -1
          -1 -1 -1 -1 -1 -1
          -1 -1 -1 0 0 0
          0 0 0 -1 -1 -1
          -1 -1 -1 -1 -1 -1
          -1 -1 -1 -1 -1 -1
          -1 -1 -1 -1 -1 -1
          0 0 0 0 0 0
          -1 -1 -1 -1 -1 -1
          -1 -1 -1 -1 -1 -1
          -1 -1 -1 -1 -1 -1
          -1 -1 -1 0 0 0
          0 1 0 0 1 0
          0 1 0 0 1 0
          0 1 0 0 1 0
          0 1 0 0 1 0
          0 1 0
          <InformationKey name="L2_NORM_RANGE" location="vtkDataArray" length="2">
            <Value index="0">
              0
            </Value>
            <Value index="1">
              1.7320508076
            </Value>
          </InformationKey>
        </DataArray>
        <DataArray type="Float64" Name="nsi_UBC" NumberOfComponents="3" format="ascii" RangeMin="0" RangeMax="1">
          0 0 0 0.4375 0 0
          0.75 0 0 0.9375 0 0
          0 0 0 1 0 0
          0 0 0 0 0 0
          0.9375 0 0 0 0 0
          0 0 0 0.75 0 0
          0 0 0 0.4375 0 0
          0 0 0 0 0 0
          0 0 0 0 0 0
          0 0 0 0 0 0
          0 0 0 0 0 0
          0 0 0 0 0 0
          0 0 0 0 0 0
          0 0 0 0 0 0
          0 0 0 0 0 0
          0 0 0 0 0 0
          0 0 0 0 0 0
          0 0 0 0 0 0
          0 0 0 0 0 0
          0 0 0 0 0 0
          0 0 0 0 0 0
          0 0 0 0 0 0
          0 0 0 0 0 0
          0 0 0 0 0 0
          0 0 0 0 0 0
          0 0 0 0 0 0
          0 0 0 0 0 0
          0 0 0 0 0 0
          0 0 0 0 0 0
          0 0 0 0 0 0
          0 0 0 0 0 0
          0 0 0 0 0 0
          0 0 0 0 0 0
          0 0 0 0 0 0
          0 0 0 0 0 0
          0 0 0 0 0 0
          0 0 0 0 0 0
          0 0 0 0 0 0
          0 0 0 0 0 0
          0 0 0 0 0 0
          0 0 0 0 0 0
          0 0 0 0 0 0
          0 0 0 0 0 0
          0 0 0 0 0 0
          0 0 0 0 0 0
          0 0 0 0 0 0
          0 0 0 0 0 0
          0 0 0 0 0 0
          0 0 0 0 0 0
          0 0 0
          <InformationKey name="L2_NORM_RANGE" location="vtkDataArray" length="2">
            <Value index="0">
              0
            </Value>
            <Value index="1">
              1
            </Value>
          </InformationKey>
        </DataArray>
        <DataArray type="Float64" Name="nsi_UFIXNO" NumberOfComponents="3" format="ascii" RangeMin="1" RangeMax="1.4142135623730951">
          1 1 0 1 1 0
          1 1 0 1 1 0
          1 1 0 1 1 0
          -1 -1 0 -1 -1 0
          1 1 0 -1 -1 0
          -1 -1 0 1 1 0
          -1 -1 0 1 1 0
          -1 -1 0 1 1 0
          1 1 0 -1 -1 0
          -1 -1 0 -1 -1 0
          -1 -1 0 1 1 0
          -1 -1 0 -1 -1 0
          -1 -1 0 -1 -1 0
          1 1 0 1 1 0
          -1 -1 0 -1 -1 0
          -1 -1 0 -1 -1 0
          -1 -1 0 -1 -1 0
          -1 -1 0 1 1 0
          1 1 0 -1 -1 0
          -1 -1 0 -1 -1 0
          -1 -1 0 -1 -1 0
          -1 -1 0 -1 -1 0
          1 1 0 1 1 0
          -1 -1 0 -1 -1 0
          -1 -1 0 -1 -1 0
          -1 -1 0 -1 -1 0
          -1 -1 0 1 1 0
          1 1 0 -1 -1 0
          -1 -1 0 -1 -1 0
          -1 -1 0 -1 -1 0
          -1 -1 0 -1 -1 0
          1 1 0 1 1 0
          -1 -1 0 -1 -1 0
          -1 -1 0 -1 -1 0
          -1 -1 0 -1 -1 0
          -1 -1 0 1 1 0
          1 1 0 -1 -1 0
          -1 -1 0 -1 -1 0
          -1 -1 0 -1 -1 0
          -1 -1 0 -1 -1 0
          1 1 0 1 1 0
          -1 -1 0 -1 -1 0
          -1 -1 0 -1 -1 0
          -1 -1 0 -1 -1 0
          -1 -1 0 1 1 0
          1 1 0 0 1 0
          0 1 0 0 1 0
          0 1 0 0 1 0
          0 1 0 0 1 0
          1 1 0
          <InformationKey name="L2_NORM_RANGE" location="vtkDataArray" length="2">
            <Value index="0">
              1
            </Value>
            <Value index="1">
              1.4142135624
            </Value>
          </InformationKey>
        </DataArray>
      </PointData>
      <CellData>
        <DataArray type="UInt8" Name="vtkGhostType" format="ascii" RangeMin="0" RangeMax="0">
          0 0 0 0 0 0
          0 0 0 0 0 0
          0 0 0 0 0 0
          0 0
        </DataArray>
      </CellData>
      <Points>
        <DataArray type="Float32" Name="Points" NumberOfComponents="3" format="ascii" RangeMin="0" RangeMax="5.024937810560445">
          0 0.5 0 0 0.375 0
          0 0.25 0 0 0.125 0
          0.5 0.5 0 0 0 0
          0.5 0.375 0 0.5 0.25 0
          0 -0.125 0 0.5 0.125 0
          0.5 0 0 0 -0.25 0
          0.5 -0.125 0 0 -0.375 0
          0.5 -0.25 0 0 -0.5 0
          1 0.5 0 0.5 -0.375 0
          1 0.375 0 1 0.25 0
          1 0.125 0 0.5 -0.5 0
          1 0 0 1 -0.125 0
          1 -0.25 0 1 -0.375 0
          1 -0.5 0 1.5 0.5 0
          1.5 0.375 0 1.5 0.25 0
          1.5 0.125 0 1.5 0 0
          1.5 -0.125 0 1.5 -0.25 0
          1.5 -0.375 0 1.5 -0.5 0
          2 0.5 0 2 0.375 0
          2 0.25 0 2 0.125 0
          2 0 0 2 -0.125 0
          2 -0.25 0 2 -0.375 0
          2 -0.5 0 2.5 0.5 0
          2.5 0.375 0 2.5 0.25 0
          2.5 0.125 0 2.5 0 0
          2.5 -0.125 0 2.5 -0.25 0
          2.5 -0.375 0 2.5 -0.5 0
          3 0.5 0 3 0.375 0
          3 0.25 0 3 0.125 0
          3 0 0 3 -0.125 0
          3 -0.25 0 3 -0.375 0
          3 -0.5 0 3.5 0.5 0
          3.5 0.375 0 3.5 0.25 0
          3.5 0.125 0 3.5 0 0
          3.5 -0.125 0 3.5 -0.25 0
          3.5 -0.375 0 3.5 -0.5 0
          4 0.5 0 4 0.375 0
          4 0.25 0 4 0.125 0
          4 0 0 4 -0.125 0
          4 -0.25 0 4 -0.375 0
          4 -0.5 0 4.5 0.5 0
          4.5 0.375 0 4.5 0.25 0
          4.5 0.125 0 4.5 0 0
          4.5 -0.125 0 4.5 -0.25 0
          4.5 -0.375 0 4.5 -0.5 0
          5 0.5 0 5 0.375 0
          5 0.25 0 5 0.125 0
          5 0 0 5 -0.125 0
          5 -0.25 0 5 -0.375 0
          5 -0.5 0
          <InformationKey name="L2_NORM_RANGE" location="vtkDataArray" length="2">
            <Value index="0">
              0
            </Value>
            <Value index="1">
              5.0249378106
            </Value>
          </InformationKey>
        </DataArray>
      </Points>
      <Cells>
        <DataArray type="Int64" Name="connectivity" format="ascii" RangeMin="0" RangeMax="98">
          26 24 11 15 25 14
          13 21 17 44 42 24
          26 43 33 25 35 34
          62 60 42 44 61 51
          43 53 52 80 78 60
          62 79 69 61 71 70
          98 96 78 80 97 87
          79 89 88 24 22 5
          11 23 10 8 14 12
          42 40 22 24 41 31
          23 33 32 60 58 40
          42 59 49 41 51 50
          78 76 58 60 77 67
          59 69 68 96 94 76
          78 95 85 77 87 86
          22 19 2 5 20 7
          3 10 9 40 38 19
          22 39 29 20 31 30
          58 56 38 40 57 47
          39 49 48 76 74 56
          58 75 65 57 67 66
          94 92 74 76 93 83
          75 85 84 19 16 0
          2 18 4 1 7 6
          38 36 16 19 37 27
          18 29 28 56 54 36
          38 55 45 37 47 46
          74 72 54 56 73 63
          55 65 64 92 90 72
          74 91 81 73 83 82
        </DataArray>
        <DataArray type="Int64" Name="offsets" format="ascii" RangeMin="9" RangeMax="180">
          9 18 27 36 45 54
          63 72 81 90 99 108
          117 126 135 144 153 162
          171 180
        </DataArray>
        <DataArray type="UInt8" Name="types" format="ascii" RangeMin="28" RangeMax="28">
          28 28 28 28 28 28
          28 28 28 28 28 28
          28 28 28 28 28 28
          28 28
        </DataArray>
      </Cells>
    </Piece>
  </UnstructuredGrid>
</VTKFile>
