<?xml version="1.0"?>
<VTKFile type="UnstructuredGrid" version="0.1" byte_order="LittleEndian" header_type="UInt32" compressor="vtkZLibDataCompressor">
  <UnstructuredGrid>
    <Piece NumberOfPoints="99" NumberOfCells="20">
      <PointData>
        <DataArray type="Float64" Name="nsi_SBC" NumberOfComponents="3" format="ascii" RangeMin="0" RangeMax="25.6">
          25.6 0 0 14.4 0 0
          6.4 0 0 1.6 0 0
          0 0 0 0 0 0
          0 0 0 0 0 0
          1.6 0 0 0 0 0
          0 0 0 6.4 0 0
          0 0 0 14.4 0 0
          0 0 0 25.6 0 0
          0 0 0 0 0 0
          0 0 0 0 0 0
          0 0 0 0 0 0
          0 0 0 0 0 0
          0 0 0 0 0 0
          0 0 0 0 0 0
          0 0 0 0 0 0
          0 0 0 0 0 0
          0 0 0 0 0 0
          0 0 0 0 0 0
          0 0 0 0 0 0
          0 0 0 0 0 0
          0 0 0 0 0 0
          0 0 0 0 0 0
          0 0 0 0 0 0
          0 0 0 0 0 0
          0 0 0 0 0 0
          0 0 0 0 0 0
          0 0 0 0 0 0
          0 0 0 0 0 0
          0 0 0 0 0 0
          0 0 0 0 0 0
          0 0 0 0 0 0
          0 0 0 0 0 0
          0 0 0 0 0 0
          0 0 0 0 0 0
          0 0 0 0 0 0
          0 0 0 0 0 0
          0 0 0 0 0 0
          0 0 0 0 0 0
          0 0 0 0 0 0
          0 0 0 0 0 0
          0 0 0 0 0 0
          0 0 0 0 0 0
          0 0 0 0 0 0
          0 0 0 0 0 0
          0 0 0 0 0 0
          25.6 0 0 0 0 0
          0 0 0 0 0 0
          0 0 0 0 0 0
          0 0 0 0 0 0
          25.6 0 0
          <InformationKey name="L2_NORM_RANGE" location="vtkDataArray" length="2">
            <Value index="0">
              0
            </Value>
            <Value index="1">
              25.6
            </Value>
          </InformationKey>
        </DataArray>
        <DataArray type="Float64" Name="nsi_SFIXNO" NumberOfComponents="3" format="ascii" RangeMin="0" RangeMax="1.7320508075688772">
          1 1 1 1 1 1
          1 1 1 1 1 1
          0 0 0 1 1 1
          -1 -1 -1 -1 -1 -1
          1 1 1 -1 -1 -1
          -1 -1 -1 1 1 1
          -1 -1 -1 1 1 1
          -1 -1 -1 1 1 1
          0 0 0 -1 -1 -1
          -1 -1 -1 -1 -1 -1
          -1 -1 -1 0 0 0
          -1 -1 -1 -1 -1 -1
          -1 -1 -1 -1 -1 -1
          0 0 0 0 0 0
          -1 -1 -1 -1 -1 -1
          -1 -1 -1 -1 -1 -1
          -1 -1 -1 -1 -1 -1
          -1 -1 -1 0 0 0
          0 0 0 -1 -1 -1
          -1 -1 -1 -1 -1 -1
          -1 -1 -1 -1 -1 -1
          -1 -1 -1 -1 -1 -1
          0 0 0 0 0 0
          -1 -1 -1 -1 -1 -1
          -1 -1 -1 -1 -1 -1
          -1 -1 -1 -1 -1 -1
          -1 -1 -1 0 0 0
          0 0 0 -1 -1 -1
          -1 -1 -1 -1 -1 -1
          -1 -1 -1 -1 -1 -1
          -1 -1 -1 -1 -1 -1
          0 0 0 0 0 0
          -1 -1 -1 -1 -1 -1
          -1 -1 -1 -1 -1 -1
          -1 -1 -1 -1 -1 -1
          -1 -1 -1 0 0 0
          0 0 0 -1 -1 -1
          -1 -1 -1 -1 -1 -1
          -1 -1 -1 -1 -1 -1
          -1 -1 -1 -1 -1 -1
          0 0 0 0 0 0
          -1 -1 -1 -1 -1 -1
          -1 -1 -1 -1 -1 -1
          -1 -1 -1 -1 -1 -1
          -1 -1 -1 0 0 0
          0 1 0 0 1 0
          0 1 0 0 1 0
          0 1 0 0 1 0
          0 1 0 0 1 0
          0 1 0
          <InformationKey name="L2_NORM_RANGE" location="vtkDataArray" length="2">
            <Value index="0">
              0
            </Value>
            <Value index="1">
              1.7320508076
            </Value>
          </InformationKey>
        </DataArray>
        <DataArray type="Float64" Name="nsi_UBC" NumberOfComponents="3" format="ascii" RangeMin="0" RangeMax="1">
          0 0 0 0.4375 0 0
          0.75 0 0 0.9375 0 0
          0 0 0 1 0 0
          0 0 0 0 0 0
          0.9375 0 0 0 0 0
          0 0 0 0.75 0 0
          0 0 0 0.4375 0 0
          0 0 0 0 0 0
          0 0 0 0 0 0
          0 0 0 0 0 0
          0 0 0 0 0 0
          0 0 0 0 0 0
          0 0 0 0 0 0
          0 0 0 0 0 0
          0 0 0 0 0 0
          0 0 0 0 0 0
          0 0 0 0 0 0
          0 0 0 0 0 0
          0 0 0 0 0 0
          0 0 0 0 0 0
          0 0 0 0 0 0
          0 0 0 0 0 0
          0 0 0 0 0 0
          0 0 0 0 0 0
          0 0 0 0 0 0
          0 0 0 0 0 0
          0 0 0 0 0 0
          0 0 0 0 0 0
          0 0 0 0 0 0
          0 0 0 0 0 0
          0 0 0 0 0 0
          0 0 0 0 0 0
          0 0 0 0 0 0
          0 0 0 0 0 0
          0 0 0 0 0 0
          0 0 0 0 0 0
          0 0 0 0 0 0
          0 0 0 0 0 0
          0 0 0 0 0 0
          0 0 0 0 0 0
          0 0 0 0 0 0
          0 0 0 0 0 0
          0 0 0 0 0 0
          0 0 0 0 0 0
          0 0 0 0 0 0
          0 0 0 0 0 0
          0 0 0 0 0 0
          0 0 0 0 0 0
          0 0 0 0 0 0
          0 0 0
          <InformationKey name="L2_NORM_RANGE" location="vtkDataArray" length="2">
            <Value index="0">
              0
            </Value>
            <Value index="1">
              1
            </Value>
          </InformationKey>
        </DataArray>
        <DataArray type="Float64" Name="nsi_UFIXNO" NumberOfComponents="3" format="ascii" RangeMin="1" RangeMax="1.4142135623730951">
          1 1 0 1 1 0
          1 1 0 1 1 0
          1 1 0 1 1 0
          -1 -1 0 -1 -1 0
          1 1 0 -1 -1 0
          -1 -1 0 1 1 0
          -1 -1 0 1 1 0
          -1 -1 0 1 1 0
          1 1 0 -1 -1 0
          -1 -1 0 -1 -1 0
          -1 -1 0 1 1 0
          -1 -1 0 -1 -1 0
          -1 -1 0 -1 -1 0
          1 1 0 1 1 0
          -1 -1 0 -1 -1 0
          -1 -1 0 -1 -1 0
          -1 -1 0 -1 -1 0
          -1 -1 0 1 1 0
          1 1 0 -1 -1 0
          -1 -1 0 -1 -1 0
          -1 -1 0 -1 -1 0
          -1 -1 0 -1 -1 0
          1 1 0 1 1 0
          -1 -1 0 -1 -1 0
          -1 -1 0 -1 -1 0
          -1 -1 0 -1 -1 0
          -1 -1 0 1 1 0
          1 1 0 -1 -1 0
          -1 -1 0 -1 -1 0
          -1 -1 0 -1 -1 0
          -1 -1 0 -1 -1 0
          1 1 0 1 1 0
          -1 -1 0 -1 -1 0
          -1 -1 0 -1 -1 0
          -1 -1 0 -1 -1 0
          -1 -1 0 1 1 0
          1 1 0 -1 -1 0
          -1 -1 0 -1 -1 0
          -1 -1 0 -1 -1 0
          -1 -1 0 -1 -1 0
          1 1 0 1 1 0
          -1 -1 0 -1 -1 0
          -1 -1 0 -1 -1 0
          -1 -1 0 -1 -1 0
          -1 -1 0 1 1 0
          1 1 0 0 1 0
          0 1 0 0 1 0
          0 1 0 0 1 0
          0 1 0 0 1 0
          1 1 0
          <InformationKey name="L2_NORM_RANGE" location="vtkDataArray" length="2">
            <Value index="0">
              1
            </Value>
            <Value index="1">
              1.4142135624
            </Value>
          </InformationKey>
        </DataArray>
        <DataArray type="Float64" Name="Velocity" NumberOfComponents="3" format="ascii" RangeMin="0" RangeMax="1.1696209478398687">
          0 0 0 0.4375 0 0
          0.75 0 0 0.9375 0 0
          0 0 0 1 0 0
          0.3242734491393855 0.0016315184072238278 0 0.6386121385830569 0.0030120614517430006 0
          0.9375 0 0 0.830977693006701 0.0012443485274758138 0
          0.8853733651047806 -1.1796119636642288e-16 0 0.75 0 0
          0.830977693006702 -0.001244348527476284 0 0.4375 0 0
          0.6386121385830581 -0.0030120614517432365 0 0 0 0
          0 0 0 0.32427344913938616 -0.001631518407224121 0
          0.43522095190938964 0.016402406501130957 0 0.6542296656633477 0.035099385461827115 0
          0.7842263265526257 0.025926018949580167 0 0 0 0
          0.8289329995010613 1.8132197132647576e-15 0 0.7842263265526257 -0.02592601894957752 0
          0.654229665663348 -0.0350993854618246 0 0.4352209519093898 -0.0164024065011297 0
          0 0 0 0 0 0
          0.42011233602628 -0.004032581733315585 0 0.6536808267464858 -0.007101358649001098 0
          0.7627437687985816 -0.004798329836822375 0 0.7837645008129045 -9.064607768939679e-16 0
          0.7627437687985817 0.004798329836820814 0 0.653680826746486 0.007101358648999807 0
          0.4201123360262806 0.00403258173331511 0 0 0 0
          0 0 0 0.4106267567023527 0.00039431796977293853 0
          0.6544956983575517 0.00008369954531020673 0 0.7825278320568971 -0.0003238907236170403 0
          0.823984390978223 3.2894693913210205e-15 0 0.782527832056897 0.0003238907236220792 0
          0.6544956983575514 -0.0000836995453055607 0 0.4106267567023496 -0.0003943179697711366 0
          0 0 0 0 0 0
          0.402258097803035 -0.0005101099151857493 0 0.651081459103986 -0.000877223111659664 0
          0.7821747032835958 -0.00025020339946936487 0 0.8096962369794911 -1.0729144936774146e-15 0
          0.7821747032835946 0.0002502033994669521 0 0.6510814591039835 0.0008772231116574714 0
          0.40225809780303357 0.0005101099151845236 0 0 0 0
          0 0 0 0.4062085269326079 0.0007939967754750147 0
          0.6571835167746503 0.0018768907810644171 0 0.7851431005372136 0.0012839087505374656 0
          0.815676544791287 1.153110445731378e-15 0 0.785143100537214 -0.0012839087505354943 0
          0.6571835167746511 -0.0018768907810616069 0 0.40620852693260845 -0.0007939967754733816 0
          0 0 0 0 0 0
          0.4020248719696845 -0.00030017659326941535 0 0.650220985644596 -0.0006292293844109564 0
          0.7781230224725488 -0.0008395569330670352 0 0.812540525022227 -6.794740661406769e-16 0
          0.7781230224725488 0.0008395569330659586 0 0.6502209856445955 0.0006292293844097456 0
          0.40202487196968373 0.00030017659326889157 0 0 0 0
          0 0 0 0.4112823489299101 -0.0009480199604367905 0
          0.6640853279585038 0.004342257253626913 0 0.7870735683253357 0.008715622535913858 0
          0.8154005318927191 7.255480938272996e-16 0 0.7870735683253351 -0.008715622535912168 0
          0.6640853279585048 -0.004342257253625335 0 0.4112823489299112 0.0009480199604379302 0
          0 0 0 0 0 0
          0.3339204935483473 -0.019112323262843938 0 0.637827791762057 -0.04508408333796081 0
          0.8284817388676625 -0.04012552871569686 0 0.8884011712457107 3.758677678622647e-16 0
          0.8284817388676617 0.04012552871569746 0 0.6378277917620557 0.04508408333796096 0
          0.33392049354834574 0.019112323262843928 0 0 0 0
          0 0 0 0.24518427504002832 0 0
          0.5390180787141129 0 0 0.9425999388688044 0 0
          1.1696209478398687 0 0 0.9425999388688024 0 0
          0.5390180787141121 0 0 0.245184275040028 0 0
          0 0 0
          <InformationKey name="L2_NORM_RANGE" location="vtkDataArray" length="2">
            <Value index="0">
              0
            </Value>
            <Value index="1">
              1.1696209478
            </Value>
          </InformationKey>
        </DataArray>
        <DataArray type="Float64" Name="Pressure" format="ascii" RangeMin="3.10742066260487" RangeMax="36.645760944412395">
          36.62098283706925 36.645760944412395 36.07964313173294 35.422232180573324 33.03943768120188 35.18922284602111
          33.057651421039424 33.16588503338199 35.42223218057331 33.27127756072001 33.308500566590574 36.07964313173291
          33.271277560720016 36.64576094441237 33.16588503338198 36.62098283706923 29.158141392083884 33.05765142103941
          29.079796734550435 29.174110575851458 29.2756602121195 33.03943768120186 29.28298885748739 29.27566021211949
          29.174110575851408 29.079796734550385 29.15814139208382 26.589412362523575 26.634242437502458 26.62797594413464
          26.61140008364984 26.617613726435653 26.611400083649855 26.627975944134647 26.63424243750248 26.589412362523596
          23.250339374223877 23.2266682771998 23.219248171801873 23.200890181989962 23.179793678762096 23.200890181989948
          23.219248171801816 23.22666827719972 23.250339374223795 20.081259000371396 20.083163119137414 20.076735705717784
          20.07743547430504 20.086177244113582 20.077435474305048 20.07673570571779 20.08316311913742 20.0812590003714
          16.919446017583027 16.927932082715618 16.936369352302844 16.931269173835794 16.91787924816155 16.931269173835776
          16.936369352302812 16.927932082715582 16.919446017582985 13.610706946282857 13.600821254890718 13.592638620181853
          13.589881941060453 13.589519923500477 13.589881941060458 13.592638620181862 13.600821254890738 13.610706946282878
          10.54698760397932 10.614963394570152 10.63124245984471 10.565681869379901 10.51793216467442 10.565681869379894
          10.631242459844694 10.614963394570129 10.546987603979288 7.11433858635487 7.129180973634559 7.082081857053986
          7.047411387596211 7.055635995789002 7.047411387596206 7.08208185705398 7.129180973634546 7.1143385863548545
          6.077177856285551 5.988974712979404 5.355413793316338 3.948900018750554 3.10742066260487 3.948900018750554
          5.355413793316319 5.988974712979379 6.077177856285528
        </DataArray>
        <DataArray type="Float64" Name="stream" format="ascii" RangeMin="-0.6546172769253144" RangeMax="-0.008275701999347665">
          -0.008275701999347665 -0.02734375 -0.10156249999999999 -0.20703125 -0.01655140399869533 -0.3274151204023106
          -0.03542344565498881 -0.10231551536293573 -0.4485088704023106 -0.21284354567638997 -0.32670524080462116 -0.5530547769253144
          -0.4517919070713159 -0.6272735269253144 -0.5513789180853823 -0.6546172769253144 -0.02969078764109989 -0.6285616737369037
          -0.050322405314234465 -0.1218636541589391 -0.21878398694937218 -0.6546172769253144 -0.33082254247122 -0.4427191220735299
          -0.543655425052536 -0.6195810280409048 -0.6520056304619567 -0.042830171283504456 -0.06554467997056998 -0.13284103632835692
          -0.22579298383444776 -0.32528548160924303 -0.43865548459090486 -0.5319362065177987 -0.6181633525963723 -0.6520056304619567
          -0.05157814093721666 -0.07286832840425761 -0.1377601664398345 -0.22601651295443465 -0.3327813141337354 -0.43852836973285436
          -0.5380510330347467 -0.6154813223220251 -0.6483855851799452 -0.060326110590928864 -0.0825631909079575 -0.14474400744340823
          -0.23855225706580752 -0.33757705090233964 -0.44258877375247585 -0.5328193460033173 -0.6159968180534059 -0.6483855851799452
          -0.06925670785547958 -0.0901794421564922 -0.15373363985656868 -0.24273683100928267 -0.3444539884665961 -0.4436728571048362
          -0.5419079813973184 -0.6150088454369946 -0.6457226829100576 -0.07818730512003028 -0.1004586042506434 -0.1621101149860518
          -0.25778694630948784 -0.35320449124082004 -0.4583280613165139 -0.5476656896559359 -0.6201964810584861 -0.6457226829100576
          -0.0726661968856408 -0.10113189781095493 -0.16369205671266568 -0.2575136351279337 -0.3564257854714714 -0.45918971089187466
          -0.5510848404430104 -0.6179943282326782 -0.6450482802869709 -0.06714508865125134 -0.08979546364534124 -0.14812968698847967
          -0.2386444115386353 -0.35626123497029144 -0.4740549473010989 -0.5653554460584698 -0.6255556229753225 -0.6450482802869709
          -0.06714508865125134 -0.08246910584125311 -0.13506636175295528 -0.22408287904981927 -0.35620638480323147 -0.4881104898884033
          -0.5779881832577518 -0.6297242630969692 -0.6450482802869709
        </DataArray>
        <DataArray type="Float64" Name="Sigma" NumberOfComponents="6" format="ascii" RangeMin="0" RangeMax="25.79922479455536">
          25.6 0 0 -3.2 0 0
          14.399999999999999 0 0 -2.4 0 0
          6.4 0 0 -1.6 0 0
          1.6 0 0 -0.8 0 0
          7.22949959689272 -0.03823991221229256 0 -1.6458274356531937 0 0
          0 0 0 0 0 0
          6.665913507179047 -0.020221415530159922 0 -1.709493896094704 0 0
          4.669576412962134 -0.022726677927716432 0 -1.2913491091444669 0 0
          1.6 0 0 0.8 0 0
          2.0980115682943965 -0.01463294037209606 0 -0.7162890661980146 0 0
          0.3705521798474024 -0.019032361197471148 0 -1.1136924715771102e-15 0 0
          6.3999999999999995 0 0 1.6 0 0
          2.098011568294395 -0.014632940372097246 0 0.716289066198011 0 0
          14.400000000000002 0 0 2.3999999999999995 0 0
          4.669576412962151 -0.022726677927721484 0 1.2913491091444635 0 0
          25.6 0 0 3.2 0 0
          8.387231548119077 -0.06432691900464321 0 -2.0193703474690987 0 0
          6.665913507179059 -0.020221415530170317 0 1.7094938960947013 0 0
          7.032471854242971 -0.09932028577804246 0 -1.659024398572769 0 0
          4.8899802912150205 -0.05245967939979862 0 -1.1934169805873442 0 0
          2.402577141697062 0.04689730641058866 0 -0.6750698820402314 0 0
          7.229499596892728 -0.03823991221230218 0 1.6458274356531901 0 0
          0.8002216130666786 0.1254799829417068 0 4.895823330075544e-15 0 0
          2.402577141697063 0.04689730641059439 0 0.6750698820402362 0 0
          4.889980291215048 -0.052459679399788794 0 1.1934169805873485 0 0
          7.03247185424299 -0.09932028577803981 0 1.6590243985727686 0 0
          8.387231548119093 -0.06432691900464171 0 2.0193703474690987 0 0
          7.651986189390827 0.029867117762227502 0 -2.0967312750578353 0 0
          7.012440153930983 0.042226444365704524 0 -1.9473295622656965 0 0
          4.213342888976654 0.04952177333592789 0 -1.3454699164670216 0 0
          2.361081424543219 0.04711591292416062 0 -0.7885022279271126 0 0
          0.026497794419001908 0.051318414502602216 0 -2.7318560270777225e-15 0 0
          2.361081424543214 0.04711591292415742 0 0.7885022279271048 0 0
          4.213342888976675 0.04952177333592134 0 1.3454699164670205 0 0
          7.012440153931086 0.042226444365704024 0 1.9473295622657092 0 0
          7.6519861893909535 0.029867117762228602 0 2.0967312750578513 0 0
          8.207463427780754 0.004827597258436733 0 -2.1432368556727357 0 0
          7.270281449965594 -0.004865182770721732 0 -1.8712076179750006 0 0
          4.309660441881157 -0.0017474812243113425 0 -1.2505699387599774 0 0
          2.3127536835405063 -0.007781952431349298 0 -0.704415454256334 0 0
          0.37783149015228434 -0.014516233292910852 0 5.998673779927799e-15 0 0
          2.3127536835405453 -0.007781952431338945 0 0.7044154542563598 0 0
          4.309660441881219 -0.0017474812242966806 0 1.2505699387600089 0 0
          7.27028144996563 -0.0048651827707133916 0 1.871207617975018 0 0
          8.20746342778077 0.004827597258442536 0 2.143236855672744 0 0
          8.20759775257562 0.002204168948591323 0 -2.133953611193735 0 0
          7.111295082497822 0.00329052000128337 0 -1.8935183559246855 0 0
          4.136240335612362 -0.0001920563476744963 0 -1.2742189103933004 0 0
          2.4318964643712153 -0.003482320322204888 0 -0.7625026746267229 0 0
          -0.0032301942861622662 -0.0064543194843740825 0 2.980765356997858e-15 0 0
          2.431896464371234 -0.0034823203222057834 0 0.7625026746267225 0 0
          4.136240335612353 -0.00019205634767907598 0 1.2742189103932906 0 0
          7.111295082497781 0.003290520001283423 0 1.8935183559246682 0 0
          8.207597752575587 0.002204168948591831 0 2.1339536111937214 0 0
          8.407968240227806 0.0028012840429367802 0 -2.1790286112295933 0 0
          7.1078520540376235 -0.007516814108960393 0 -1.865560441268848 0 0
          4.164811472102552 -0.006910103042822191 0 -1.2608995029760173 0 0
          2.4855875325595918 -0.0012684665972616084 0 -0.7569292755516286 0 0
          0.016744882667641778 0.008311514958981692 0 5.360504192811134e-15 0 0
          2.485587532559613 -0.0012684665972567525 0 0.7569292755516441 0 0
          4.164811472102564 -0.006910103042810201 0 1.2608995029760366 0 0
          7.107852054037668 -0.007516814108939909 0 1.8655604412688802 0 0
          8.40796824022785 0.0028012840429572725 0 2.1790286112296258 0 0
          9.477944065956539 0.0006535873574546325 0 -2.2843605899393227 0 0
          7.1698826797657285 0.004942868089190075 0 -1.8938791209617656 0 0
          4.111673224354877 0.004765505318153507 0 -1.280946173409421 0 0
          2.277195850971726 -0.0021393194928900298 0 -0.7400660499294889 0 0
          0.09136499221395031 -0.00951265905960863 0 -1.403619380792691e-15 0 0
          2.277195850971752 -0.0021393194928906525 0 0.7400660499294909 0 0
          4.1116732243548775 0.004765505318152258 0 1.2809461734094183 0 0
          7.169882679765719 0.004942868089187889 0 1.8938791209617605 0 0
          9.47794406595648 0.0006535873574527659 0 2.2843605899393147 0 0
          9.110541105551944 0.04624821957529027 0 -2.2820401774877697 0 0
          7.3382529936682435 -0.007870604405729002 0 -1.906296015649954 0 0
          4.180037650308879 -0.01967012455084219 0 -1.2425792268883034 0 0
          2.3446619282729415 0.03604369595573553 0 -0.7320600792076837 0 0
          -0.0006577741072413684 0.09046058244337038 0 1.5525775109992423e-15 0 0
          2.3446619282729495 0.03604369595573742 0 0.7320600792076907 0 0
          4.180037650308907 -0.019670124550839524 0 1.2425792268883153 0 0
          7.338252993668285 -0.007870604405722435 0 1.9062960156499722 0 0
          9.110541105552064 0.04624821957530087 0 2.2820401774878016 0 0
          8.720897179582062 0.21248314878066754 0 -2.4941568789301884 0 0
          7.116265522699972 0.2445493802666761 0 -2.301820631061494 0 0
          4.751990956927242 0.1634361938792625 0 -1.7153118953369781 0 0
          2.5156309948074496 -0.017786990993073484 0 -0.8983165025068255 0 0
          0.6891789529870692 -0.1450181077468128 0 3.3047903692781277e-15 0 0
          2.515630994807453 -0.017786990993073005 0 0.8983165025068298 0 0
          4.751990956927255 0.16343619387926228 0 1.7153118953369835 0 0
          7.116265522699965 0.24454938026667683 0 2.301820631061494 0 0
          8.720897179582062 0.21248314878066665 0 2.4941568789301836 0 0
          4.935412037194732 0 0 -1.411184012764918 0 0
          5.71310668919826 0 0 -1.8608252988482055 0 0
          6.076010883609985 0 0 -1.8279830316111716 0 0
          3.514270992810787 0 0 -1.0629836409278164 0 0
          1.8584206243638508 0 0 6.034517163628008e-16 0 0
          3.514270992810809 0 0 1.0629836409278233 0 0
          6.076010883609951 0 0 1.8279830316111676 0 0
          5.713106689198255 0 0 1.860825298848203 0 0
          4.935412037194668 0 0 1.4111840127649145 0 0
          <InformationKey name="L2_NORM_RANGE" location="vtkDataArray" length="2">
            <Value index="0">
              0
            </Value>
            <Value index="1">
              25.799224795
            </Value>
          </InformationKey>
        </DataArray>
      </PointData>
      <CellData>
        <DataArray type="UInt8" Name="vtkGhostType" format="ascii" RangeMin="0" RangeMax="0">
          0 0 0 0 0 0
          0 0 0 0 0 0
          0 0 0 0 0 0
          0 0
        </DataArray>
      </CellData>
      <Points>
        <DataArray type="Float32" Name="Points" NumberOfComponents="3" format="ascii" RangeMin="0" RangeMax="5.024937810560445">
          0 0.5 0 0 0.375 0
          0 0.25 0 0 0.125 0
          0.5 0.5 0 0 0 0
          0.5 0.375 0 0.5 0.25 0
          0 -0.125 0 0.5 0.125 0
          0.5 0 0 0 -0.25 0
          0.5 -0.125 0 0 -0.375 0
          0.5 -0.25 0 0 -0.5 0
          1 0.5 0 0.5 -0.375 0
          1 0.375 0 1 0.25 0
          1 0.125 0 0.5 -0.5 0
          1 0 0 1 -0.125 0
          1 -0.25 0 1 -0.375 0
          1 -0.5 0 1.5 0.5 0
          1.5 0.375 0 1.5 0.25 0
          1.5 0.125 0 1.5 0 0
          1.5 -0.125 0 1.5 -0.25 0
          1.5 -0.375 0 1.5 -0.5 0
          2 0.5 0 2 0.375 0
          2 0.25 0 2 0.125 0
          2 0 0 2 -0.125 0
          2 -0.25 0 2 -0.375 0
          2 -0.5 0 2.5 0.5 0
          2.5 0.375 0 2.5 0.25 0
          2.5 0.125 0 2.5 0 0
          2.5 -0.125 0 2.5 -0.25 0
          2.5 -0.375 0 2.5 -0.5 0
          3 0.5 0 3 0.375 0
          3 0.25 0 3 0.125 0
          3 0 0 3 -0.125 0
          3 -0.25 0 3 -0.375 0
          3 -0.5 0 3.5 0.5 0
          3.5 0.375 0 3.5 0.25 0
          3.5 0.125 0 3.5 0 0
          3.5 -0.125 0 3.5 -0.25 0
          3.5 -0.375 0 3.5 -0.5 0
          4 0.5 0 4 0.375 0
          4 0.25 0 4 0.125 0
          4 0 0 4 -0.125 0
          4 -0.25 0 4 -0.375 0
          4 -0.5 0 4.5 0.5 0
          4.5 0.375 0 4.5 0.25 0
          4.5 0.125 0 4.5 0 0
          4.5 -0.125 0 4.5 -0.25 0
          4.5 -0.375 0 4.5 -0.5 0
          5 0.5 0 5 0.375 0
          5 0.25 0 5 0.125 0
          5 0 0 5 -0.125 0
          5 -0.25 0 5 -0.375 0
          5 -0.5 0
          <InformationKey name="L2_NORM_RANGE" location="vtkDataArray" length="2">
            <Value index="0">
              0
            </Value>
            <Value index="1">
              5.0249378106
            </Value>
          </InformationKey>
        </DataArray>
      </Points>
      <Cells>
        <DataArray type="Int64" Name="connectivity" format="ascii" RangeMin="0" RangeMax="98">
          26 24 11 15 25 14
          13 21 17 44 42 24
          26 43 33 25 35 34
          62 60 42 44 61 51
          43 53 52 80 78 60
          62 79 69 61 71 70
          98 96 78 80 97 87
          79 89 88 24 22 5
          11 23 10 8 14 12
          42 40 22 24 41 31
          23 33 32 60 58 40
          42 59 49 41 51 50
          78 76 58 60 77 67
          59 69 68 96 94 76
          78 95 85 77 87 86
          22 19 2 5 20 7
          3 10 9 40 38 19
          22 39 29 20 31 30
          58 56 38 40 57 47
          39 49 48 76 74 56
          58 75 65 57 67 66
          94 92 74 76 93 83
          75 85 84 19 16 0
          2 18 4 1 7 6
          38 36 16 19 37 27
          18 29 28 56 54 36
          38 55 45 37 47 46
          74 72 54 56 73 63
          55 65 64 92 90 72
          74 91 81 73 83 82
        </DataArray>
        <DataArray type="Int64" Name="offsets" format="ascii" RangeMin="9" RangeMax="180">
          9 18 27 36 45 54
          63 72 81 90 99 108
          117 126 135 144 153 162
          171 180
        </DataArray>
        <DataArray type="UInt8" Name="types" format="ascii" RangeMin="28" RangeMax="28">
          28 28 28 28 28 28
          28 28 28 28 28 28
          28 28 28 28 28 28
          28 28
        </DataArray>
      </Cells>
    </Piece>
  </UnstructuredGrid>
</VTKFile>
