<?xml version="1.0"?>
<VTKFile type="UnstructuredGrid" version="0.1" byte_order="LittleEndian" header_type="UInt32" compressor="vtkZLibDataCompressor">
  <UnstructuredGrid>
    <Piece NumberOfPoints="51" NumberOfCells="75">
      <PointData>
        <DataArray type="Float64" Name="nsi_BC" NumberOfComponents="3" format="ascii" RangeMin="0" RangeMax="100">
          0 0 0 0 0 0
          0 0 0 0 0 0
          0 0 0 0 0 0
          0 0 0 0 0 0
          0 0 0 0 0 0
          0 0 0 0 0 0
          0 0 0 0 0 0
          0 0 0 0 0 0
          0 0 0 0 0 0
          0 0 0 0 0 0
          0 0 0 0 0 0
          0 0 0 0 0 0
          0 0 0 0 0 0
          0 0 0 0 0 0
          0 0 0 0 0 0
          0 0 0 0 0 0
          0 0 0 0 0 0
          0 0 0 0 0 0
          0 0 0 0 0 0
          0 0 0 0 0 0
          0 0 0 0 0 0
          0 0 0 0 0 0
          0 0 0 100 0 0
          0 0 0 100 0 0
          100 0 0 100 0 0
          100 0 0
          <InformationKey name="L2_NORM_RANGE" location="vtkDataArray" length="2">
            <Value index="0">
              0
            </Value>
            <Value index="1">
              100
            </Value>
          </InformationKey>
        </DataArray>
        <DataArray type="Float64" Name="nsi_FIXNO" NumberOfComponents="3" format="ascii" RangeMin="1" RangeMax="1.4142135623730951">
          0 1 0 -1 -1 0
          0 1 0 -1 -1 0
          -1 -1 0 0 1 0
          -1 -1 0 -1 -1 0
          -1 -1 0 0 1 0
          -1 -1 0 -1 -1 0
          -1 -1 0 -1 -1 0
          0 1 0 0 1 0
          -1 -1 0 0 1 0
          0 1 0 -1 -1 0
          -1 -1 0 -1 -1 0
          0 1 0 0 1 0
          -1 -1 0 -1 -1 0
          -1 -1 0 0 1 0
          -1 -1 0 0 1 0
          1 1 0 -1 -1 0
          -1 -1 0 1 1 0
          0 1 0 -1 -1 0
          1 1 0 -1 -1 0
          -1 -1 0 -1 -1 0
          0 1 0 -1 -1 0
          0 1 0 -1 -1 0
          -1 -1 0 1 1 0
          0 1 0 1 1 0
          1 1 0 1 1 0
          1 1 0
          <InformationKey name="L2_NORM_RANGE" location="vtkDataArray" length="2">
            <Value index="0">
              1
            </Value>
            <Value index="1">
              1.4142135624
            </Value>
          </InformationKey>
        </DataArray>
        <DataArray type="Float64" Name="tem_BC" format="ascii" RangeMin="0" RangeMax="1">
          0 0 0 0 0 0
          0 0 0 0 0 0
          0 0 0 0 0 0
          0 0 0 0 0 0
          0 0 0 0 0 0
          0 0 0 0 0 0
          0 0 0 0 0 0
          0 0 0 1 0 1
          1 1 1
        </DataArray>
        <DataArray type="Float64" Name="tem_FIXNO" format="ascii" RangeMin="-1" RangeMax="1">
          -1 -1 -1 -1 -1 -1
          -1 -1 -1 -1 -1 -1
          -1 -1 -1 -1 -1 -1
          -1 -1 -1 -1 -1 -1
          -1 -1 -1 -1 -1 -1
          1 -1 -1 1 -1 -1
          1 -1 -1 -1 -1 -1
          -1 -1 -1 1 -1 1
          1 1 1
        </DataArray>
        <DataArray type="Float64" Name="Velocity" NumberOfComponents="3" format="ascii" RangeMin="0" RangeMax="113.57398999750752">
          100.16146095662752 0 0 99.82073336260652 -0.34080065004357846 0
          100.61599932424996 0 0 99.3462898432861 0.221902497985361 0
          100.0557043570409 0.059447847338539604 0 100.66198931807337 0 0
          100.17003014516159 0.06692858495916895 0 99.02725491777073 -0.6492599877908112 0
          99.99290510214495 0.018832705833191347 0 101.70564457295247 0 0
          100.43407777534115 -0.10337242948294738 0 100.0451677104932 -0.11487267372488198 0
          98.22049432930447 1.5284237341736282 0 100.12064617206153 0.17554313886512168 0
          100.09985341613022 0 0 101.09026110878922 0 0
          99.9948148009023 0.16889132800493845 0 100.09667511294334 0 0
          99.9140440139432 0 0 101.18642352922977 2.742418454500073 0
          96.3681131082087 -4.573234970812667 0 100.06282043809743 0.24827111379323544 0
          100.00722600032938 0 0 103.59629846604484 0 0
          101.1921977713146 -5.714263646882667 0 86.59118151911545 -7.408753494396061 0
          101.8895484642388 2.204616026771153 0 99.4732948296145 0 0
          101.35255463530166 -17.42097803935026 0 103.29770957864842 0 0
          0 0 0 113.55690752311425 -1.9697608334051435 0
          87.69462888969296 30.390031932290636 0 0 0 0
          100.50266214225155 0 0 109.26033364968798 14.850059561017554 0
          0 0 0 97.17666789069015 15.661218813754207 0
          110.81900815148202 -10.141158080358835 0 31.278424543725738 -7.415444615720219 0
          104.16161571946381 0 0 102.71672856208114 7.093787645176329 0
          112.39397089103922 0 0 85.9412446938167 12.610722044081006 0
          97.11709095085959 -14.048899004160406 0 100.00000000119762 0 0
          103.7805267570161 0 0 100.00000000119763 0 0
          100.00000000119763 0 0 100.00000000119759 0 0
          100.00000000119762 0 0
          <InformationKey name="L2_NORM_RANGE" location="vtkDataArray" length="2">
            <Value index="0">
              0
            </Value>
            <Value index="1">
              113.57399
            </Value>
          </InformationKey>
        </DataArray>
        <DataArray type="Float64" Name="Pressure" format="ascii" RangeMin="-8919.428391731899" RangeMax="73147.64594421025">
          -57.389571576850514 49.204025427583694 -91.89702311414025 -228.6781136270509 -49.721835046053975 -39.78783693166771
          48.53753268501149 -314.6446850914131 33.43302040532717 657.1961850692926 133.70116035589515 242.91731039644506
          -220.04160390765816 168.9081152745666 126.9678281918591 2400.17626094546 386.98616558628873 329.3295169225816
          464.02767596497335 -65.86818498695094 -1239.7316620184968 789.5470552193198 745.2869924915193 10855.822757304253
          6854.429651463056 -5439.479151632782 1387.8965911146322 3065.9076096193985 4501.680038634703 28526.083198291424
          933.1643031659404 30504.400222212083 -8919.428391731899 51570.37202282127 9131.444882019152 12625.700442522852
          55591.977566556605 52984.62918744743 38004.42730037641 73147.64594421025 48330.93465361361 53380.24042346637
          25683.812515323258 64233.552600353825 60963.30856177284 59789.00471687076 45671.80324583657 64892.555691171234
          69727.07649555648 59774.63215386373 56672.9098718264
        </DataArray>
        <DataArray type="Float64" Name="Temperature" format="ascii" RangeMin="-0.13447389276697536" RangeMax="1.000000000000135">
          0.00022727852379665126 0.0001784734196452612 -0.0004932143109240456 0.00006525365784495709 0.00013671176893184802 0.0007038347596720314
          -0.00028053873446569664 -0.0009009914679761436 -0.00009678530970445006 0.0005613531674279601 0.00043089895308751064 0.000323229540411128
          0.002077901618652625 -0.0005613088718582405 0.0001979281887408527 -0.006896066484928291 -0.00042355840743113797 -0.0000950559835469884
          -0.00021160333772482617 0.0015182784222996359 0.0007916185169949625 0.0003713447218253406 0.0003081290447194203 0.032506937371350006
          0.0020967478867328407 -0.006711660928805407 -0.0036971634994714987 0.0018442147170137516 0.04284583405669358 -0.007043955803382839
          0 -0.06119189471372692 0.01989650662405296 0 -0.00576275943510542 0.025930901268588945
          0 -0.1172305388840428 -0.11983080115788891 -0.13447389276697536 0.08404405164842699 0.2351359383133347
          -0.007891268224096517 0.2656131652704572 0.2590789137447147 1.000000000000135 0.1885198731879349 1.000000000000135
          1.000000000000135 1.000000000000135 1.000000000000135
        </DataArray>
        <DataArray type="Float64" Name="CN2" format="ascii" RangeMin="2.1504812102785631e-19" RangeMax="7.796931805984506e-13">
          5.529878052885265e-19 2.3073563062772006e-19 6.322744292422753e-19 6.470909937183646e-19 2.1504812102785631e-19 1.2244707364456216e-18
          5.300185421657055e-19 2.066658390083283e-18 5.641609438099124e-19 1.3649130350989576e-17 8.977483065294855e-19 7.080398793706753e-19
          1.1799550798601106e-17 2.683433486149195e-18 5.42320337079054e-19 2.0131776541173838e-16 1.3171295526949543e-18 5.404161604539372e-19
          8.369634735683465e-19 8.673787457424688e-18 1.7286581741340655e-17 4.886318571839506e-18 1.8807100443190146e-18 1.6520352765919787e-15
          1.4280914706983585e-15 3.0946128075532734e-16 1.4145301762543617e-16 1.6633016984662153e-17 3.999232189431074e-15 4.64844363824949e-15
          6.206930092126196e-16 1.911277202586648e-14 1.904091953372446e-15 1.6281904489499595e-14 3.591146557244447e-16 4.100721117314687e-15
          1.9591359980453317e-14 8.254278227775267e-14 5.767803723801263e-14 1.506299550488802e-13 2.443013359062092e-13 3.658914440192963e-13
          1.7514546664497723e-14 4.2205084530896675e-13 3.874534751948482e-13 6.905518594815989e-13 3.2402319259184596e-13 6.374941863752864e-13
          6.173248183989696e-13 6.610068826120196e-13 7.796931805984506e-13
        </DataArray>
        <DataArray type="Float64" Name="CT2" format="ascii" RangeMin="1.920079149071386e-7" RangeMax="0.2874979300180455">
          4.938172380905127e-7 2.0560759239119658e-7 5.650042047034408e-7 5.798356875492309e-7 1.920079149071386e-7 0.000001093073013080925
          4.72300509012327e-7 0.0000018550296985524166 5.028780488050793e-7 0.000012016265556051132 7.986333117507961e-7 6.284967042745856e-7
          0.00001057164756232366 0.000002385459290904364 4.825092512184026e-7 0.00017123299725322553 0.0000011657934005150891 4.788753992670889e-7
          7.396642227741054e-7 0.000007747139355753678 0.000015808849320103974 0.000004290459203239795 0.0000016528176839442219 0.0011996640555776048
          0.0011156678621475635 0.0003086700880873133 0.0001227346252479187 0.000013967005996870578 0.003268535209241357 0.0025097522333846337
          0.0005434501342072383 0.010000800917120687 0.002047922793369575 0.006321602638863752 0.0002689349790796055 0.002884700674661368
          0.007218397719752784 0.03140424876973894 0.026965767902301558 0.04472736882124343 0.09916248918229939 0.1392062783031439
          0.009888732860147525 0.14011352139323585 0.13389467695690288 0.2447943113843588 0.13657596012757822 0.2122134645664754
          0.19395915416302434 0.23436304627507615 0.2874979300180455
        </DataArray>
        <DataArray type="Float64" Name="CN2_MEAN" format="ascii" RangeMin="1.4420747681303404e-19" RangeMax="3.101078921727973e-9">
          3.3895173117786056e-19 1.736330004174602e-19 1.476819573499044e-16 1.232849063737592e-16 1.4420747681303404e-19 2.211880497314544e-15
          6.375867106251562e-17 2.543275115134606e-15 4.784359396518721e-19 1.7437088679666725e-14 7.226944624335755e-16 3.7952124604428507e-16
          2.2377994878436323e-14 7.869103469086451e-15 4.534452313053313e-19 1.7573753982263055e-13 3.749945726837667e-15 1.3548629693122582e-16
          2.4238990082846003e-15 6.53195822208255e-14 1.0653447607465242e-13 4.581780953664037e-14 2.986154479245704e-14 1.1164261364397442e-12
          1.4814344455458174e-12 9.176866534817985e-13 4.338215317557928e-13 1.5102456952227227e-13 6.0879581777664805e-12 2.3137280044226893e-12
          1.4868395488045763e-12 1.1153974430107825e-11 3.1551840049753623e-12 1.0020673077696683e-11 8.531407587156876e-13 4.552538870931813e-12
          1.0438114069362528e-11 3.8443000872329777e-11 2.769695187045273e-11 5.508459816395108e-11 8.390089871234264e-10 1.3315441203443328e-9
          1.0928550829944526e-11 1.3536917350925155e-9 1.2605798155055311e-9 2.930283817298232e-9 1.2336123386091596e-9 2.7297974884915493e-9
          2.5098388760674168e-9 2.810946002112032e-9 3.101078921727973e-9
        </DataArray>
        <DataArray type="Float64" Name="CN2_FROM_MEAN" format="ascii" RangeMin="1.0979440484375596e-19" RangeMax="9.63881322502509e-10">
          3.370607499019422e-19 1.5724997954000016e-19 3.110286061547531e-17 3.9515926387150413e-17 1.0979440484375596e-19 4.035343302297851e-16
          1.969901922563223e-17 6.350641965124663e-16 4.835348193944851e-19 6.324945116060365e-15 2.322976310678233e-16 9.39040701397707e-17
          5.8287200419616405e-15 2.3575098099841446e-15 4.515124067888313e-19 1.0781397535403392e-13 7.667571326666238e-16 3.470187453814477e-17
          6.204431278679856e-16 1.7154715726099897e-14 2.9639106430287895e-14 1.1940679816128952e-14 7.45070624141741e-15 1.0005052639524436e-12
          1.216762965744468e-12 2.9801664003053866e-13 1.879443238851656e-13 3.964202318838413e-14 2.2152821648864527e-12 2.73264192500077e-12
          7.342934752022461e-13 1.100248956287087e-11 1.5258924332424845e-12 6.472153411900936e-12 4.0816884518928443e-13 3.4559042811680155e-12
          8.395511284027989e-12 1.8136526818011253e-11 1.85186898602629e-11 5.721020942123889e-11 2.114511217760729e-10 2.987540955276606e-10
          7.952891764046633e-12 2.1462280339807855e-10 1.712441544777742e-10 8.564719440207236e-10 2.944666283096515e-10 6.834317139929481e-10
          6.76706405788588e-10 6.944360341871315e-10 9.63881322502509e-10
        </DataArray>
      </PointData>
      <CellData>
        <DataArray type="UInt8" Name="vtkGhostType" format="ascii" RangeMin="0" RangeMax="0">
          0 0 0 0 0 0
          0 0 0 0 0 0
          0 0 0 0 0 0
          0 0 0 0 0 0
          0 0 0 0 0 0
          0 0 0 0 0 0
          0 0 0 0 0 0
          0 0 0 0 0 0
          0 0 0 0 0 0
          0 0 0 0 0 0
          0 0 0 0 0 0
          0 0 0 0 0 0
          0 0 0
        </DataArray>
      </CellData>
      <Points>
        <DataArray type="Float32" Name="Points" NumberOfComponents="3" format="ascii" RangeMin="0" RangeMax="17.88854381999832">
          16 8 0 16 6 0
          14 8 0 13.571430206298828 5.4463372230529785 0
          16 4 0 12 8 0
          14 3.464102029800415 0 11.101200103759766 5.649384021759033 0
          16 2 0 10 8 0
          12 3.464102029800415 0 13.166669845581055 1.776708960533142 0
          9.0526123046875 5.597301006317139 0 10 3.464102029800415 0
          16 0 0 8 8 0
          11 1.7320510149002075 0 14 0 0
          12 0 0 8 3.464102029800415 0
          7.214476108551025 5.006220817565918 0 8.865592002868652 1.8541419506072998 0
          10 0 0 6 8 0
          5.868243217468262 6.172163009643555 0 5.61288595199585 4.4169921875 0
          6.193554878234863 2.464600086212158 0 8 0 0
          4.574699878692627 4.995409965515137 0 4 8 0
          4.5 4 0 3.80739688873291 6.614357948303223 0
          4.723260879516602 3.0721371173858643 0 3.75 4.433012962341309 0
          6 0 0 4.8942999839782715 1.5862879753112793 0
          3.75 3.5669870376586914 0 3.0087170600891113 5.149643898010254 0
          3.5546820163726807 2.3947041034698486 0 2.864197015762329 3.831125020980835 0
          2 8 0 1.7273950576782227 6.389729976654053 0
          4 0 0 1.5482569932937622 4.574378967285156 0
          1.6611889600753784 2.800034999847412 0 0 8 0
          2 0 0 0 6 0
          0 4 0 0 2 0
          0 0 0
          <InformationKey name="L2_NORM_RANGE" location="vtkDataArray" length="2">
            <Value index="0">
              0
            </Value>
            <Value index="1">
              17.88854382
            </Value>
          </InformationKey>
        </DataArray>
      </Points>
      <Cells>
        <DataArray type="Int64" Name="connectivity" format="ascii" RangeMin="0" RangeMax="50">
          30 36 32 36 33 39
          33 30 28 32 36 38
          39 33 37 28 30 25
          30 32 25 36 39 38
          33 28 37 32 38 35
          39 37 43 28 25 24
          35 38 42 43 37 41
          24 25 20 32 35 26
          39 43 44 28 24 31
          41 37 31 26 35 34
          31 24 23 20 25 19
          44 43 48 48 43 47
          43 41 47 47 41 45
          32 26 25 28 31 37
          24 20 15 39 44 38
          35 42 34 44 48 49
          44 49 46 50 46 49
          14 8 17 15 23 24
          27 22 21 21 22 16
          27 21 26 16 22 18
          16 18 11 11 18 17
          16 11 10 11 17 8
          10 11 6 6 11 8
          10 6 3 3 4 1
          10 3 7 7 3 5
          10 7 13 13 7 12
          10 13 16 12 7 9
          13 12 19 16 13 21
          19 12 20 20 12 15
          19 25 26 21 13 19
          21 19 26 0 2 1
          4 3 6 29 40 31
          29 31 23 5 9 7
          46 42 38 8 4 6
          2 5 3 34 27 26
          40 45 41 40 41 31
          9 15 12 38 44 46
          1 2 3
        </DataArray>
        <DataArray type="Int64" Name="offsets" format="ascii" RangeMin="3" RangeMax="225">
          3 6 9 12 15 18
          21 24 27 30 33 36
          39 42 45 48 51 54
          57 60 63 66 69 72
          75 78 81 84 87 90
          93 96 99 102 105 108
          111 114 117 120 123 126
          129 132 135 138 141 144
          147 150 153 156 159 162
          165 168 171 174 177 180
          183 186 189 192 195 198
          201 204 207 210 213 216
          219 222 225
        </DataArray>
        <DataArray type="UInt8" Name="types" format="ascii" RangeMin="5" RangeMax="5">
          5 5 5 5 5 5
          5 5 5 5 5 5
          5 5 5 5 5 5
          5 5 5 5 5 5
          5 5 5 5 5 5
          5 5 5 5 5 5
          5 5 5 5 5 5
          5 5 5 5 5 5
          5 5 5 5 5 5
          5 5 5 5 5 5
          5 5 5 5 5 5
          5 5 5 5 5 5
          5 5 5
        </DataArray>
      </Cells>
    </Piece>
  </UnstructuredGrid>
</VTKFile>
