<?xml version="1.0"?>
<VTKFile type="UnstructuredGrid" version="0.1" byte_order="LittleEndian" header_type="UInt32" compressor="vtkZLibDataCompressor">
  <UnstructuredGrid>
    <Piece NumberOfPoints="44" NumberOfCells="60">
      <PointData>
        <DataArray type="Float64" Name="Density" format="ascii" RangeMin="0.9935430751593278" RangeMax="1.7">
          1.7 1.1893503930789193 1.7 1.2071071004034748 1.0006371871432218 1.0101675056241846
          1.7 1.211101322434122 0.9935430751593278 1.0115131799149055 0.9987698296156182 1.7
          1.2108616578886193 0.99872121496167 1.010897139689287 0.9980635791087981 1.7 1.2107497292284652
          1.0107647881562378 0.9980362670129278 1.7 1.2108151449763962 1.0107256020935778 0.998018064012975
          1.7 1.2114611536798974 1.010824449152447 0.9979047208029648 1.7 1.213876292029266
          1.0122310496788216 0.9978649091903614 1.7 1.2187399001744859 1.0171384763878544 0.9992304201413481
          1.7 1.2021085146006316 1.022942233533336 1.0027007667144727 1 1
          1 1
        </DataArray>
        <DataArray type="Float64" Name="Momentum" NumberOfComponents="3" format="ascii" RangeMin="2.881095503826544" RangeMax="4.535233026008696">
          4.4528099999999995 -0.86071 0 3.418857949702226 -0.15406199321270345 0
          4.4528099999999995 -0.86071 0 3.456038018460719 -0.17178001017229466 0
          2.903594529106347 0.0012158707074383939 0 2.928704509835428 -0.0078983291022261 0
          4.4528099999999995 -0.86071 0 3.466637525181793 -0.17670743433936936 0
          2.8810919152720795 0.00454729847146655 0 2.9329929266825063 -0.009222741475974494 0
          2.896435798284942 0 0 4.4528099999999995 -0.86071 0
          3.4662214820090087 -0.17634595112290327 0 2.896357640009837 0 0
          2.9314354231991175 -0.008287470852687325 0 2.8944273574133903 0 0
          4.4528099999999995 -0.86071 0 3.465885181084767 -0.17620966689921064 0
          2.930998046124495 -0.008125778711722804 0 2.8942963378033943 0 0
          4.4528099999999995 -0.86071 0 3.4661117981802536 -0.17623882781522088 0
          2.9308626399772546 -0.008120800736275111 0 2.894229505232278 0 0
          4.4528099999999995 -0.86071 0 3.468217728207777 -0.17687716750852417 0
          2.931227078454265 -0.00814785260032657 0 2.893874825238197 0 0
          4.4528099999999995 -0.86071 0 3.474911528907469 -0.18090102239950853 0
          2.9357604203894327 -0.009063831841626603 0 2.8938262783671784 0 0
          4.4528099999999995 -0.86071 0 3.482485735641791 -0.19421579344577114 0
          2.950198737986704 -0.013206909398676076 0 2.898176141870364 0 0
          4.4528099999999995 -0.86071 0 3.415622417751581 -0.1953798840400034 0
          2.9643832529541445 -0.020075136009698846 0 2.908195112550326 0 0
          2.9 0 0 2.9 0 0
          2.9 0 0 2.9 0 0
          <InformationKey name="L2_NORM_RANGE" location="vtkDataArray" length="2">
            <Value index="0">
              2.8810955038
            </Value>
            <Value index="1">
              4.535233026
            </Value>
          </InformationKey>
        </DataArray>
        <DataArray type="Float64" Name="Energy" format="ascii" RangeMin="4.888363326744239" RangeMax="7.585636452999999">
          7.585636452999999 5.89667503645539 7.585636452999999 5.9601862770325695 4.927333020335957 4.974058699639837
          7.585636452999999 5.979950175701473 4.888363326744239 4.982173366850144 4.91721868781632 7.585636452999999
          5.979184067093835 4.916887564985212 4.979037059051532 4.912967454979081 7.585636452999999 5.9785364912617425
          4.978178929998023 4.912692062949372 7.585636452999999 5.978984985814101 4.977909246847219 4.912586862131961
          7.585636452999999 5.983367564603126 4.978619120882869 4.911897207851651 7.585636452999999 5.997580039407083
          4.987571116982711 4.9118299722178955 7.585636452999999 6.012926250772206 5.015723477277646 4.920209449214342
          7.585636452999999 5.876718355758428 5.042612858172115 4.938783607727985 4.923 4.923
          4.923 4.923
        </DataArray>
        <DataArray type="Float64" Name="DERPR" format="ascii" RangeMin="-3.787341463414633" RangeMax="2.138708751525678">
          2.138708751525678 1.106677463049655 2.070480236641401 1.3304663986883578 0.2198115601747163 0.29301351611373216
          2.0520311389533576 1.2876275366387788 0.04741838920093411 0.2685363275397959 0.051953864683597126 2.0529552207922843
          1.2776762346951276 0.028197453693049917 0.2623069363282873 0.022855567314100125 2.053656285274607 1.278680978322981
          0.2636697413502951 0.024022584180658287 2.05448752037233 1.2812484848274086 0.264488832084134 0.02391460318000531
          2.052916961720921 1.2897133395602312 0.2702863537376958 0.024384973103710187 2.032270256020368 1.3015362039442482
          0.2917825289348333 0.03345816815286728 1.9439583078513754 1.2326234241285003 0.3205942357888475 0.05889810278871069
          -0.3509920071697272 0.6741442118679487 0.2145607689993458 0.06637212423109021 -3.787341463414633 -1.4355273895557785
          -0.3485887400560882 -0.058397494808900774
        </DataArray>
        <DataArray type="Float64" Name="MORPR" NumberOfComponents="3" format="ascii" RangeMin="0.06717611152039107" RangeMax="10.909999848500224">
          5.121796895214216 -2.3201345025277225 0 3.052924179289012 -0.8772749587934159 0
          4.974287458965847 -2.238966233097426 0 3.673519021867635 -1.0106807506777413 0
          0.6395462538503377 -0.1649066767020521 0 0.8398517055702197 -0.2214459150803895 0
          4.924182151849926 -2.21732883050571 0 3.5754916135471118 -0.9599317877620565 0
          0.1451064374981868 -0.03632119307315158 0 0.7827867934498539 -0.18704958385497714 0
          0.15194116176022573 -0.042572534554736204 0 4.925872853819604 -2.2189411280241518 0
          3.547071752956722 -0.9478804720314002 0 0.08278432195618785 -0.017806199079980583 0
          0.7636918932983008 -0.17828779188363642 0 0.06588697904955985 -0.013097173386760926 0
          4.927992720059851 -2.2195504878245216 0 3.5495906375562294 -0.9492462167089348 0
          0.7671722978556258 -0.1809085642657563 0 0.06934368782563984 -0.014779973931751917 0
          4.930988448639132 -2.219888310220265 0 3.55812725007747 -0.9514728497160058 0
          0.7699849518562528 -0.18158897430477797 0 0.06915866155279024 -0.015047545867921893 0
          4.92738691382347 -2.2202453322935343 0 3.5837950345617964 -0.9637576379788009 0
          0.7890627529848551 -0.18531712991515117 0 0.07094714395569474 -0.01526431144147311 0
          4.865478267444844 -2.2133747608471985 0 3.603363541033302 -1.0032859458760717 0
          0.8547984036283824 -0.2029239951656007 0 0.10021738614088968 -0.01887961936160318 0
          4.58741766492586 -2.180792286658435 0 3.337565807275851 -1.0053609017049645 0
          0.9276322327091266 -0.23732507808304273 0 0.1762923433036613 -0.031511961888657486 0
          -0.8695959796062092 0.665573624624127 0 1.7639800732162865 -0.45657020347769006 0
          0.5897422830515306 -0.16139331419477826 0 0.18898395917475164 -0.04498662115431946 0
          -8.73537668768431 6.536152600615779 0 -3.2986742984746993 2.77225565437044 0
          -0.9596970290128335 0.44754458641731126 0 -0.17936413528376108 0.055233204497341745 0
          <InformationKey name="L2_NORM_RANGE" location="vtkDataArray" length="2">
            <Value index="0">
              0.06717611152
            </Value>
            <Value index="1">
              10.909999849
            </Value>
          </InformationKey>
        </DataArray>
        <DataArray type="Float64" Name="ENRPR" format="ascii" RangeMin="-16.48958221676996" RangeMax="9.381700849371157">
          9.381700849371157 5.668145538921169 9.116495116602865 6.818961110006232 1.167808650147842 1.518568833039738
          9.020761427774115 6.63933020918241 0.27677468131148353 1.4040355353385567 0.2866544031817764 9.024118363383703
          6.584706047159156 0.14806090181038428 1.3665550724112212 0.11546899822869001 9.028194732421042 6.589695411996281
          1.3741903824468562 0.12421029301546746 9.034341435554571 6.607226234284959 1.3796079239681092 0.1239453961201207
          9.028924256239728 6.662399674837494 1.4174436018922494 0.1273545710395141 8.909972327977586 6.710091918303473
          1.5476363159385154 0.18433695795999128 8.368958741478002 6.184158093018161 1.6879492236268725 0.32904662439252386
          -1.4361598525432457 3.1588369110983634 1.0304814449070074 0.34566120127878897 -16.48958221676996 -6.547060443879651
          -1.9513986741466913 -0.35791354272416465
        </DataArray>
      </PointData>
      <CellData>
        <DataArray type="UInt8" Name="vtkGhostType" format="ascii" RangeMin="0" RangeMax="0">
          0 0 0 0 0 0
          0 0 0 0 0 0
          0 0 0 0 0 0
          0 0 0 0 0 0
          0 0 0 0 0 0
          0 0 0 0 0 0
          0 0 0 0 0 0
          0 0 0 0 0 0
          0 0 0 0 0 0
          0 0 0 0 0 0
        </DataArray>
        <DataArray type="Float64" Name="sgvis" format="ascii" RangeMin="0.37495702672050957" RangeMax="0.4872815178843841">
          0.48672668033470323 0.48502388102538063 0.48706051275115203 0.48439966974684034 0.487055474362316 0.4856007143644856
          0.4869932783215092 0.4859240502006881 0.486970129272842 0.48593538380639045 0.48699335954126666 0.4859308439181045
          0.48698297544646685 0.48592127417554876 0.4869460760731268 0.48584330115088803 0.4870216095982103 0.48589698880025756
          0.4872815178843841 0.48665416952756646 0.4813675568247442 0.4732850458263631 0.48329164526002044 0.45471893894590487
          0.48405495571896784 0.45884490888656404 0.4840469237507067 0.46069326139041866 0.4839818967593976 0.4609962782512965
          0.48397368972790067 0.4610052206172386 0.4839724417660207 0.4609942455613961 0.48395450189915756 0.4609693681018354
          0.48424045616667555 0.46121075855901306 0.484741297528276 0.46215741648507824 0.4573496902417492 0.45543633238571973
          0.45479510557344216 0.37495702672050957 0.45683788042463414 0.3765991704790083 0.4574632983667535 0.37725139539062646
          0.45749238793500757 0.3773841729617539 0.4574732204266152 0.37740360452640886 0.45746770186186625 0.3774082880420179
          0.45746570797994746 0.3774023377430714 0.45758323449779914 0.37737191322716324 0.45763790722981146 0.37765218069226536
        </DataArray>
        <DataArray type="Float64" Name="sgtco" format="ascii" RangeMin="0.37495702672050957" RangeMax="0.4872815178843841">
          0.48672668033470323 0.48502388102538063 0.48706051275115203 0.48439966974684034 0.487055474362316 0.4856007143644856
          0.4869932783215092 0.4859240502006881 0.486970129272842 0.48593538380639045 0.48699335954126666 0.4859308439181045
          0.48698297544646685 0.48592127417554876 0.4869460760731268 0.48584330115088803 0.4870216095982103 0.48589698880025756
          0.4872815178843841 0.48665416952756646 0.4813675568247442 0.4732850458263631 0.48329164526002044 0.45471893894590487
          0.48405495571896784 0.45884490888656404 0.4840469237507067 0.46069326139041866 0.4839818967593976 0.4609962782512965
          0.48397368972790067 0.4610052206172386 0.4839724417660207 0.4609942455613961 0.48395450189915756 0.4609693681018354
          0.48424045616667555 0.46121075855901306 0.484741297528276 0.46215741648507824 0.4573496902417492 0.45543633238571973
          0.45479510557344216 0.37495702672050957 0.45683788042463414 0.3765991704790083 0.4574632983667535 0.37725139539062646
          0.45749238793500757 0.3773841729617539 0.4574732204266152 0.37740360452640886 0.45746770186186625 0.3774082880420179
          0.45746570797994746 0.3774023377430714 0.45758323449779914 0.37737191322716324 0.45763790722981146 0.37765218069226536
        </DataArray>
        <DataArray type="Float64" Name="MOSGS" NumberOfComponents="3" format="ascii" RangeMin="0" RangeMax="0.28872672463666604">
          6.92571999493846e-310 6.92571999493846e-310 4.6654196464868e-310 -0.005143847921425752 0.001051222207750467 0
          -0.01649263111698228 0.0016147508222891776 0 -0.013962140479552583 0.004644750522949209 0
          -0.017416663753083185 0.0038640278177196475 0 -0.015234203443480766 0.0038639262201454016 0
          -0.02465968462366612 0.005972599619840139 0 -0.014422650730502418 0.00333835259399642 0
          -0.026883915806071974 0.006442689284224512 0 -0.013634774022820493 0.0032067100924563375 0
          -0.02710745408683477 0.006455411212330902 0 -0.013414621400167508 0.003180120405847413 0
          -0.02691633553338564 0.0063939189193446995 0 -0.013245941801029696 0.003082030431139959 0
          -0.026937536142432342 0.006384936209146451 0 -0.01418991948700105 0.0033008537591056276 0
          -0.02748916773883292 0.006776468596044064 0 -0.016783198542613797 0.004654008829322591 0
          -0.02621242663720423 0.006766995335368318 0 -0.009673178593755197 0.002596745493089009 0
          -0.017435654962534484 0.0037551221957160437 0 0.03305133834568749 -0.011154423241232619 0
          -0.14919520179068624 0.025741127291985924 0 0.0021427497869414835 0.0003316144512566059 0
          -0.05622324203299253 0.006524411941787031 0 -0.011363434068842701 0.0031561824738980306 0
          -0.05778796331361859 0.01195050664502281 0 -0.01410326680160777 0.0031115273279777537 0
          -0.06363945883601513 0.015094397215045676 0 -0.01424152113348251 0.002916552902374657 0
          -0.0649010948173096 0.015507162997099472 0 -0.013924438924198423 0.00280834703650055 0
          -0.0650838804367937 0.015494960214153027 0 -0.01391032141377714 0.002776306824222174 0
          -0.06509562763870053 0.015487920139827908 0 -0.015449756471175788 0.0035029480318405203 0
          -0.06545569923148525 0.015722493427534717 0 -0.01795954331082624 0.004852636926728673 0
          -0.0642719591235915 0.015067141246485834 0 0.0006403951441106559 -0.00001629480404556974 0
          -0.05100535447488279 0.00970827675317374 0 0.1551141412543225 -0.07780595634855866 0
          -0.24481249724637338 0.15306849026305713 0 0.08064879426137363 -0.02728102489370253 0
          0.160188682382003 -0.06694065443008058 0 0.08388877106270523 -0.022526608334260685 0
          0.03753276392515688 -0.005570848616560737 0 0.08218671116272275 -0.019550890005220527 0
          0.03273425393399124 -0.006533189167897039 0 0.08156648506757462 -0.019085285174358223 0
          0.03362497870366632 -0.007645835702387415 0 0.0814074183029358 -0.0190932735851726 0
          0.03431969907204762 -0.007973191153103885 0 0.08132948131124546 -0.01908935780370752 0
          0.03456273431784351 -0.008035176737335347 0 0.08076580856025756 -0.018761200858099965 0
          0.03460708427631086 -0.008082513999852927 0 0.08415324406858812 -0.019849337384548478 0
          0.033182621862956854 -0.007451269665402221 0 0.10631813287953921 -0.027734879019397158 0
          0.030375083817283332 -0.005350797282733214 0
          <InformationKey name="L2_NORM_RANGE" location="vtkDataArray" length="2">
            <Value index="0">
              0
            </Value>
            <Value index="1">
              0.28872672464
            </Value>
          </InformationKey>
        </DataArray>
        <DataArray type="Float64" Name="CORES" format="ascii" RangeMin="-3.7873414634146334" RangeMax="2.210627326889222">
          0.04023733466059909 -0.15703232427840064 0.06405724601166704 0.09482179202100446 0.037800921422531 0.074836140931934
          0.024325153242851442 0.03824842979321938 0.023497331488771422 0.02533243457950769 0.024214332301887073 0.02403214574935742
          0.024542855019922705 0.023310565220165072 0.0229602208619486 0.021063626060429056 0.023504359736898014 0.03812778048030312
          0.04741838920093411 0.08493884511295928 0.3688818146296855 -1.2576156530526363 0.577622921505343 0.36283287576123224
          0.5507268773451841 0.5615002184977378 0.5172447750362137 0.5318378117413327 0.5052428547002128 0.5113242581883004
          0.5039213048164433 0.5049067049891788 0.503108566622843 0.5034313175554634 0.49865518911551465 0.5031606005297639
          0.5021044981667728 0.5283064335166436 0.5270773540305083 0.5823280394141268 0.7383748944264079 -3.7873414634146334
          1.8364015564641143 1.9959905474790438 2.0579008117059487 1.9994828196109684 2.0678250457942777 2.0394271367441874
          2.058550136596984 2.051498702624297 2.054053929275624 2.053413721895709 2.052272105783839 2.0535012046524868
          2.050993162736865 2.053092351940525 2.0926426315793867 2.0520079021826816 2.210627326889222 2.066790176162133
        </DataArray>
        <DataArray type="Float64" Name="MORES" NumberOfComponents="3" format="ascii" RangeMin="0.06213368735908084" RangeMax="10.663540277456168">
          0.11074297116494819 -0.032172688460228346 0 -0.4692553012470494 0.14191300287674147 0
          0.1895619938775504 -0.024310210102787933 0 0.26626410984942606 -0.08077841615778322 0
          0.11388313723254234 -0.017678150103944842 0 0.22538666337242602 -0.053702914238264086 0
          0.07092339352547183 -0.015483018936259358 0 0.11584984561052022 -0.02414783648409676 0
          0.06782060609074846 -0.01523702084055949 0 0.07408427960330627 -0.015643029619452735 0
          0.07013653427906047 -0.015304630234545626 0 0.06950005292956732 -0.015165685121649515 0
          0.07079903745836387 -0.015475076065833869 0 0.06707914537943585 -0.014127296138209483 0
          0.06534075210402394 -0.015624656173348614 0 0.06150488742422873 -0.008817251712917851 0
          0.06830774506320347 -0.013557065670317142 0 0.11463913646909815 -0.024940345851399984 0
          0.14511931818305668 -0.036414879550578594 0 0.24234315451938526 -0.07805271817519677 0
          1.0365143707265938 -0.24972297943795907 0 -3.456531182546054 1.3737988606905605 0
          1.653736889201395 -0.4618365297396192 0 0.8752307206848379 -0.42214082467574154 0
          1.596227466015625 -0.42597027006592014 0 1.5728976215574293 -0.5314448871723827 0
          1.4960819238668028 -0.396252854319736 0 1.5269601894560443 -0.44967763195615756 0
          1.4568590603289286 -0.3884231907372756 0 1.4680894117940073 -0.4193115311663179 0
          1.452191328101239 -0.38808138565907085 0 1.4471784108258057 -0.41349170653615375 0
          1.4494987593724002 -0.3870802436468165 0 1.4423357062681927 -0.4121932368817742 0
          1.43753956343404 -0.3805662427536528 0 1.443200085867315 -0.41061465448984646 0
          1.4521060820293177 -0.38848151278313603 0 1.513448043711471 -0.44637879303707256 0
          1.5188834681544234 -0.4207344091696794 0 1.6000787175423612 -0.5274746830849539 0
          1.8452496246675296 -0.32619779040077734 0 -8.740993384852827 6.107874089639463 0
          4.6323322693712194 -1.6871738603184891 0 5.005122250682149 -1.9788017807462592 0
          5.392989881852979 -1.7978518331035693 0 5.028000631508533 -1.9149218618054578 0
          5.466526996305756 -1.7353926899259116 0 5.133534836274821 -1.9460601092159466 0
          5.44202692691228 -1.7101474443806945 0 5.166626746772177 -1.9572554198462013 0
          5.426941045587717 -1.705371623910613 0 5.17217528472818 -1.9594780155483715 0
          5.4212386398444306 -1.7039159127986974 0 5.172484308035412 -1.9596619976989034 0
          5.419508323640726 -1.7012534724147828 0 5.171266617437444 -1.9594115036460045 0
          5.536374329434622 -1.7478822091443815 0 5.168705307844078 -1.9576175584906381 0
          5.7953423829284265 -1.883596263358855 0 5.211646122731225 -1.9671040413089846 0
          <InformationKey name="L2_NORM_RANGE" location="vtkDataArray" length="2">
            <Value index="0">
              0.062133687359
            </Value>
            <Value index="1">
              10.663540277
            </Value>
          </InformationKey>
        </DataArray>
        <DataArray type="Float64" Name="ENRES" format="ascii" RangeMin="-16.13416959782466" RangeMax="10.698044816544664">
          0.18850770443367976 -0.9029007611837725 0.34936464775562515 0.50018579202075 0.21030391002003196 0.4284119055718195
          0.1275074528673127 0.21576859978470814 0.12137691323359992 0.13358166552826028 0.12618608642077633 0.12465058725419675
          0.1269678064439727 0.11986512841715852 0.11308166343673279 0.10680646615387088 0.1210650410708766 0.21037346401215612
          0.2768101120230914 0.46215637207772964 1.8552073962550062 -6.735317917537628 3.043068276156948 1.5184741902871264
          2.933818069376569 2.9304080132322525 2.7344427543667535 2.835401035891735 2.656157531509808 2.711289982763292
          2.647102578185803 2.6682311719187637 2.6419716698345237 2.6586934376493954 2.617171896957639 2.6599880501894573
          2.648866026372258 2.797298644207478 2.789471499663673 2.947589395737042 3.060811649735813 -16.13416959782466
          8.445340820473303 9.222281714426817 9.98264621272359 9.236053499554554 10.114843842512816 9.431282388173774
          10.055119658261546 9.49456192362863 10.022744819795117 9.50566842352343 10.0115880547979 9.506383985240184
          10.008051472417527 9.50411850610132 10.231257810541923 9.498937808613164 10.698044816544664 9.578213552399918
        </DataArray>
      </CellData>
      <Points>
        <DataArray type="Float32" Name="Points" NumberOfComponents="3" format="ascii" RangeMin="0" RangeMax="4.2201894765504395">
          4.099999904632568 1 0 4.099999904632568 0.6666666865348816 0
          3.690000057220459 1 0 3.690000057220459 0.6666666865348816 0
          4.099999904632568 0.3333333134651184 0 3.690000057220459 0.3333333134651184 0
          3.2799999713897705 1 0 3.2799999713897705 0.6666666865348816 0
          4.099999904632568 0 0 3.2799999713897705 0.3333333134651184 0
          3.690000057220459 0 0 2.869999885559082 1 0
          2.869999885559082 0.6666666865348816 0 3.2799999713897705 0 0
          2.869999885559082 0.3333333134651184 0 2.869999885559082 0 0
          2.4600000381469727 1 0 2.4600000381469727 0.6666666865348816 0
          2.4600000381469727 0.3333333134651184 0 2.4600000381469727 0 0
          2.049999952316284 1 0 2.049999952316284 0.6666666865348816 0
          2.049999952316284 0.3333333134651184 0 2.049999952316284 0 0
          1.6399999856948853 1 0 1.6399999856948853 0.6666666865348816 0
          1.6399999856948853 0.3333333134651184 0 1.6399999856948853 0 0
          1.2300000190734863 1 0 1.2300000190734863 0.6666666865348816 0
          1.2300000190734863 0.3333333134651184 0 1.2300000190734863 0 0
          0.8199999928474426 1 0 0.8199999928474426 0.6666666865348816 0
          0.8199999928474426 0.3333333134651184 0 0.8199999928474426 0 0
          0.4099999964237213 1 0 0.4099999964237213 0.6666666865348816 0
          0.4099999964237213 0.3333333134651184 0 0.4099999964237213 0 0
          0 1 0 0 0.6666666865348816 0
          0 0.3333333134651184 0 0 0 0
          <InformationKey name="L2_NORM_RANGE" location="vtkDataArray" length="2">
            <Value index="0">
              0
            </Value>
            <Value index="1">
              4.2201894766
            </Value>
          </InformationKey>
        </DataArray>
      </Points>
      <Cells>
        <DataArray type="Int64" Name="connectivity" format="ascii" RangeMin="0" RangeMax="43">
          39 38 43 38 42 43
          35 34 39 34 38 39
          31 30 35 30 34 35
          27 26 31 26 30 31
          23 22 27 22 26 27
          19 18 23 18 22 23
          15 14 19 14 18 19
          13 9 15 9 14 15
          10 5 13 5 9 13
          8 4 10 4 5 10
          38 37 42 37 41 42
          34 33 38 33 37 38
          30 29 34 29 33 34
          26 25 30 25 29 30
          22 21 26 21 25 26
          18 17 22 17 21 22
          14 12 18 12 17 18
          9 7 14 7 12 14
          5 3 9 3 7 9
          4 1 5 1 3 5
          37 36 41 36 40 41
          33 32 37 32 36 37
          29 28 33 28 32 33
          25 24 29 24 28 29
          21 20 25 20 24 25
          17 16 21 16 20 21
          12 11 17 11 16 17
          7 6 12 6 11 12
          3 2 7 2 6 7
          1 0 3 0 2 3
        </DataArray>
        <DataArray type="Int64" Name="offsets" format="ascii" RangeMin="3" RangeMax="180">
          3 6 9 12 15 18
          21 24 27 30 33 36
          39 42 45 48 51 54
          57 60 63 66 69 72
          75 78 81 84 87 90
          93 96 99 102 105 108
          111 114 117 120 123 126
          129 132 135 138 141 144
          147 150 153 156 159 162
          165 168 171 174 177 180
        </DataArray>
        <DataArray type="UInt8" Name="types" format="ascii" RangeMin="5" RangeMax="5">
          5 5 5 5 5 5
          5 5 5 5 5 5
          5 5 5 5 5 5
          5 5 5 5 5 5
          5 5 5 5 5 5
          5 5 5 5 5 5
          5 5 5 5 5 5
          5 5 5 5 5 5
          5 5 5 5 5 5
          5 5 5 5 5 5
        </DataArray>
      </Cells>
    </Piece>
  </UnstructuredGrid>
</VTKFile>
