<?xml version="1.0"?>
<VTKFile type="UnstructuredGrid" version="0.1" byte_order="LittleEndian" header_type="UInt32" compressor="vtkZLibDataCompressor">
  <UnstructuredGrid>
    <Piece NumberOfPoints="44" NumberOfCells="60">
      <PointData>
      </PointData>
      <CellData>
        <DataArray type="UInt8" Name="vtkGhostType" format="ascii" RangeMin="0" RangeMax="0">
          0 0 0 0 0 0
          0 0 0 0 0 0
          0 0 0 0 0 0
          0 0 0 0 0 0
          0 0 0 0 0 0
          0 0 0 0 0 0
          0 0 0 0 0 0
          0 0 0 0 0 0
          0 0 0 0 0 0
          0 0 0 0 0 0
        </DataArray>
        <DataArray type="Float64" Name="CORES" format="ascii" RangeMin="-3.7873414634146334" RangeMax="1.837786698567821">
          -0.035395249093370246 -0.169340600282732 -0.035395249093370246 -0.10171188311736955 -0.035395249093370246 -0.10171188311736962
          -0.035395249093370246 -0.10171188311736945 -0.035395249093370246 -0.10171188311736945 -0.035395249093370246 -0.10171188311736948
          -0.035395249093370246 -0.10171188311736953 -0.035395249093370246 -0.1017118831173694 -0.022538729927228933 -0.03720206166138271
          -0.061714015614615786 -0.2623729541658266 0.0020717537057578506 -1.4308849517676878 -0.0631202812796543 -0.8358473674436053
          -0.06312028127965519 -0.5273097136285466 -0.06312028127965519 -0.527309713628547 -0.06312028127965519 -0.5273097136285466
          -0.06312028127965519 -0.5273097136285466 -0.06312028127965519 -0.5273097136285466 -0.06312028127965519 -0.5273097136285486
          0.0002825476076302458 -0.5808183504260944 -0.14760940695217728 -0.8269421163766697 0.6779065908005903 -3.7873414634146334
          0.7392417087268756 1.837786698567821 0.8901775073896461 1.420683573762537 0.8901775073896461 1.420683573762537
          0.8901775073896461 1.4206835737625367 0.8901775073896461 1.4206835737625367 0.8901775073896461 1.4206835737625367
          0.8901775073896443 1.420683573762537 0.8296360355990182 1.420683573762536 0.43434735983773376 1.3946103251430593
        </DataArray>
        <DataArray type="Float64" Name="MORES" NumberOfComponents="3" format="ascii" RangeMin="0.060330966400835025" RangeMax="10.464034286801086">
          -0.10161116873824655 0.027151877193153665 0 -0.5041274081617345 0.11957503418788687 0
          -0.10161116873824655 0.02715187719315356 0 -0.2928943537753172 0.07366100454080213 0
          -0.10161116873824655 0.027151877193153803 0 -0.29289435377531736 0.07366100454080281 0
          -0.10161116873824538 0.027151877193153803 0 -0.2928943537753146 0.07366100454080265 0
          -0.10161116873824538 0.027151877193153776 0 -0.29289435377531453 0.07366100454080263 0
          -0.10161116873824655 0.027151877193153713 0 -0.292894353775317 0.07366100454080246 0
          -0.10161116873824655 0.02715187719315386 0 -0.29289435377531714 0.0736610045408029 0
          -0.10161116873824655 0.027151877193153665 0 -0.2928943537753168 0.07366100454080227 0
          -0.057577776609471054 0.018017356841904756 0 -0.08264366163727871 0.03154933684544814 0
          -0.18603662357536704 0.048109745820905186 0 -0.8012090847034078 0.18225780064407 0
          0.11293358127403419 0.026764020959244877 0 -3.8730011202925727 1.33857763932165 0
          -0.07425906902375345 0.11765384069205809 0 -2.2822683227422313 0.7596963964960712 0
          -0.07425906902375501 0.11765384069206081 0 -1.3129674957097093 0.4978777340655895 0
          -0.07425906902375612 0.11765384069205964 0 -1.3129674957097082 0.497877734065593 0
          -0.07425906902375612 0.11765384069205986 0 -1.3129674957097082 0.4978777340655912 0
          -0.07425906902375745 0.11765384069205942 0 -1.3129674957097082 0.49787773406559105 0
          -0.07425906902375545 0.1176538406920612 0 -1.3129674957097008 0.4978777340655904 0
          -0.07425906902375812 0.11765384069206142 0 -1.312967495709718 0.49787773406559127 0
          0.12431510677456048 0.07219864909570128 0 -1.4946065826969428 0.5251462755477669 0
          -0.33175605114718754 0.19201528549478603 0 -2.1978814349409284 0.7662260566656897 0
          1.826834361565727 -0.2856012588913117 0 -8.725482841436236 5.775981539024389 0
          1.810357695977453 -0.5350765822648497 0 4.702662128489241 -1.7742478539622604 0
          2.3046967919954375 -0.6956556281636745 0 3.4842000715645978 -1.3993702169058284 0
          2.3046967919954304 -0.6956556281636705 0 3.4842000715645955 -1.39937021690583 0
          2.3046967919954295 -0.6956556281636707 0 3.4842000715645947 -1.3993702169058277 0
          2.304696791995435 -0.6956556281636708 0 3.4842000715645973 -1.3993702169058266 0
          2.3046967919954398 -0.6956556281636701 0 3.4842000715645973 -1.3993702169058269 0
          2.3046967919954233 -0.6956556281636717 0 3.4842000715646 -1.3993702169058277 0
          2.1025742623560006 -0.6605742087197661 0 3.484200071564592 -1.3993702169058273 0
          0.963488220015424 -0.304908089755455 0 3.39815051835811 -1.381294270947234 0
          <InformationKey name="L2_NORM_RANGE" location="vtkDataArray" length="2">
            <Value index="0">
              0.060330966401
            </Value>
            <Value index="1">
              10.464034287
            </Value>
          </InformationKey>
        </DataArray>
        <DataArray type="Float64" Name="ENRES" format="ascii" RangeMin="-15.755660713786629" RangeMax="8.712683060967686">
          -0.18630049969374018 -0.9333928781091659 -0.18630049969374018 -0.5338560218007081 -0.18630049969374018 -0.5338560218007085
          -0.18630049969374163 -0.533856021800717 -0.18630049969374163 -0.533856021800717 -0.18630049969374018 -0.5338560218007143
          -0.18630049969374018 -0.5338560218007147 -0.18630049969374352 -0.5338560218007075 -0.09695905932361226 -0.12307672065569397
          -0.35033666990212076 -1.5055845365275142 0.22886941325981436 -7.288835701584197 -0.17139180495453132 -4.35506932742013
          -0.17139180495452955 -2.4348842440593432 -0.171391804954526 -2.4348842440593548 -0.171391804954526 -2.4348842440593494
          -0.1713918049545251 -2.434884244059343 -0.17139180495451756 -2.4348842440593392 -0.17139180495453665 -2.4348842440593583
          0.20814041916076764 -2.7958552884615044 -0.6624619939986482 -4.121522037176148 3.161978244810335 -15.755660713786629
          3.173078192536951 8.712683060967686 4.209079196410771 6.368817511081231 4.209079196410748 6.368817511081243
          4.209079196410752 6.368817511081237 4.209079196410745 6.368817511081237 4.209079196410757 6.368817511081237
          4.2090791964107375 6.3688175110812475 3.8088922508860734 6.36881751108123 1.6665031811478999 6.198626309691612
        </DataArray>
      </CellData>
      <Points>
        <DataArray type="Float32" Name="Points" NumberOfComponents="3" format="ascii" RangeMin="0" RangeMax="4.2201894765504395">
          4.099999904632568 1 0 4.099999904632568 0.6666666865348816 0
          3.690000057220459 1 0 3.690000057220459 0.6666666865348816 0
          4.099999904632568 0.3333333134651184 0 3.690000057220459 0.3333333134651184 0
          3.2799999713897705 1 0 3.2799999713897705 0.6666666865348816 0
          4.099999904632568 0 0 3.2799999713897705 0.3333333134651184 0
          3.690000057220459 0 0 2.869999885559082 1 0
          2.869999885559082 0.6666666865348816 0 3.2799999713897705 0 0
          2.869999885559082 0.3333333134651184 0 2.869999885559082 0 0
          2.4600000381469727 1 0 2.4600000381469727 0.6666666865348816 0
          2.4600000381469727 0.3333333134651184 0 2.4600000381469727 0 0
          2.049999952316284 1 0 2.049999952316284 0.6666666865348816 0
          2.049999952316284 0.3333333134651184 0 2.049999952316284 0 0
          1.6399999856948853 1 0 1.6399999856948853 0.6666666865348816 0
          1.6399999856948853 0.3333333134651184 0 1.6399999856948853 0 0
          1.2300000190734863 1 0 1.2300000190734863 0.6666666865348816 0
          1.2300000190734863 0.3333333134651184 0 1.2300000190734863 0 0
          0.8199999928474426 1 0 0.8199999928474426 0.6666666865348816 0
          0.8199999928474426 0.3333333134651184 0 0.8199999928474426 0 0
          0.4099999964237213 1 0 0.4099999964237213 0.6666666865348816 0
          0.4099999964237213 0.3333333134651184 0 0.4099999964237213 0 0
          0 1 0 0 0.6666666865348816 0
          0 0.3333333134651184 0 0 0 0
          <InformationKey name="L2_NORM_RANGE" location="vtkDataArray" length="2">
            <Value index="0">
              0
            </Value>
            <Value index="1">
              4.2201894766
            </Value>
          </InformationKey>
        </DataArray>
      </Points>
      <Cells>
        <DataArray type="Int64" Name="connectivity" format="ascii" RangeMin="0" RangeMax="43">
          39 38 43 38 42 43
          35 34 39 34 38 39
          31 30 35 30 34 35
          27 26 31 26 30 31
          23 22 27 22 26 27
          19 18 23 18 22 23
          15 14 19 14 18 19
          13 9 15 9 14 15
          10 5 13 5 9 13
          8 4 10 4 5 10
          38 37 42 37 41 42
          34 33 38 33 37 38
          30 29 34 29 33 34
          26 25 30 25 29 30
          22 21 26 21 25 26
          18 17 22 17 21 22
          14 12 18 12 17 18
          9 7 14 7 12 14
          5 3 9 3 7 9
          4 1 5 1 3 5
          37 36 41 36 40 41
          33 32 37 32 36 37
          29 28 33 28 32 33
          25 24 29 24 28 29
          21 20 25 20 24 25
          17 16 21 16 20 21
          12 11 17 11 16 17
          7 6 12 6 11 12
          3 2 7 2 6 7
          1 0 3 0 2 3
        </DataArray>
        <DataArray type="Int64" Name="offsets" format="ascii" RangeMin="3" RangeMax="180">
          3 6 9 12 15 18
          21 24 27 30 33 36
          39 42 45 48 51 54
          57 60 63 66 69 72
          75 78 81 84 87 90
          93 96 99 102 105 108
          111 114 117 120 123 126
          129 132 135 138 141 144
          147 150 153 156 159 162
          165 168 171 174 177 180
        </DataArray>
        <DataArray type="UInt8" Name="types" format="ascii" RangeMin="5" RangeMax="5">
          5 5 5 5 5 5
          5 5 5 5 5 5
          5 5 5 5 5 5
          5 5 5 5 5 5
          5 5 5 5 5 5
          5 5 5 5 5 5
          5 5 5 5 5 5
          5 5 5 5 5 5
          5 5 5 5 5 5
          5 5 5 5 5 5
        </DataArray>
      </Cells>
    </Piece>
  </UnstructuredGrid>
</VTKFile>
