<?xml version="1.0"?>
<VTKFile type="UnstructuredGrid" version="0.1" byte_order="LittleEndian" header_type="UInt32" compressor="vtkZLibDataCompressor">
  <UnstructuredGrid>
    <Piece NumberOfPoints="44" NumberOfCells="60">
      <PointData>
      </PointData>
      <CellData>
        <DataArray type="UInt8" Name="vtkGhostType" format="ascii" RangeMin="0" RangeMax="0">
          0 0 0 0 0 0
          0 0 0 0 0 0
          0 0 0 0 0 0
          0 0 0 0 0 0
          0 0 0 0 0 0
          0 0 0 0 0 0
          0 0 0 0 0 0
          0 0 0 0 0 0
          0 0 0 0 0 0
          0 0 0 0 0 0
        </DataArray>
        <DataArray type="Float64" Name="CORES" format="ascii" RangeMin="-3.7873414634146334" RangeMax="1.8909884878646461">
          0.27613236296499305 -0.2361597953918539 0.12919830758941162 -0.5287937848895653 -0.0067366455795078856 -0.47386357421136927
          -0.04263721327675943 -0.31644442610471024 -0.03476747466407665 -0.1852074260239037 -0.02168839910183218 -0.1072273340642283
          0.0051642197036443835 -0.058504575311436595 0.026291425631877148 -0.017298534290739014 0.19369600456326516 -0.02382513381069954
          -0.5756723858261712 -0.501224714624329 0.379525001586852 -1.7303144865527287 0.30467011213090234 -0.7371434699415033
          0.19534279504258853 -0.06486977386231221 0.1055109525024286 0.25512922809070526 0.05778418197393856 0.33279888320756923
          0.04479072870068601 0.3090300888010838 0.06475059828651508 0.2651212137884823 0.09982288180928323 0.2376990799743211
          0.13008863774111143 0.23060988153685638 -0.32043205139384867 0.03209647844339655 0.17512654157094149 -3.7873414634146334
          -0.031644009554520784 1.8909884878646461 -0.09833976359608533 1.2787055309271762 -0.12274732075938982 0.8024371160783362
          -0.1413167622115365 0.4906957906349888 -0.1483213677860187 0.3147232217815958 -0.14038119402115554 0.21745592222034307
          -0.13103240411726508 0.15896956202634616 -0.15422967529585024 0.12864889868039203 -0.5398296477053848 0.10853457982804471
        </DataArray>
        <DataArray type="Float64" Name="MORES" NumberOfComponents="3" format="ascii" RangeMin="0.007964686001669727" RangeMax="10.464034286801086">
          0.7746737522369425 -0.08094888018989477 0 -0.7227898347478828 0.10887088013895391 0
          0.39664832175367304 -0.18488913486064437 0 -1.4703973926606912 0.49155101797068934 0
          0.04304381907773458 -0.23846983563032495 0 -1.2943541124717788 0.5837322692197142 0
          -0.07259363795956389 -0.24135828491467828 0 -0.8573146740588472 0.4660938272102012 0
          -0.07559168374278138 -0.2245262119682327 0 -0.49237073696436773 0.28434058531683604 0
          -0.04852756601804453 -0.2102116633889665 0 -0.2737251863859943 0.14147853548782158 0
          0.04242000457805106 -0.200154478413394 0 -0.12692833766728237 0.055078121480398395 0
          0.14143805628392678 -0.19303396783288612 0 0.007885293727971657 0.0011217691067258728 0
          0.5736966834668862 -0.22354094992840937 0 -0.04920344578089117 -0.033506119689196145 0
          -1.707954550362127 0.4537858843647755 0 -1.417220606168391 0.3327119184102204 0
          1.0383237847386753 -0.4117352279523365 0 -4.5137129444999475 1.5693537660754306 0
          0.9043956865495922 -0.29559683949012383 0 -1.8496133006493616 0.7153439064302021 0
          0.5975190520760812 -0.21767361456468048 0 -0.10842226696016194 0.059344714996092424 0
          0.30227730529212404 -0.1983054233948399 0 0.733487680747672 -0.30964572570311993 0
          0.12695821651442316 -0.21309950836688787 0 0.9570790763511581 -0.45033985354134676 0
          0.07369289117542432 -0.2364576283595765 0 0.894948032505472 -0.47340814262677117 0
          0.1426656572359135 -0.2600949441245981 0 0.7590149732154947 -0.457646483813421 0
          0.26095690457483856 -0.2936906631217802 0 0.6710847439699298 -0.4422320282943548 0
          0.2999137581837336 -0.35565176577481883 0 0.6398416431107888 -0.4188956581100489 0
          -0.9949824731293632 0.020067691479027816 0 0.18022943234600547 -0.1921989124685599 0
          0.5923069890380785 0.10800628644552013 0 -8.725482841436236 5.775981539024389 0
          -0.1412280372718279 0.23823858561793662 0 4.788875443943738 -1.7789540852984103 0
          -0.3997554212079588 0.3490839117580779 0 3.1785621890952838 -1.1786697642301966 0
          -0.505831844589351 0.3767176772242256 0 1.941972613880608 -0.6922988314162313 0
          -0.5782146369889238 0.3570023035484219 0 1.121865390079109 -0.3475409157818664 0
          -0.6073350716282944 0.3343031908497722 0 0.6389245413836122 -0.13178180184801883 0
          -0.5818557489001321 0.32528378678930747 0 0.3471856835373696 -0.012510186027034714 0
          -0.5467920153695065 0.3273796550633025 0 0.15610047671016086 0.049571068628342096 0
          -0.62046127312565 0.3743095721794267 0 0.055518350907824254 0.0801386406728555 0
          -1.5706172228380904 0.8063291471923407 0 -0.00509145810894035 0.10384896802353905 0
          <InformationKey name="L2_NORM_RANGE" location="vtkDataArray" length="2">
            <Value index="0">
              0.0079646860017
            </Value>
            <Value index="1">
              10.464034287
            </Value>
          </InformationKey>
        </DataArray>
        <DataArray type="Float64" Name="ENRES" format="ascii" RangeMin="-15.755660713786629" RangeMax="8.827829845496044">
          1.441374261534683 -1.2777191414551266 0.8191079300917923 -2.733492240640014 0.15117304475807558 -2.506900941425329
          -0.1374443607453278 -1.7261711939706488 -0.19956341324748095 -1.0318119387157256 -0.16791853317966726 -0.6039925664786443
          0.013512912721283299 -0.3066487940993649 0.2315787252430782 -0.026185565458080845 1.0232221394890735 -0.1507000296927074
          -3.320562401747896 -2.8013179185499975 1.9413418303390637 -8.404892054219982 1.7115001294906327 -3.510694823746948
          1.1653600402932058 -0.2088123567738084 0.62111441339494 1.4746315135828523 0.28953026491211387 1.9815552925309827
          0.19551701286232537 1.8970762557880163 0.3496726510102318 1.6362716648371567 0.6003179619001215 1.4639829276374623
          0.652336297273209 1.3930074050175465 -1.8503205616528091 0.5468103003028908 0.9885004186610147 -15.755660713786629
          -0.37539316332482797 8.827829845496044 -0.9509503264541505 5.8077889516085435 -1.2170390629483354 3.460205347066875
          -1.3858053766468656 1.8792214188383944 -1.454843646387166 0.9228109531952734 -1.4083670827747397 0.3236044313884687
          -1.3374388162417887 -0.0779253761742218 -1.4956037714735109 -0.28987598621694277 -3.297353188297351 -0.4150815479199652
        </DataArray>
      </CellData>
      <Points>
        <DataArray type="Float32" Name="Points" NumberOfComponents="3" format="ascii" RangeMin="0" RangeMax="4.2201894765504395">
          4.099999904632568 1 0 4.099999904632568 0.6666666865348816 0
          3.690000057220459 1 0 3.690000057220459 0.6666666865348816 0
          4.099999904632568 0.3333333134651184 0 3.690000057220459 0.3333333134651184 0
          3.2799999713897705 1 0 3.2799999713897705 0.6666666865348816 0
          4.099999904632568 0 0 3.2799999713897705 0.3333333134651184 0
          3.690000057220459 0 0 2.869999885559082 1 0
          2.869999885559082 0.6666666865348816 0 3.2799999713897705 0 0
          2.869999885559082 0.3333333134651184 0 2.869999885559082 0 0
          2.4600000381469727 1 0 2.4600000381469727 0.6666666865348816 0
          2.4600000381469727 0.3333333134651184 0 2.4600000381469727 0 0
          2.049999952316284 1 0 2.049999952316284 0.6666666865348816 0
          2.049999952316284 0.3333333134651184 0 2.049999952316284 0 0
          1.6399999856948853 1 0 1.6399999856948853 0.6666666865348816 0
          1.6399999856948853 0.3333333134651184 0 1.6399999856948853 0 0
          1.2300000190734863 1 0 1.2300000190734863 0.6666666865348816 0
          1.2300000190734863 0.3333333134651184 0 1.2300000190734863 0 0
          0.8199999928474426 1 0 0.8199999928474426 0.6666666865348816 0
          0.8199999928474426 0.3333333134651184 0 0.8199999928474426 0 0
          0.4099999964237213 1 0 0.4099999964237213 0.6666666865348816 0
          0.4099999964237213 0.3333333134651184 0 0.4099999964237213 0 0
          0 1 0 0 0.6666666865348816 0
          0 0.3333333134651184 0 0 0 0
          <InformationKey name="L2_NORM_RANGE" location="vtkDataArray" length="2">
            <Value index="0">
              0
            </Value>
            <Value index="1">
              4.2201894766
            </Value>
          </InformationKey>
        </DataArray>
      </Points>
      <Cells>
        <DataArray type="Int64" Name="connectivity" format="ascii" RangeMin="0" RangeMax="43">
          39 38 43 38 42 43
          35 34 39 34 38 39
          31 30 35 30 34 35
          27 26 31 26 30 31
          23 22 27 22 26 27
          19 18 23 18 22 23
          15 14 19 14 18 19
          13 9 15 9 14 15
          10 5 13 5 9 13
          8 4 10 4 5 10
          38 37 42 37 41 42
          34 33 38 33 37 38
          30 29 34 29 33 34
          26 25 30 25 29 30
          22 21 26 21 25 26
          18 17 22 17 21 22
          14 12 18 12 17 18
          9 7 14 7 12 14
          5 3 9 3 7 9
          4 1 5 1 3 5
          37 36 41 36 40 41
          33 32 37 32 36 37
          29 28 33 28 32 33
          25 24 29 24 28 29
          21 20 25 20 24 25
          17 16 21 16 20 21
          12 11 17 11 16 17
          7 6 12 6 11 12
          3 2 7 2 6 7
          1 0 3 0 2 3
        </DataArray>
        <DataArray type="Int64" Name="offsets" format="ascii" RangeMin="3" RangeMax="180">
          3 6 9 12 15 18
          21 24 27 30 33 36
          39 42 45 48 51 54
          57 60 63 66 69 72
          75 78 81 84 87 90
          93 96 99 102 105 108
          111 114 117 120 123 126
          129 132 135 138 141 144
          147 150 153 156 159 162
          165 168 171 174 177 180
        </DataArray>
        <DataArray type="UInt8" Name="types" format="ascii" RangeMin="5" RangeMax="5">
          5 5 5 5 5 5
          5 5 5 5 5 5
          5 5 5 5 5 5
          5 5 5 5 5 5
          5 5 5 5 5 5
          5 5 5 5 5 5
          5 5 5 5 5 5
          5 5 5 5 5 5
          5 5 5 5 5 5
          5 5 5 5 5 5
        </DataArray>
      </Cells>
    </Piece>
  </UnstructuredGrid>
</VTKFile>
