<?xml version="1.0"?>
<VTKFile type="UnstructuredGrid" version="0.1" byte_order="LittleEndian" header_type="UInt32" compressor="vtkZLibDataCompressor">
  <UnstructuredGrid>
    <Piece NumberOfPoints="44" NumberOfCells="60">
      <PointData>
      </PointData>
      <CellData>
        <DataArray type="UInt8" Name="vtkGhostType" format="ascii" RangeMin="0" RangeMax="0">
          0 0 0 0 0 0
          0 0 0 0 0 0
          0 0 0 0 0 0
          0 0 0 0 0 0
          0 0 0 0 0 0
          0 0 0 0 0 0
          0 0 0 0 0 0
          0 0 0 0 0 0
          0 0 0 0 0 0
          0 0 0 0 0 0
        </DataArray>
        <DataArray type="Float64" Name="CORES" format="ascii" RangeMin="-3.7873414634146334" RangeMax="1.86316194832621">
          0.04755908996584062 -0.19345751217089147 -0.06297571934034563 -0.3413752066884209 -0.07205467368644095 -0.3306645008704261
          -0.07205467368644172 -0.22485942013505683 -0.07205467368644083 -0.22485942013506066 -0.07205467368644083 -0.2248594201350588
          -0.07665693981473093 -0.2223064963871238 -0.07926701844711984 -0.21156442899702535 -0.01636967503574252 -0.18736482188570053
          -0.10093596032216953 -0.45456650816178096 0.25522569236680315 -1.6138662717968635 0.18852796664629096 -0.7005636162874224
          0.14932926412270942 -0.31467361861952353 0.17733869005377179 -0.18342578478866448 0.17733869005376834 -0.08837475990147742
          0.17733869005376912 -0.08837475990148094 0.18002431952755382 -0.08906595327173622 0.19528061544443093 -0.09609701566174109
          0.24807833244849037 -0.13775613799800876 0.04566745495439156 -0.460968397349991 0.35962324510316557 -3.7873414634146334
          0.34154202398539535 1.86316194832621 0.34580964825585714 1.3216994228027228 0.3980242873946875 1.0237112974554299
          0.45203724063447553 0.9094104204438824 0.45203724063447204 0.909410420443883 0.45125744501500653 0.9094104204438824
          0.44166195998635915 0.9090773432047118 0.3808814921031025 0.9061982443850634 -0.13072939241286885 0.8893350737294753
        </DataArray>
        <DataArray type="Float64" Name="MORES" NumberOfComponents="3" format="ascii" RangeMin="0.04840986533541228" RangeMax="10.464034286801086">
          0.16536336822628675 -0.02503712140936659 0 -0.5391074627414649 0.12499521835584115 0
          -0.17062542598874486 0.0013202977265796 0 -0.9807697978868644 0.2980184927075092 0
          -0.20052473985137959 0.03817018480686607 0 -0.9776542331356667 0.2571209162847354 0
          -0.20052473985138675 0.03817018480686671 0 -0.6353043826189249 0.18489762711186386 0
          -0.20052473985138447 0.03817018480686546 0 -0.6353043826189428 0.1848976271118661 0
          -0.20052473985138525 0.03817018480686707 0 -0.6353043826189353 0.1848976271118646 0
          -0.21628308746971514 0.038554783328012765 0 -0.6265092562667085 0.18377892443034138 0
          -0.21850301153585067 0.04080999846382219 0 -0.5895484644390154 0.17725673915659904 0
          -0.03682971500859644 0.03141794318822155 0 -0.5288981754116902 0.13698553627020263 0
          -0.25729204809406503 0.1256875372297784 0 -1.3383267685790905 0.3787424170389846 0
          0.8059060977240061 -0.24221446228763405 0 -4.290035763514928 1.487373354399244 0
          0.6446858424388809 -0.1326101362769902 0 -1.8497893068109899 0.715885625448027 0
          0.5061306400542006 -0.10283220194567633 0 -0.7914132118069783 0.29394351277218356 0
          0.5980980258201549 -0.12408061495447459 0 -0.40277666166107073 0.135558552027226 0
          0.5980980258201438 -0.12408061495447228 0 -0.09267477069549657 0.057905409201883945 0
          0.5980980258201404 -0.12408061495447284 0 -0.09267477069551133 0.05790540920188328 0
          0.6071739142902806 -0.12546835817050686 0 -0.09504060395511305 0.0582554729444896 0
          0.6575858398527268 -0.13573104367357897 0 -0.11932708479301041 0.06129465972265616 0
          0.7973231186149609 -0.19539543743157103 0 -0.26298900502060374 0.09122761583866865 0
          0.19582744128039287 -0.012132924169794251 0 -1.1728437950485455 0.4045541987913669 0
          1.014518510819003 -0.040083539594693574 0 -8.725482841436236 5.775981539024389 0
          0.7362725972619861 -0.1184428237718953 0 4.740166450091466 -1.7973330140151456 0
          0.6752505833958522 -0.21040435394660595 0 3.2926460197944807 -1.2775382732560046 0
          0.8433983002814167 -0.285364694980017 0 2.437553764737692 -0.9651870751665617 0
          1.027572848855252 -0.3268238725695052 0 2.078358311315508 -0.8581425804234641 0
          1.0275728488552403 -0.3268238725695087 0 2.078358311315513 -0.8581425804234621 0
          1.024939326527078 -0.326352042155317 0 2.078358311315506 -0.8581425804234653 0
          0.992510571765528 -0.320686565305715 0 2.0772429987120704 -0.8578945290660329 0
          0.7913912885643911 -0.2708518843179055 0 2.0676089007895557 -0.8554109229463556 0
          -0.6435985132122903 0.2242609224363753 0 2.014606583711201 -0.8356640709171104 0
          <InformationKey name="L2_NORM_RANGE" location="vtkDataArray" length="2">
            <Value index="0">
              0.048409865335
            </Value>
            <Value index="1">
              10.464034287
            </Value>
          </InformationKey>
        </DataArray>
        <DataArray type="Float64" Name="ENRES" format="ascii" RangeMin="-15.755660713786629" RangeMax="8.766437700601127">
          0.34337028288505106 -0.9341441214678525 -0.3125492655367541 -1.8313393011310444 -0.38589126434583143 -1.8629720070125217
          -0.385891264345827 -1.1920044704843518 -0.38589126434582843 -1.1920044704843806 -0.3858912643458424 -1.1920044704843598
          -0.4171106051726403 -1.1744439012782366 -0.41720406879595906 -1.100101681173096 -0.07743856482168199 -0.984640313721855
          -0.46527694111579954 -2.5408479912151085 1.5521753185441265 -8.031385214550285 1.2194266057150387 -3.555512023695705
          0.9334643717772948 -1.5111112247176297 1.117335104745519 -0.7173150733724865 1.1173351047454971 -0.08726499983681268
          1.1173351047454967 -0.08726499983681235 1.13530132296203 -0.09204398026245342 1.2347017921944314 -0.14102252677333071
          1.4905290292667395 -0.4319873960574876 0.3456465374325337 -2.1754611703677043 1.7149081524136294 -15.755660713786629
          1.1716517632652699 8.766437700601127 1.0396490230039104 6.057573978572786 1.3955498682229728 4.382688006733622
          1.7778727367764633 3.657784346796771 1.7778727367764682 3.6577843467967757 1.7725496699442496 3.657784346796774
          1.7072879200014444 3.655521185608685 1.3030761719572692 3.63591458577962 -1.444055260294927 3.5284464402548052
        </DataArray>
      </CellData>
      <Points>
        <DataArray type="Float32" Name="Points" NumberOfComponents="3" format="ascii" RangeMin="0" RangeMax="4.2201894765504395">
          4.099999904632568 1 0 4.099999904632568 0.6666666865348816 0
          3.690000057220459 1 0 3.690000057220459 0.6666666865348816 0
          4.099999904632568 0.3333333134651184 0 3.690000057220459 0.3333333134651184 0
          3.2799999713897705 1 0 3.2799999713897705 0.6666666865348816 0
          4.099999904632568 0 0 3.2799999713897705 0.3333333134651184 0
          3.690000057220459 0 0 2.869999885559082 1 0
          2.869999885559082 0.6666666865348816 0 3.2799999713897705 0 0
          2.869999885559082 0.3333333134651184 0 2.869999885559082 0 0
          2.4600000381469727 1 0 2.4600000381469727 0.6666666865348816 0
          2.4600000381469727 0.3333333134651184 0 2.4600000381469727 0 0
          2.049999952316284 1 0 2.049999952316284 0.6666666865348816 0
          2.049999952316284 0.3333333134651184 0 2.049999952316284 0 0
          1.6399999856948853 1 0 1.6399999856948853 0.6666666865348816 0
          1.6399999856948853 0.3333333134651184 0 1.6399999856948853 0 0
          1.2300000190734863 1 0 1.2300000190734863 0.6666666865348816 0
          1.2300000190734863 0.3333333134651184 0 1.2300000190734863 0 0
          0.8199999928474426 1 0 0.8199999928474426 0.6666666865348816 0
          0.8199999928474426 0.3333333134651184 0 0.8199999928474426 0 0
          0.4099999964237213 1 0 0.4099999964237213 0.6666666865348816 0
          0.4099999964237213 0.3333333134651184 0 0.4099999964237213 0 0
          0 1 0 0 0.6666666865348816 0
          0 0.3333333134651184 0 0 0 0
          <InformationKey name="L2_NORM_RANGE" location="vtkDataArray" length="2">
            <Value index="0">
              0
            </Value>
            <Value index="1">
              4.2201894766
            </Value>
          </InformationKey>
        </DataArray>
      </Points>
      <Cells>
        <DataArray type="Int64" Name="connectivity" format="ascii" RangeMin="0" RangeMax="43">
          39 38 43 38 42 43
          35 34 39 34 38 39
          31 30 35 30 34 35
          27 26 31 26 30 31
          23 22 27 22 26 27
          19 18 23 18 22 23
          15 14 19 14 18 19
          13 9 15 9 14 15
          10 5 13 5 9 13
          8 4 10 4 5 10
          38 37 42 37 41 42
          34 33 38 33 37 38
          30 29 34 29 33 34
          26 25 30 25 29 30
          22 21 26 21 25 26
          18 17 22 17 21 22
          14 12 18 12 17 18
          9 7 14 7 12 14
          5 3 9 3 7 9
          4 1 5 1 3 5
          37 36 41 36 40 41
          33 32 37 32 36 37
          29 28 33 28 32 33
          25 24 29 24 28 29
          21 20 25 20 24 25
          17 16 21 16 20 21
          12 11 17 11 16 17
          7 6 12 6 11 12
          3 2 7 2 6 7
          1 0 3 0 2 3
        </DataArray>
        <DataArray type="Int64" Name="offsets" format="ascii" RangeMin="3" RangeMax="180">
          3 6 9 12 15 18
          21 24 27 30 33 36
          39 42 45 48 51 54
          57 60 63 66 69 72
          75 78 81 84 87 90
          93 96 99 102 105 108
          111 114 117 120 123 126
          129 132 135 138 141 144
          147 150 153 156 159 162
          165 168 171 174 177 180
        </DataArray>
        <DataArray type="UInt8" Name="types" format="ascii" RangeMin="5" RangeMax="5">
          5 5 5 5 5 5
          5 5 5 5 5 5
          5 5 5 5 5 5
          5 5 5 5 5 5
          5 5 5 5 5 5
          5 5 5 5 5 5
          5 5 5 5 5 5
          5 5 5 5 5 5
          5 5 5 5 5 5
          5 5 5 5 5 5
        </DataArray>
      </Cells>
    </Piece>
  </UnstructuredGrid>
</VTKFile>
