<?xml version="1.0"?>
<VTKFile type="UnstructuredGrid" version="0.1" byte_order="LittleEndian" header_type="UInt32" compressor="vtkZLibDataCompressor">
  <UnstructuredGrid>
    <Piece NumberOfPoints="44" NumberOfCells="60">
      <PointData>
      </PointData>
      <CellData>
        <DataArray type="UInt8" Name="vtkGhostType" format="ascii" RangeMin="0" RangeMax="0">
          0 0 0 0 0 0
          0 0 0 0 0 0
          0 0 0 0 0 0
          0 0 0 0 0 0
          0 0 0 0 0 0
          0 0 0 0 0 0
          0 0 0 0 0 0
          0 0 0 0 0 0
          0 0 0 0 0 0
          0 0 0 0 0 0
        </DataArray>
        <DataArray type="Float64" Name="CORES" format="ascii" RangeMin="-3.7873414634146334" RangeMax="1.883832215789623">
          0.1970708238571303 -0.22641479815422139 0.05691003222266104 -0.478343399702138 -0.028774640401528495 -0.44001387479329135
          -0.06251921735779487 -0.3441039360277428 -0.061930178641249334 -0.27784343347734103 -0.04129964817478765 -0.2146322940099157
          -0.0444526271192848 -0.16864748428890786 -0.04434772276030391 -0.16261778678637231 0.09688599982046811 -0.16953831812287798
          -0.4682626686316043 -0.5827484561552161 0.35915394045838706 -1.7113649716105712 0.2943194873489624 -0.7150560806311195
          0.2312333017484162 -0.10476688958750885 0.19350160988224588 0.14809834519655865 0.1840661643668598 0.2085035655924466
          0.21325349738730137 0.21049373953775302 0.23784882067943702 0.22727896653552976 0.2518294766566489 0.23676926046713087
          0.29228958829764806 0.20994770564922666 -0.07230709053005052 -0.06300886937765357 0.20474266992923673 -3.7873414634146334
          0.04758511129644938 1.883832215789623 -0.0030642269766898156 1.2733166276954009 -0.02776838466920567 0.8346752543692544
          -0.03332594846945758 0.5773238037200317 -0.012025547978465667 0.437351810667432 0.013811206473580362 0.3664798363816805
          0.012553671102126351 0.34592048680979115 -0.03981090490207667 0.34312814041986717 -0.5224269891097655 0.32672557968582955
        </DataArray>
        <DataArray type="Float64" Name="MORES" NumberOfComponents="3" format="ascii" RangeMin="0.08099687587588571" RangeMax="10.464034286801086">
          0.5666823068992494 -0.06442135591015487 0 -0.6689569325578615 0.11149770126770336 0
          0.20938336857857334 -0.12310312131175719 0 -1.3331521362674694 0.4478002243160195 0
          -0.03183762425319664 -0.12645431272560165 0 -1.2285914841686658 0.49313090512459234 0
          -0.15637627410845734 -0.10203267522436238 0 -0.9704642658552323 0.38244857630435136 0
          -0.16471310431115788 -0.08014696173848951 0 -0.7891589210693687 0.26742800100501724 0
          -0.09415231431902826 -0.06991728466186847 0 -0.5897063638431856 0.19194866876708733 0
          -0.10456934898497883 -0.06844193615453709 0 -0.4360084378825533 0.16038094115032614 0
          -0.0863314945970779 -0.06444082163971254 0 -0.41568238843017774 0.15150896108284334 0
          0.30232333927536426 -0.08502230330361454 0 -0.4716127336907647 0.11882760992083563 0
          -1.4026215401160522 0.3724769008547318 0 -1.6869631167791321 0.4777400956875264 0
          1.0195634317316986 -0.38111037503172646 0 -4.487806966899429 1.5564675059938269 0
          0.9083186182720941 -0.2751699741670429 0 -1.8292227024694152 0.7202050381220484 0
          0.7174687301129293 -0.23235681967775618 0 -0.22202712980129197 0.11397143786135841 0
          0.5719537850619062 -0.2466665517317455 0 0.4715295333490776 -0.20209755101340793 0
          0.5277241761057907 -0.2740673365594032 0 0.645906175151167 -0.3189903188976285 0
          0.6275006671319205 -0.30132625168505445 0 0.6502797872018862 -0.3490372754458422 0
          0.7120469070072732 -0.319147340359142 0 0.7076257340726317 -0.3684078956020961 0
          0.7560421976442235 -0.33609540083918577 0 0.7384608860235955 -0.37896936223832717 0
          0.8334060760234385 -0.4030893756636563 0 0.6409748765541038 -0.3463671736936508 0
          -0.23825494895058325 -0.08570646429379858 0 -0.06098646194681509 -0.053302395451455195 0
          0.6495558289974028 0.08263028994418725 0 -8.725482841436236 5.775981539024389 0
          0.02313210061248772 0.17165982911136451 0 4.774956633143725 -1.7849883786317353 0
          -0.2062373727010272 0.22646098978113333 0 3.1659079099531837 -1.2030278355029917 0
          -0.3154940751291913 0.21400008042431004 0 2.0106488643693674 -0.7457770277999001 0
          -0.34273767055389714 0.18626662461627486 0 1.305582273975353 -0.4466688521343667 0
          -0.2690936133700669 0.16714226124438325 0 0.8869001461899327 -0.28468029938168926 0
          -0.1785146833501261 0.1523351792467309 0 0.6587340926519243 -0.21223424028997867 0
          -0.18172145005280782 0.15435912451625006 0 0.5913116305842699 -0.19273763081666845 0
          -0.3544953438809584 0.2147434892829585 0 0.5823234266644713 -0.18908693358242668 0
          -1.6210924861745566 0.7318764054487045 0 0.5331164267658861 -0.16773149208128274 0
          <InformationKey name="L2_NORM_RANGE" location="vtkDataArray" length="2">
            <Value index="0">
              0.080996875876
            </Value>
            <Value index="1">
              10.464034287
            </Value>
          </InformationKey>
        </DataArray>
        <DataArray type="Float64" Name="ENRES" format="ascii" RangeMin="-15.755660713786629" RangeMax="8.808523468027907">
          1.0714155215185148 -1.1676650934667963 0.45814992678465016 -2.474122892275279 -0.031003148864253594 -2.365095314859619
          -0.3248224128057493 -1.9136144344756152 -0.36353739965517384 -1.574003767330176 -0.2248839110391605 -1.1742409824754416
          -0.24622697854250086 -0.8634694584684712 -0.19916864543626311 -0.8206139702132464 0.5242742880564584 -0.9397789558506409
          -2.704137899711091 -3.2983900545628755 1.9260359545720993 -8.369058177327116 1.733407584771018 -3.496806839042514
          1.3842482862091574 -0.4322860990607962 1.1152387409907305 0.9733351300070439 1.0453841893211382 1.3637914488032297
          1.261918072081925 1.395607349431911 1.4374267433411756 1.523919444810201 1.5262553499047242 1.589367989624831
          1.655631307484781 1.3826944143780446 -0.4070884901624727 0.049559752700594206 1.0796632283259031 -15.755660713786629
          -0.10494302318243226 8.808523468027907 -0.6212745204032707 5.798913605485494 -0.8769443107180569 3.5972043434697576
          -0.9438865909491037 2.2136430314265243 -0.7946343109529808 1.361362888216164 -0.6067150858961585 0.8878134023700992
          -0.6117338685535416 0.7476183799191825 -0.9695666076926313 0.7287796135806586 -3.4009824066742214 0.6272803546114998
        </DataArray>
      </CellData>
      <Points>
        <DataArray type="Float32" Name="Points" NumberOfComponents="3" format="ascii" RangeMin="0" RangeMax="4.2201894765504395">
          4.099999904632568 1 0 4.099999904632568 0.6666666865348816 0
          3.690000057220459 1 0 3.690000057220459 0.6666666865348816 0
          4.099999904632568 0.3333333134651184 0 3.690000057220459 0.3333333134651184 0
          3.2799999713897705 1 0 3.2799999713897705 0.6666666865348816 0
          4.099999904632568 0 0 3.2799999713897705 0.3333333134651184 0
          3.690000057220459 0 0 2.869999885559082 1 0
          2.869999885559082 0.6666666865348816 0 3.2799999713897705 0 0
          2.869999885559082 0.3333333134651184 0 2.869999885559082 0 0
          2.4600000381469727 1 0 2.4600000381469727 0.6666666865348816 0
          2.4600000381469727 0.3333333134651184 0 2.4600000381469727 0 0
          2.049999952316284 1 0 2.049999952316284 0.6666666865348816 0
          2.049999952316284 0.3333333134651184 0 2.049999952316284 0 0
          1.6399999856948853 1 0 1.6399999856948853 0.6666666865348816 0
          1.6399999856948853 0.3333333134651184 0 1.6399999856948853 0 0
          1.2300000190734863 1 0 1.2300000190734863 0.6666666865348816 0
          1.2300000190734863 0.3333333134651184 0 1.2300000190734863 0 0
          0.8199999928474426 1 0 0.8199999928474426 0.6666666865348816 0
          0.8199999928474426 0.3333333134651184 0 0.8199999928474426 0 0
          0.4099999964237213 1 0 0.4099999964237213 0.6666666865348816 0
          0.4099999964237213 0.3333333134651184 0 0.4099999964237213 0 0
          0 1 0 0 0.6666666865348816 0
          0 0.3333333134651184 0 0 0 0
          <InformationKey name="L2_NORM_RANGE" location="vtkDataArray" length="2">
            <Value index="0">
              0
            </Value>
            <Value index="1">
              4.2201894766
            </Value>
          </InformationKey>
        </DataArray>
      </Points>
      <Cells>
        <DataArray type="Int64" Name="connectivity" format="ascii" RangeMin="0" RangeMax="43">
          39 38 43 38 42 43
          35 34 39 34 38 39
          31 30 35 30 34 35
          27 26 31 26 30 31
          23 22 27 22 26 27
          19 18 23 18 22 23
          15 14 19 14 18 19
          13 9 15 9 14 15
          10 5 13 5 9 13
          8 4 10 4 5 10
          38 37 42 37 41 42
          34 33 38 33 37 38
          30 29 34 29 33 34
          26 25 30 25 29 30
          22 21 26 21 25 26
          18 17 22 17 21 22
          14 12 18 12 17 18
          9 7 14 7 12 14
          5 3 9 3 7 9
          4 1 5 1 3 5
          37 36 41 36 40 41
          33 32 37 32 36 37
          29 28 33 28 32 33
          25 24 29 24 28 29
          21 20 25 20 24 25
          17 16 21 16 20 21
          12 11 17 11 16 17
          7 6 12 6 11 12
          3 2 7 2 6 7
          1 0 3 0 2 3
        </DataArray>
        <DataArray type="Int64" Name="offsets" format="ascii" RangeMin="3" RangeMax="180">
          3 6 9 12 15 18
          21 24 27 30 33 36
          39 42 45 48 51 54
          57 60 63 66 69 72
          75 78 81 84 87 90
          93 96 99 102 105 108
          111 114 117 120 123 126
          129 132 135 138 141 144
          147 150 153 156 159 162
          165 168 171 174 177 180
        </DataArray>
        <DataArray type="UInt8" Name="types" format="ascii" RangeMin="5" RangeMax="5">
          5 5 5 5 5 5
          5 5 5 5 5 5
          5 5 5 5 5 5
          5 5 5 5 5 5
          5 5 5 5 5 5
          5 5 5 5 5 5
          5 5 5 5 5 5
          5 5 5 5 5 5
          5 5 5 5 5 5
          5 5 5 5 5 5
        </DataArray>
      </Cells>
    </Piece>
  </UnstructuredGrid>
</VTKFile>
