<?xml version="1.0"?>
<VTKFile type="UnstructuredGrid" version="0.1" byte_order="LittleEndian" header_type="UInt32" compressor="vtkZLibDataCompressor">
  <UnstructuredGrid>
    <Piece NumberOfPoints="44" NumberOfCells="60">
      <PointData>
      </PointData>
      <CellData>
        <DataArray type="UInt8" Name="vtkGhostType" format="ascii" RangeMin="0" RangeMax="0">
          0 0 0 0 0 0
          0 0 0 0 0 0
          0 0 0 0 0 0
          0 0 0 0 0 0
          0 0 0 0 0 0
          0 0 0 0 0 0
          0 0 0 0 0 0
          0 0 0 0 0 0
          0 0 0 0 0 0
          0 0 0 0 0 0
        </DataArray>
        <DataArray type="Float64" Name="CORES" format="ascii" RangeMin="-3.7873414634146334" RangeMax="1.8785514906609864">
          0.14804757692478124 -0.21921308953007707 0.022567713053645466 -0.44196722819958123 -0.052867125235402476 -0.4106880238339419
          -0.08101334358466694 -0.34902924985195316 -0.06074807869338078 -0.2822743302141601 -0.062228857096189166 -0.2210943382827514
          -0.06611128305434474 -0.21746554129974305 -0.0685468260431758 -0.20804218030365904 0.04825206812583632 -0.2096679898466955
          -0.21622802873324912 -0.5398600826327725 0.33829156262920734 -1.6920400869706809 0.27940524641226777 -0.705107935138505
          0.23520151061063438 -0.14724096657450356 0.20848258889558463 0.06427058333127379 0.22735030659786723 0.11511433057477874
          0.2536063950328231 0.14960970185602931 0.25832296928820575 0.1787617555013612 0.2747090692869429 0.17047066309716133
          0.3173807486007143 0.13722582590709428 0.049742777504840685 -0.1571854101688956 0.23479379944332102 -3.7873414634146334
          0.11407272218208196 1.8785514906609864 0.07805802731879721 1.2773133794303861 0.06346242944366975 0.8748339890599524
          0.08020251172436627 0.6522230096236403 0.11789070359511133 0.5391313181027266 0.13439052306277222 0.5037400875019737
          0.12249823235106816 0.5031986805007888 0.06421501768547394 0.5003136002903513 -0.4378469776850281 0.4830981021341249
        </DataArray>
        <DataArray type="Float64" Name="MORES" NumberOfComponents="3" format="ascii" RangeMin="0.0652013621027649" RangeMax="10.464034286801086">
          0.43695323935237645 -0.054056026127978926 0 -0.6345407484002431 0.11506306885730597 0
          0.112230542978768 -0.08482654323871716 0 -1.2370956747847752 0.41347700458355785 0
          -0.11923691838190498 -0.06503702822423557 0 -1.1628863398962235 0.4262612658956117 0
          -0.22380012937697497 -0.034596271206547485 0 -1.0057957986368882 0.32968927641295465 0
          -0.15596709325630048 -0.01844514431771832 0 -0.803795043659155 0.2433850855819106 0
          -0.16110723242279457 -0.018190146738376434 0 -0.6014841879341319 0.20103514381318183 0
          -0.17412168537023576 -0.01693704520356676 0 -0.5888400569885903 0.1996099897613705 0
          -0.16834323034065923 -0.013356072631262705 0 -0.5567091666181931 0.19052953136747644 0
          0.15739882286372986 -0.028693499687810098 0 -0.5922570134472497 0.1554833661410047 0
          -0.5842653978109854 0.23466287897944915 0 -1.5549326677514546 0.47352408552250574 0
          0.9847376823579044 -0.3523404922198302 0 -4.452960126016764 1.5432410980841027 0
          0.8824756027713987 -0.24898938292709172 0 -1.823528380467092 0.7204353730436512 0
          0.7381495753246049 -0.21956495467082326 0 -0.33544246077934425 0.15489681104833022 0
          0.6292600551962789 -0.23577143238542975 0 0.2550837114505021 -0.11898449901290697 0
          0.6889624636609541 -0.2629315569277937 0 0.401291228585555 -0.21287250938429103 0
          0.7787482974428631 -0.28286081636292726 0 0.5142750474387003 -0.25312136218174264 0
          0.79474288087173 -0.28566015142038875 0 0.6109231087712607 -0.2777983236348968 0
          0.8475123590317665 -0.3017159572896883 0 0.5823363925044339 -0.27381405534922465 0
          0.9372507489596752 -0.3674019071923106 0 0.4642834215967933 -0.24073567501244508 0
          0.167839927858938 -0.10818294159257129 0 -0.31432703838306475 0.07132021551100394 0
          0.7157315671397332 0.058141276154786814 0 -8.725482841436236 5.775981539024389 0
          0.17422396021524703 0.10988244300478611 0 4.765306253904863 -1.78931180996952 0
          -0.017555518257239555 0.12069594540339385 0 3.177352933345169 -1.2208297221503353 0
          -0.09306947525154241 0.08467203389765487 0 2.103032108012653 -0.7920047288458861 0
          -0.039851255777432204 0.051605184168042106 0 1.468038955354217 -0.5366862235207608 0
          0.09143118800538086 0.02547702591148482 0 1.1146234177869296 -0.41780770343613033 0
          0.1481578447224774 0.014185132126039113 0 0.9996327659550217 -0.38458859053313754 0
          0.10819311205977211 0.02254715789886741 0 0.9977743124845644 -0.38407436740910167 0
          -0.08435923992700634 0.08262525848670133 0 0.9883562801098028 -0.38061778945426655 0
          -1.426675465441003 0.6122619457484682 0 0.9357188257322538 -0.3586794118553392 0
          <InformationKey name="L2_NORM_RANGE" location="vtkDataArray" length="2">
            <Value index="0">
              0.065201362103
            </Value>
            <Value index="1">
              10.464034287
            </Value>
          </InformationKey>
        </DataArray>
        <DataArray type="Float64" Name="ENRES" format="ascii" RangeMin="-15.755660713786629" RangeMax="8.796032557841034">
          0.8393211356474216 -1.1014158231343403 0.2636573143614315 -2.296395816767263 -0.2185780059360921 -2.23181029760531
          -0.4571550258501924 -1.9647778409777483 -0.3288928248115156 -1.570697087361557 -0.3391942487070624 -1.1655923497591163
          -0.36537051746178417 -1.1400632253182175 -0.34565794631468516 -1.0740523486897278 0.2607059583702549 -1.1508153173237339
          -1.0960265047663726 -3.007196490027292 1.8712249600587876 -8.312425032308461 1.6863781790242793 -3.496952362936013
          1.4117140560520072 -0.6475897187633334 1.2077517331926304 0.5528504753125945 1.3430114949977878 0.8760669851009664
          1.5293891488425768 1.1219221481542445 1.5614826258260992 1.3217570403555712 1.6669697280036035 1.2638494968978888
          1.8214958431114139 1.0180480153742633 0.3587803042046603 -0.46658985031013356 1.1918912030428885 -15.755660713786629
          0.15698636653753276 8.796032557841034 -0.2768910931192586 5.829169273845001 -0.4512128953368203 3.7715422027023995
          -0.3443319672725047 2.509068483625564 -0.0717422984057472 1.784925281033929 0.04636386619937305 1.547603904561029
          -0.03477839010869932 1.5437271806044197 -0.4295425621078235 1.5241421609939174 -3.0055393697538424 1.4157680326799114
        </DataArray>
      </CellData>
      <Points>
        <DataArray type="Float32" Name="Points" NumberOfComponents="3" format="ascii" RangeMin="0" RangeMax="4.2201894765504395">
          4.099999904632568 1 0 4.099999904632568 0.6666666865348816 0
          3.690000057220459 1 0 3.690000057220459 0.6666666865348816 0
          4.099999904632568 0.3333333134651184 0 3.690000057220459 0.3333333134651184 0
          3.2799999713897705 1 0 3.2799999713897705 0.6666666865348816 0
          4.099999904632568 0 0 3.2799999713897705 0.3333333134651184 0
          3.690000057220459 0 0 2.869999885559082 1 0
          2.869999885559082 0.6666666865348816 0 3.2799999713897705 0 0
          2.869999885559082 0.3333333134651184 0 2.869999885559082 0 0
          2.4600000381469727 1 0 2.4600000381469727 0.6666666865348816 0
          2.4600000381469727 0.3333333134651184 0 2.4600000381469727 0 0
          2.049999952316284 1 0 2.049999952316284 0.6666666865348816 0
          2.049999952316284 0.3333333134651184 0 2.049999952316284 0 0
          1.6399999856948853 1 0 1.6399999856948853 0.6666666865348816 0
          1.6399999856948853 0.3333333134651184 0 1.6399999856948853 0 0
          1.2300000190734863 1 0 1.2300000190734863 0.6666666865348816 0
          1.2300000190734863 0.3333333134651184 0 1.2300000190734863 0 0
          0.8199999928474426 1 0 0.8199999928474426 0.6666666865348816 0
          0.8199999928474426 0.3333333134651184 0 0.8199999928474426 0 0
          0.4099999964237213 1 0 0.4099999964237213 0.6666666865348816 0
          0.4099999964237213 0.3333333134651184 0 0.4099999964237213 0 0
          0 1 0 0 0.6666666865348816 0
          0 0.3333333134651184 0 0 0 0
          <InformationKey name="L2_NORM_RANGE" location="vtkDataArray" length="2">
            <Value index="0">
              0
            </Value>
            <Value index="1">
              4.2201894766
            </Value>
          </InformationKey>
        </DataArray>
      </Points>
      <Cells>
        <DataArray type="Int64" Name="connectivity" format="ascii" RangeMin="0" RangeMax="43">
          39 38 43 38 42 43
          35 34 39 34 38 39
          31 30 35 30 34 35
          27 26 31 26 30 31
          23 22 27 22 26 27
          19 18 23 18 22 23
          15 14 19 14 18 19
          13 9 15 9 14 15
          10 5 13 5 9 13
          8 4 10 4 5 10
          38 37 42 37 41 42
          34 33 38 33 37 38
          30 29 34 29 33 34
          26 25 30 25 29 30
          22 21 26 21 25 26
          18 17 22 17 21 22
          14 12 18 12 17 18
          9 7 14 7 12 14
          5 3 9 3 7 9
          4 1 5 1 3 5
          37 36 41 36 40 41
          33 32 37 32 36 37
          29 28 33 28 32 33
          25 24 29 24 28 29
          21 20 25 20 24 25
          17 16 21 16 20 21
          12 11 17 11 16 17
          7 6 12 6 11 12
          3 2 7 2 6 7
          1 0 3 0 2 3
        </DataArray>
        <DataArray type="Int64" Name="offsets" format="ascii" RangeMin="3" RangeMax="180">
          3 6 9 12 15 18
          21 24 27 30 33 36
          39 42 45 48 51 54
          57 60 63 66 69 72
          75 78 81 84 87 90
          93 96 99 102 105 108
          111 114 117 120 123 126
          129 132 135 138 141 144
          147 150 153 156 159 162
          165 168 171 174 177 180
        </DataArray>
        <DataArray type="UInt8" Name="types" format="ascii" RangeMin="5" RangeMax="5">
          5 5 5 5 5 5
          5 5 5 5 5 5
          5 5 5 5 5 5
          5 5 5 5 5 5
          5 5 5 5 5 5
          5 5 5 5 5 5
          5 5 5 5 5 5
          5 5 5 5 5 5
          5 5 5 5 5 5
          5 5 5 5 5 5
        </DataArray>
      </Cells>
    </Piece>
  </UnstructuredGrid>
</VTKFile>
