<?xml version="1.0"?>
<VTKFile type="UnstructuredGrid" version="0.1" byte_order="LittleEndian" header_type="UInt32" compressor="vtkZLibDataCompressor">
  <UnstructuredGrid>
    <Piece NumberOfPoints="9" NumberOfCells="7">
      <PointData>
        <DataArray type="Float64" Name="Velocity" NumberOfComponents="3" format="ascii" RangeMin="0" RangeMax="0.06991902298931474">
          0 0 0 -0.009338499462320238 -0.059205208282470556 0
          0 0 0 -0.0012650247783579406 -0.005022460923826577 0
          0 0 0 0 0 0
          0 0 0 -0.0006408872631751272 -0.06991608569775787 0
          0 0 0
          <InformationKey name="L2_NORM_RANGE" location="vtkDataArray" length="2">
            <Value index="0">
              0
            </Value>
            <Value index="1">
              0.069919022989
            </Value>
          </InformationKey>
        </DataArray>
        <DataArray type="Float64" Name="Pressure" format="ascii" RangeMin="6.148499091303018" RangeMax="7.053655278695965">
          6.996988090481225 6.714098160952969 6.994776809631841 6.717384992524878 7.053655278695965 6.7117798534303885
          6.4307718032357 6.434967287237272 6.148499091303018
        </DataArray>
        <DataArray type="Float64" Name="Temperature" format="ascii" RangeMin="239.9999999999379" RangeMax="601.8962844583268">
          558.8709843746976 555.9280747171065 601.8962844583268 597.7976106344416 239.9999999999379 239.99999999993796
          239.99999999993796 558.103593461218 239.99999999993793
        </DataArray>
        <DataArray type="Float64" Name="Density" format="ascii" RangeMin="0.58076802042343" RangeMax="1.4565088067715444">
          0.6254790880156245 0.6287901790226386 0.58076802042343 0.584749934436992 1.4565088067715444 1.456508806771544
          1.456508806771544 0.6263391200497097 1.4565088067715442
        </DataArray>
        <DataArray type="Float64" Name="stream" format="ascii" RangeMin="0.0016050168135154988" RangeMax="0.016427706643079357">
          0.005750204595656553 0.005220379854288586 0.0019356291164520038 0.0016050168135154988 0.005750204595656553 0.0071877235521576426
          0.011658798682203101 0.008994626778968989 0.016427706643079357
        </DataArray>
      </PointData>
      <CellData>
        <DataArray type="UInt8" Name="vtkGhostType" format="ascii" RangeMin="0" RangeMax="0">
          0 0 0 0 0 0
          0
        </DataArray>
        <DataArray type="Float64" Name="blocks" format="ascii" RangeMin="2.6666666666666665" RangeMax="3">
          3 2.666666666666667 3 3 3 2.666666666666667
          2.6666666666666665
        </DataArray>
      </CellData>
      <Points>
        <DataArray type="Float32" Name="Points" NumberOfComponents="3" format="ascii" RangeMin="0.6000000238418579" RangeMax="1.1661903912355949">
          0.800000011920929 0 0 0.800000011920929 0.20000000298023224 0
          0.6000000238418579 0 0 0.6000000238418579 0.20000000298023224 0
          1 0 0 1 0.20000000298023224 0
          1 0.4000000059604645 0 0.800000011920929 0.4000000059604645 0
          1 0.6000000238418579 0
          <InformationKey name="L2_NORM_RANGE" location="vtkDataArray" length="2">
            <Value index="0">
              0.60000002384
            </Value>
            <Value index="1">
              1.1661903912
            </Value>
          </InformationKey>
        </DataArray>
      </Points>
      <Cells>
        <DataArray type="Int64" Name="connectivity" format="ascii" RangeMin="0" RangeMax="8">
          0 1 2 1 3 2
          4 5 0 5 1 0
          5 6 1 6 7 1
          6 8 7
        </DataArray>
        <DataArray type="Int64" Name="offsets" format="ascii" RangeMin="3" RangeMax="21">
          3 6 9 12 15 18
          21
        </DataArray>
        <DataArray type="UInt8" Name="types" format="ascii" RangeMin="5" RangeMax="5">
          5 5 5 5 5 5
          5
        </DataArray>
      </Cells>
    </Piece>
  </UnstructuredGrid>
</VTKFile>
