<?xml version="1.0"?>
<VTKFile type="UnstructuredGrid" version="0.1" byte_order="LittleEndian" header_type="UInt32" compressor="vtkZLibDataCompressor">
  <UnstructuredGrid>
    <Piece NumberOfPoints="10" NumberOfCells="8">
      <PointData>
        <DataArray type="Float64" Name="Velocity" NumberOfComponents="3" format="ascii" RangeMin="0" RangeMax="0.044826509105842176">
          0.03327129637162807 -0.007872528710140436 0 0.040324423978088775 -0.01957949819202449 0
          0.018059373506690957 -0.023280585460937198 0 0.020809237730755076 -0.037090249623599914 0
          0.017108184709314855 -0.011836256559628694 0 0 0 0
          0 0 0 0 0 0
          0 0 0 0 0 0
          <InformationKey name="L2_NORM_RANGE" location="vtkDataArray" length="2">
            <Value index="0">
              0
            </Value>
            <Value index="1">
              0.044826509106
            </Value>
          </InformationKey>
        </DataArray>
        <DataArray type="Float64" Name="Pressure" format="ascii" RangeMin="5.522668996920126" RangeMax="6.19474395076968">
          5.900584113241747 5.93449820266916 6.19474395076968 5.872884115040096 6.174001549097751 5.621545814694925
          5.667684599752298 5.5826193301033165 5.85544083695396 5.522668996920126
        </DataArray>
        <DataArray type="Float64" Name="Temperature" format="ascii" RangeMin="239.99999999993796" RangeMax="598.9278698059454">
          598.9278698059454 589.6515099790363 591.2690975746796 564.8875360180774 597.4945607432877 598.8408856534861
          574.5630526132454 554.1457301910813 239.99999999993796 239.99999999993796
        </DataArray>
        <DataArray type="Float64" Name="Density" format="ascii" RangeMin="0.5836464309773053" RangeMax="1.456508806771544">
          0.5836464309773053 0.5928283192855863 0.5912064659880676 0.6188171827779425 0.58504652023982 0.5837312080714395
          0.6083964362748197 0.630812608633732 1.456508806771544 1.456508806771544
        </DataArray>
        <DataArray type="Float64" Name="stream" format="ascii" RangeMin="0.0005073908565425937" RangeMax="0.01792949378883215">
          0.008700375134336564 0.005711886007488834 0.0005073908565425937 0.012872857908569976 0.003794319386491017 0.01197158495337211
          0.008775819237771496 0.01515080038119881 0.017117332885086024 0.01792949378883215
        </DataArray>
      </PointData>
      <CellData>
        <DataArray type="UInt8" Name="vtkGhostType" format="ascii" RangeMin="0" RangeMax="0">
          0 0 0 0 0 0
          0 0
        </DataArray>
        <DataArray type="Float64" Name="blocks" format="ascii" RangeMin="0.6666666666666667" RangeMax="1.3333333333333335">
          0.6666666666666667 0.6666666666666667 1 0.6666666666666667 1 1
          1 1.3333333333333335
        </DataArray>
      </CellData>
      <Points>
        <DataArray type="Float32" Name="Points" NumberOfComponents="3" format="ascii" RangeMin="0.7211102782366936" RangeMax="1.4142135623730951">
          0.6000000238418579 0.800000011920929 0 0.4000000059604645 0.800000011920929 0
          0.4000000059604645 0.6000000238418579 0 0.800000011920929 0.800000011920929 0
          0.6000000238418579 0.6000000238418579 0 0.6000000238418579 1 0
          0.4000000059604645 1 0 0.800000011920929 1 0
          1 0.800000011920929 0 1 1 0
          <InformationKey name="L2_NORM_RANGE" location="vtkDataArray" length="2">
            <Value index="0">
              0.72111027824
            </Value>
            <Value index="1">
              1.4142135624
            </Value>
          </InformationKey>
        </DataArray>
      </Points>
      <Cells>
        <DataArray type="Int64" Name="connectivity" format="ascii" RangeMin="0" RangeMax="9">
          0 1 2 3 0 4
          0 5 1 5 6 1
          3 7 0 7 5 0
          8 9 3 9 7 3
        </DataArray>
        <DataArray type="Int64" Name="offsets" format="ascii" RangeMin="3" RangeMax="24">
          3 6 9 12 15 18
          21 24
        </DataArray>
        <DataArray type="UInt8" Name="types" format="ascii" RangeMin="5" RangeMax="5">
          5 5 5 5 5 5
          5 5
        </DataArray>
      </Cells>
    </Piece>
  </UnstructuredGrid>
</VTKFile>
