<?xml version="1.0"?>
<VTKFile type="UnstructuredGrid" version="0.1" byte_order="LittleEndian" header_type="UInt32" compressor="vtkZLibDataCompressor">
  <UnstructuredGrid>
    <Piece NumberOfPoints="11" NumberOfCells="9">
      <PointData>
        <DataArray type="Float64" Name="Velocity" NumberOfComponents="3" format="ascii" RangeMin="0" RangeMax="0.06991902298931474">
          0 0 0 -0.006430607030114124 -0.013554735495689418 0
          0 0 0 -0.0012650247783579406 -0.005022460923826577 0
          0.008565159845436543 -0.01066291438041056 0 -0.0006408872631751272 -0.06991608569775787 0
          0.004592700180670761 -0.0638693779858448 0 0.017108184709314855 -0.011836256559628694 0
          0.020809237730755076 -0.037090249623599914 0 0 0 0
          0 0 0
          <InformationKey name="L2_NORM_RANGE" location="vtkDataArray" length="2">
            <Value index="0">
              0
            </Value>
            <Value index="1">
              0.069919022989
            </Value>
          </InformationKey>
        </DataArray>
        <DataArray type="Float64" Name="Pressure" format="ascii" RangeMin="5.522668996920126" RangeMax="6.984589869166834">
          6.984589869166834 6.715505071186548 6.948577480466119 6.717384992524878 6.445079915538859 6.434967287237272
          6.1560087710857605 6.174001549097751 5.872884115040096 5.85544083695396 5.522668996920126
        </DataArray>
        <DataArray type="Float64" Name="Temperature" format="ascii" RangeMin="239.99999999993796" RangeMax="638.6828036189237">
          602.6447459534199 597.9225362845292 638.6828036189237 597.7976106344416 597.5110822236034 558.103593461218
          559.9243093931512 597.4945607432877 564.8875360180774 239.99999999993796 239.99999999993796
        </DataArray>
        <DataArray type="Float64" Name="Density" format="ascii" RangeMin="0.5473172467528182" RangeMax="1.456508806771544">
          0.5800467289763758 0.584627760975941 0.5473172467528182 0.584749934436992 0.5850303434108783 0.6263391200497097
          0.6243024418852923 0.58504652023982 0.6188171827779425 1.456508806771544 1.456508806771544
        </DataArray>
        <DataArray type="Float64" Name="stream" format="ascii" RangeMin="-0.0008472920378435351" RangeMax="0.017716078760867345">
          0.00022630025733425853 -0.00013487919128600534 -0.0008472920378435351 0.0016050168135154988 0.0021921393828596876 0.008994626778968989
          0.011078973236863673 0.004217156002304991 0.013086272936534783 0.017409151806876487 0.017716078760867345
        </DataArray>
      </PointData>
      <CellData>
        <DataArray type="UInt8" Name="vtkGhostType" format="ascii" RangeMin="1" RangeMax="1">
          1 1 1 1 1 1
          1 1 1
        </DataArray>
        <DataArray type="Float64" Name="blocks" format="ascii" RangeMin="0.6666666666666669" RangeMax="1.3333333333333335">
          0.6666666666666669 1.3333333333333335 0.6666666666666669 1.3333333333333335 1.3333333333333335 0.6666666666666669
          0.6666666666666669 1.3333333333333335 0.6666666666666669
        </DataArray>
      </CellData>
      <Points>
        <DataArray type="Float32" Name="Points" NumberOfComponents="3" format="ascii" RangeMin="0.20000000298023224" RangeMax="1.4142135623730951">
          0.4000000059604645 0 0 0.4000000059604645 0.20000000298023224 0
          0.20000000298023224 0 0 0.6000000238418579 0.20000000298023224 0
          0.6000000238418579 0.4000000059604645 0 0.800000011920929 0.4000000059604645 0
          0.800000011920929 0.6000000238418579 0 0.6000000238418579 0.6000000238418579 0
          0.800000011920929 0.800000011920929 0 1 0.800000011920929 0
          1 1 0
          <InformationKey name="L2_NORM_RANGE" location="vtkDataArray" length="2">
            <Value index="0">
              0.20000000298
            </Value>
            <Value index="1">
              1.4142135624
            </Value>
          </InformationKey>
        </DataArray>
      </Points>
      <Cells>
        <DataArray type="Int64" Name="connectivity" format="ascii" RangeMin="0" RangeMax="10">
          0 1 2 3 1 0
          3 4 1 5 4 3
          5 6 4 6 7 4
          6 8 7 9 8 6
          9 10 8
        </DataArray>
        <DataArray type="Int64" Name="offsets" format="ascii" RangeMin="3" RangeMax="27">
          3 6 9 12 15 18
          21 24 27
        </DataArray>
        <DataArray type="UInt8" Name="types" format="ascii" RangeMin="5" RangeMax="5">
          5 5 5 5 5 5
          5 5 5
        </DataArray>
      </Cells>
    </Piece>
  </UnstructuredGrid>
</VTKFile>
