<?xml version="1.0"?>
<VTKFile type="UnstructuredGrid" version="0.1" byte_order="LittleEndian" header_type="UInt32" compressor="vtkZLibDataCompressor">
  <UnstructuredGrid>
    <Piece NumberOfPoints="15" NumberOfCells="12">
      <PointData>
        <DataArray type="Float64" Name="Velocity" NumberOfComponents="3" format="ascii" RangeMin="0" RangeMax="0.06403429033922567">
          0.012717969661489383 -0.00996501106741382 0 0 0 0
          0 0 0 0.04048915838585515 -0.011637488805255586 0
          0 0 0 0.018059373506690957 -0.023280585460937198 0
          0.040324423978088775 -0.01957949819202449 0 0.017108184709314855 -0.011836256559628694 0
          0.03327129637162807 -0.007872528710140436 0 0 0 0
          0 0 0 0 0 0
          0.004592700180670761 -0.0638693779858448 0 0.020809237730755076 -0.037090249623599914 0
          0 0 0
          <InformationKey name="L2_NORM_RANGE" location="vtkDataArray" length="2">
            <Value index="0">
              0
            </Value>
            <Value index="1">
              0.064034290339
            </Value>
          </InformationKey>
        </DataArray>
        <DataArray type="Float64" Name="Pressure" format="ascii" RangeMin="5.667684599752298" RangeMax="6.459597584894004">
          6.214673186168654 6.221597538012471 6.459597584894004 5.973959994072035 5.993170908945479 6.19474395076968
          5.93449820266916 6.174001549097751 5.900584113241747 5.740963981033805 5.785734816224344 5.667684599752298
          6.1560087710857605 5.872884115040096 5.85544083695396
        </DataArray>
        <DataArray type="Float64" Name="Temperature" format="ascii" RangeMin="239.99999999993796" RangeMax="959.9999999997518">
          644.6231810032591 959.9999999997516 959.9999999997516 641.787286733276 959.9999999997518 591.2690975746796
          589.6515099790363 597.4945607432877 598.9278698059454 663.1076629307705 959.9999999997517 574.5630526132454
          559.9243093931512 564.8875360180774 239.99999999993796
        </DataArray>
        <DataArray type="Float64" Name="Density" format="ascii" RangeMin="0.364127201692886" RangeMax="1.456508806771544">
          0.5422735699343596 0.3641272016928861 0.3641272016928861 0.5446697384804331 0.364127201692886 0.5912064659880676
          0.5928283192855863 0.58504652023982 0.5836464309773053 0.5271574031886509 0.36412720169288604 0.6083964362748197
          0.6243024418852923 0.6188171827779425 1.456508806771544
        </DataArray>
        <DataArray type="Float64" Name="stream" format="ascii" RangeMin="-0.002416592360052195" RangeMax="0.017117332885086024">
          -0.0018850838785114932 -0.002416592360052195 -0.002416592360052195 0.0023650829863188895 -0.00043438872659258944 0.0005073908565425937
          0.005711886007488834 0.003794319386491017 0.008700375134336564 0.003428637379656646 0 0.008775819237771496
          0.01080657508259053 0.012872857908569976 0.017117332885086024
        </DataArray>
      </PointData>
      <CellData>
        <DataArray type="UInt8" Name="vtkGhostType" format="ascii" RangeMin="0" RangeMax="0">
          0 0 0 0 0 0
          0 0 0 0 0 0
        </DataArray>
        <DataArray type="Float64" Name="blocks" format="ascii" RangeMin="0" RangeMax="0.3333333333333334">
          0 0 0 0.3333333333333333 0.3333333333333334 0.3333333333333333
          0 0 0.3333333333333334 0 0.3333333333333333 0.3333333333333333
        </DataArray>
      </CellData>
      <Points>
        <DataArray type="Float32" Name="Points" NumberOfComponents="3" format="ascii" RangeMin="0.4000000059604645" RangeMax="1.280624854933515">
          0.20000000298023224 0.6000000238418579 0 0 0.6000000238418579 0
          0 0.4000000059604645 0 0.20000000298023224 0.800000011920929 0
          0 0.800000011920929 0 0.4000000059604645 0.6000000238418579 0
          0.4000000059604645 0.800000011920929 0 0.6000000238418579 0.6000000238418579 0
          0.6000000238418579 0.800000011920929 0 0.20000000298023224 1 0
          0 1 0 0.4000000059604645 1 0
          0.800000011920929 0.6000000238418579 0 0.800000011920929 0.800000011920929 0
          1 0.800000011920929 0
          <InformationKey name="L2_NORM_RANGE" location="vtkDataArray" length="2">
            <Value index="0">
              0.40000000596
            </Value>
            <Value index="1">
              1.2806248549
            </Value>
          </InformationKey>
        </DataArray>
      </Points>
      <Cells>
        <DataArray type="Int64" Name="connectivity" format="ascii" RangeMin="0" RangeMax="14">
          0 1 2 0 3 1
          3 4 1 5 6 0
          6 3 0 7 8 5
          3 9 4 9 10 4
          6 11 3 11 9 3
          12 13 7 14 13 12
        </DataArray>
        <DataArray type="Int64" Name="offsets" format="ascii" RangeMin="3" RangeMax="36">
          3 6 9 12 15 18
          21 24 27 30 33 36
        </DataArray>
        <DataArray type="UInt8" Name="types" format="ascii" RangeMin="5" RangeMax="5">
          5 5 5 5 5 5
          5 5 5 5 5 5
        </DataArray>
      </Cells>
    </Piece>
  </UnstructuredGrid>
</VTKFile>
