<?xml version="1.0"?>
<VTKFile type="UnstructuredGrid" version="0.1" byte_order="LittleEndian" header_type="UInt32" compressor="vtkZLibDataCompressor">
  <UnstructuredGrid>
    <Piece NumberOfPoints="10" NumberOfCells="7">
      <PointData>
        <DataArray type="Float64" Name="Velocity" NumberOfComponents="3" format="ascii" RangeMin="0" RangeMax="0.06403429033922567">
          0.012717969661489383 -0.00996501106741382 0 0 0 0
          0 0 0 0.04048915838585515 -0.011637488805255586 0
          0.018059373506690957 -0.023280585460937198 0 0.040324423978088775 -0.01957949819202449 0
          0.03327129637162807 -0.007872528710140436 0 0.020809237730755076 -0.037090249623599914 0
          0.017108184709314855 -0.011836256559628694 0 0.004592700180670761 -0.0638693779858448 0
          <InformationKey name="L2_NORM_RANGE" location="vtkDataArray" length="2">
            <Value index="0">
              0
            </Value>
            <Value index="1">
              0.064034290339
            </Value>
          </InformationKey>
        </DataArray>
        <DataArray type="Float64" Name="Pressure" format="ascii" RangeMin="5.872884115040096" RangeMax="6.459597584894004">
          6.214673186168654 6.221597538012471 6.459597584894004 5.973959994072035 6.19474395076968 5.93449820266916
          5.900584113241747 5.872884115040096 6.174001549097751 6.1560087710857605
        </DataArray>
        <DataArray type="Float64" Name="Temperature" format="ascii" RangeMin="559.9243093931512" RangeMax="959.9999999997516">
          644.6231810032591 959.9999999997516 959.9999999997516 641.787286733276 591.2690975746796 589.6515099790363
          598.9278698059454 564.8875360180774 597.4945607432877 559.9243093931512
        </DataArray>
        <DataArray type="Float64" Name="Density" format="ascii" RangeMin="0.3641272016928861" RangeMax="0.6243024418852923">
          0.5422735699343596 0.3641272016928861 0.3641272016928861 0.5446697384804331 0.5912064659880676 0.5928283192855863
          0.5836464309773053 0.6188171827779425 0.58504652023982 0.6243024418852923
        </DataArray>
        <DataArray type="Float64" Name="stream" format="ascii" RangeMin="-0.005244654839582698" RangeMax="0.012825499199190708">
          -0.002680747692827184 -0.0035981684440518327 -0.005244654839582698 0.002869561588495755 0.0007681754666954478 0.006236969967036652
          0.008899747365990786 0.012825499199190708 0.003910054255148423 0.009452843660649673
        </DataArray>
      </PointData>
      <CellData>
        <DataArray type="UInt8" Name="vtkGhostType" format="ascii" RangeMin="1" RangeMax="1">
          1 1 1 1 1 1
          1
        </DataArray>
        <DataArray type="Float64" Name="blocks" format="ascii" RangeMin="0" RangeMax="0.3333333333333334">
          0.3333333333333333 0 0.3333333333333334 0 0.3333333333333333 0.3333333333333333
          0.3333333333333333
        </DataArray>
      </CellData>
      <Points>
        <DataArray type="Float32" Name="Points" NumberOfComponents="3" format="ascii" RangeMin="0.4000000059604645" RangeMax="1.1313708667572155">
          0.20000000298023224 0.6000000238418579 0 0 0.6000000238418579 0
          0 0.4000000059604645 0 0.20000000298023224 0.800000011920929 0
          0.4000000059604645 0.6000000238418579 0 0.4000000059604645 0.800000011920929 0
          0.6000000238418579 0.800000011920929 0 0.800000011920929 0.800000011920929 0
          0.6000000238418579 0.6000000238418579 0 0.800000011920929 0.6000000238418579 0
          <InformationKey name="L2_NORM_RANGE" location="vtkDataArray" length="2">
            <Value index="0">
              0.40000000596
            </Value>
            <Value index="1">
              1.1313708668
            </Value>
          </InformationKey>
        </DataArray>
      </Points>
      <Cells>
        <DataArray type="Int64" Name="connectivity" format="ascii" RangeMin="0" RangeMax="9">
          0 1 2 0 3 1
          4 5 0 5 3 0
          6 5 4 7 6 8
          9 7 8
        </DataArray>
        <DataArray type="Int64" Name="offsets" format="ascii" RangeMin="3" RangeMax="21">
          3 6 9 12 15 18
          21
        </DataArray>
        <DataArray type="UInt8" Name="types" format="ascii" RangeMin="5" RangeMax="5">
          5 5 5 5 5 5
          5
        </DataArray>
      </Cells>
    </Piece>
  </UnstructuredGrid>
</VTKFile>
