<?xml version="1.0"?>
<VTKFile type="UnstructuredGrid" version="0.1" byte_order="LittleEndian" header_type="UInt32" compressor="vtkZLibDataCompressor">
  <UnstructuredGrid>
    <Piece NumberOfPoints="322" NumberOfCells="571">
      <PointData>
        <DataArray type="Float64" Name="Velocity" NumberOfComponents="3" format="ascii" RangeMin="0" RangeMax="0.3161257817506333">
          0 0 0 -0.010079668405480186 -0.1644407067648409 0
          0 0 0 -0.008147329205900186 -0.14511441210975284 0
          -0.028342915935659775 -0.23880138651696 0 -0.049569427409684605 -0.2894887884289247 0
          0 0 0 -0.06429992225197731 -0.30650308036945273 0
          -0.006956462744264819 -0.12837655904372403 0 -0.02586937506115252 -0.21669104702214165 0
          -0.04818780035681353 -0.26968145888263795 0 -0.0695307142938977 -0.2994418531344149 0
          -0.06736930789916065 -0.29337977347226635 0 0 0 0
          -0.006062381180439781 -0.11353913956295135 0 -0.02362088304192974 -0.19538133195762356 0
          -0.08016432757643091 -0.29449533263089483 0 -0.04588843304259894 -0.2480258619201901 0
          -0.06723908994658087 -0.2754210808648974 0 -0.08578304183436239 -0.2796875221032419 0
          0 0 0 -0.005345565757481638 -0.10024625489404836 0
          -0.021549874745675993 -0.1751446794051969 0 -0.08457605153296603 -0.2823233131639383 0
          -0.04315568589399214 -0.22583743412887708 0 -0.06534222031058375 -0.25487884560998436 0
          -0.09662083415549692 -0.2736946998145515 0 0 0 0
          -0.004757352398588324 -0.08828464633327379 0 -0.0852656922675711 -0.2656397274485443 0
          -0.019658907871189242 -0.15614676529001228 0 -0.0402654894276842 -0.20391109302592295 0
          -0.10331523823037622 -0.25413696778282363 0 -0.10146855446626686 -0.26180662780860714 0
          -0.06245376733820371 -0.23317858292731766 0 0 0 0
          -0.004262322163362393 -0.07749005795831068 0 -0.08365913508704695 -0.24631264761103044 0
          -0.017936271073165578 -0.13845091002054277 0 -0.11339922352165256 -0.2469621680994494 0
          -0.03736639683852072 -0.18271597941130518 0 -0.1023865675259704 -0.24603589169108883 0
          -0.05902263282187549 -0.21122894480441445 0 -0.12120608913661929 -0.22428590408686522 0
          -0.08061900445506752 -0.22561600395341713 0 0 0 0
          -0.0038346683763477328 -0.06772723054176799 0 -0.11782131526613282 -0.23511620066277075 0
          -0.016360980172278352 -0.12205545411760235 0 -0.03453328198852163 -0.16252398811526722 0
          -0.10069770281200198 -0.22786863342999403 0 -0.1297138555772621 -0.21613644978783675 0
          -0.05531963152936445 -0.1896209958004185 0 -0.11831294015089906 -0.22011000876369058 0
          -0.07669641651289738 -0.2044325638864376 0 0 0 0
          -0.003457689193598695 -0.05888559673464064 0 -0.014913571021766728 -0.1069262375949729 0
          -0.1382718501438466 -0.19134554962067654 0 -0.031803760465454266 -0.14348818355580484 0
          -0.09728395619623716 -0.2083955444989736 0 -0.1329707060042948 -0.2044149687479529 0
          -0.05151308073081188 -0.16874277491410175 0 -0.11608563460722349 -0.20312453284673002 0
          -0.07225611737147777 -0.18337989581500377 0 0 0 0
          -0.1445791339942492 -0.1826800629861456 0 -0.0031209216955145488 -0.05087422702446478 0
          -0.0135789929853653 -0.09301365213718168 0 -0.09275141368879086 -0.18841577701031226 0
          -0.13246319702028522 -0.19027103018612038 0 -0.029197083173827822 -0.1256869579096259 0
          -0.04770985782123982 -0.14884503315589712 0 -0.11200152507925246 -0.18506484774843182 0
          -0.14612236629867273 -0.17141163957545683 0 -0.06754404458561789 -0.1628867324770867 0
          0 0 0 -0.0028174157057241304 -0.04361672023056326 0
          -0.012345447330688231 -0.08026060634411461 0 -0.12929084274980707 -0.17462982742185432 0
          -0.08752376522003083 -0.16850917902449342 0 -0.026722131027761564 -0.10915001176043979 0
          -0.15703757689604542 -0.1479699508723596 0 -0.04397780123199382 -0.1300829434101458 0
          -0.10668150414398966 -0.16661265647089799 0 -0.14419332446366356 -0.1584070684819401 0
          -0.06272667325520907 -0.14324444108419201 0 -0.12426953658921985 -0.15821483633932065 0
          0 0 0 -0.0025420616786223614 -0.037047615500214626 0
          -0.08189864870251357 -0.14908948981281234 0 -0.01120270168415726 -0.06860703332871085 0
          -0.15652338373017802 -0.1376154348309257 0 -0.024380517685241142 -0.09387530379535983 0
          -0.040357936276248146 -0.11254510923196469 0 -0.10057440209773169 -0.14827223948227913 0
          -0.139781257422494 -0.14437160028108345 0 -0.05791474325902103 -0.12464470477093792 0
          -0.11800458074185086 -0.14157884928392567 0 0 0 0
          -0.0022906757687819073 -0.031110393464644167 0 -0.15292053808971004 -0.1261141770948101 0
          -0.07608317179000491 -0.13044556915198055 0 -0.010140820776300111 -0.057993220964777006 0
          -0.022167774620108712 -0.07984101306777795 0 -0.1336390349503182 -0.12986163036745618 0
          -0.09400235229979584 -0.130409466666173 0 -0.03687123445761184 -0.09627455273128528 0
          -0.16354827798686586 -0.10440651654321237 0 -0.05317775224407505 -0.10720772305196008 0
          -0.11094156719598314 -0.12513549446791905 0 -0.1471092465996199 -0.11398444770066103 0
          -0.07021681657386214 -0.11277350846300833 0 0 0 0
          -0.0020594387834123452 -0.025756637859414167 0 -0.009149236571042975 -0.04836268448191841 0
          -0.12633365329016694 -0.11530527197874925 0 -0.020073733979496553 -0.06701445339056797 0
          -0.08719124303187907 -0.11328391992669933 0 -0.03352243865694973 -0.08128425514277271 0
          -0.15818946411371798 -0.0947837235956353 0 -0.048552969280995124 -0.09100347682348169 0
          -0.10340213027733926 -0.1091876994244885 0 -0.13976664912619222 -0.10163591541426766 0
          -0.06438649671964389 -0.09620157366669221 0 0 0 0
          -0.0018444854210473431 -0.020945953164724085 0 -0.00821602050611614 -0.039664800821554755 0
          -0.11828405841142903 -0.10102441055497717 0 -0.018082572130654267 -0.05535901595519284 0
          -0.15095609296105705 -0.08484511513989994 0 -0.08029160858965195 -0.09707489230851793 0
          -0.03030235382486581 -0.06756897102769661 0 -0.1314032412098114 -0.08938399079004034 0
          -0.04405129792600307 -0.07606801031782526 0 -0.095609507719108 -0.09395214557410833 0
          -0.05863680287551476 -0.08080972499869556 0 0 0 0
          -0.0016416102581171383 -0.01664635346404066 0 -0.1097895388252986 -0.08725548961943683 0
          -0.0073273645843085445 -0.03185723270049228 0 -0.14243837907028453 -0.07487583085748137 0
          -0.07339337066553409 -0.08190240920952946 0 -0.016172832816257487 -0.04483970586329561 0
          -0.02718947159168983 -0.05511438494494931 0 -0.1223919679298933 -0.07746559790763737 0
          -0.08770721431210851 -0.07957993546158106 0 -0.03966147880108112 -0.06241608753872839 0
          -0.05297743562199014 -0.06664505886576821 0 -0.10105126137137346 -0.07416817276364342 0
          -0.1330754273315265 -0.06509442382144064 0 0 0 0
          -0.0014461391313981334 -0.012835173210759599 0 -0.006467381294113355 -0.024908311762998625 0
          -0.06653670351882411 -0.06784431472114666 0 -0.014317752332140055 -0.035427754242933186 0
          -0.024151592068640593 -0.04390445229698149 0 -0.11299128486596509 -0.06605459966108336 0
          -0.07977307743772165 -0.06617399432346467 0 -0.03535369254343252 -0.0500513270775415 0
          -0.0473892370717422 -0.053734346066109814 0 -0.12317847881600652 -0.055664353101828046 0
          -0.09218884136296031 -0.06188176872783007 0 0 0 0
          -0.0012528889636228288 -0.00950090805783898 0 -0.005618307262977097 -0.018799821047044286 0
          -0.05972064215888343 -0.054950455092500114 0 -0.012486242198519463 -0.027104957288246648 0
          -0.10336340246487792 -0.05527616214240997 0 -0.021148080681280747 -0.03392789245334816 0
          -0.07183026750537809 -0.05380392317826162 0 -0.031083462633971583 -0.03897506295566953 0
          -0.1129499105480763 -0.046705515545060375 0 -0.04182992961256048 -0.04209505498885715 0
          -0.08325338846567543 -0.05047972203550663 0 0 0 0
          -0.0010558068741425188 -0.006645450022055951 0 -0.05291065728652287 -0.043255309909570674 0
          -0.004761132124147542 -0.013529575339341682 0 -0.0935887757270921 -0.045219932267123626 0
          -0.010645028345253278 -0.019867331982205534 0 -0.018133570410810033 -0.02518377696302144 0
          -0.06385653948366575 -0.042519449638159006 0 -0.02679681803623199 -0.02919426278244713 0
          -0.10249853510917016 -0.03830534002354904 0 -0.07423811015838601 -0.04002298995162844 0
          -0.036240556273790386 -0.031745510096021314 0 0 0 0
          -0.04604613803616296 -0.03278991417002798 0 -0.0008470561927843535 -0.00428295983975523 0
          -0.08367767825859163 -0.03595246100373528 0 -0.003877126345663377 -0.00910968797441635 0
          -0.008763016544885175 -0.01372411796567699 0 -0.05579249668848619 -0.03236337510987312 0
          -0.015064471158788794 -0.017682519060201664 0 -0.022438105649126995 -0.02072518936678061 0
          -0.09185172389762176 -0.03052948416734118 0 -0.06508708897057298 -0.030563142127573655 0
          -0.03055387651312182 -0.022711324935292394 0 -0.09849276910265102 -0.02399891448071967 0
          -0.03904880996981871 -0.023590703979010412 0 0 0 0
          -0.0735792348923507 -0.027529562311977722 0 -0.0006172887487298922 -0.0024302082880694525 0
          -0.002952423947780795 -0.005555242626579336 0 -0.006820143846475342 -0.008687417850021684 0
          -0.04754962923777353 -0.02338216572519094 0 -0.011910539715639748 -0.011437921783920196 0
          -0.08096446518046314 -0.02343262786867929 0 -0.017962617102317415 -0.013588623106717325 0
          -0.055702684195848964 -0.022153862756869903 0 -0.024706743830317554 -0.015024012830738238 0
          -0.08698805646190395 -0.018462164707160077 0 -0.06318804661059588 -0.02000784515298581 0
          -0.031833956448934254 -0.01570130327717338 0 0 0 0
          -0.0003624525633513136 -0.0010922929702977373 0 -0.0019907370562535095 -0.002870000938876277 0
          -0.004824892165531739 -0.004762440659998514 0 -0.03901982760799484 -0.015630414064239727 0
          -0.008674994344435548 -0.006462904513213345 0 -0.09144848478047009 -0.012820677934698968 0
          -0.06972516256435303 -0.017069192729827605 0 -0.01335704930091837 -0.007810683097144988 0
          -0.04595308048163232 -0.014857430322486534 0 -0.018659206703907635 -0.008725948969263006 0
          -0.07507736137013567 -0.013478327006368744 0 -0.052349732294065345 -0.013452509451371055 0
          -0.024327075752222024 -0.009180461856939309 0 0 0 0
          -0.00010424832858196556 -0.0002616710264062338 0 -0.0010428371587115372 -0.0010526530561672158 0
          -0.0028488876811735876 -0.0019683252939188553 0 -0.030089030021673378 -0.009180578671186426 0
          -0.0790560007528014 -0.009385482016747135 0 -0.05795925969969627 -0.01150178542977053 0
          -0.005430472577026194 -0.0028059549994116535 0 -0.008673276319588832 -0.0034722568886193443 0
          -0.03568275933882276 -0.008755191218387828 0 -0.012423666381875295 -0.003928342756648804 0
          -0.062569337649523 -0.009101843561736152 0 -0.08152334515688264 -0.00494686132078162 0
          -0.040868333222600875 -0.007947656884328932 0 -0.016487294512564272 -0.004163669650295734 0
          0 0 0 0.00007370147789591702 0.00007116281852660056 0
          -0.00026355114997366174 -0.00011592138142093205 0 -0.06601002279586497 -0.006355822696846855 0
          -0.02065473326285951 -0.004183691608200372 0 -0.0010938268564569384 -0.00037544740314535434 0
          -0.04543383300308217 -0.006810651863702918 0 -0.0023866033140085047 -0.0006119117433534791 0
          -0.024724539362665027 -0.004003526270546355 0 -0.004088034467224078 -0.0007926248906913115 0
          -0.06815668495867395 -0.003370719312485516 0 -0.049199485096704194 -0.005402742496961102 0
          -0.006110732399573228 -0.0009124743454760161 0 -0.028513632696465355 -0.003644466730957148 0
          -0.00833710740724807 -0.0009745436339390509 0 -0.05202122635929853 -0.0037860114351961184 0
          0 0 0 0 0 0
          0 0 0 -0.010640249047430073 -0.0009832334835822346 0
          -0.031861086381400075 -0.0031317521180834243 0 0 0 0
          0 0 0 -0.012900504508406782 -0.0009433981335353887 0
          0 0 0 -0.053793160195523944 -0.00202442828999324 0
          -0.03463076117914033 -0.0024929752311232314 0 0 0 0
          -0.015011427238248486 -0.0008607162456997058 0 0 0 0
          -0.036713657834371125 -0.0017569823632794031 0 -0.054448977379813294 -0.00018270968710036378 0
          -0.016880726171991985 -0.0007416044749638211 0 0 0 0
          -0.03802945412737015 -0.0009531500443862374 0 0 0 0
          -0.018430854940436187 -0.0005928385184385623 0 0 0 0
          -0.03852719897879332 -0.00011084950135266775 0 -0.0195999045066556 -0.0004212756450216638 0
          0 0 0 -0.02034217571301916 -0.0002337338499038154 0
          0 0 0 -0.020628234679397197 -0.00003690504727848321 0
          0 0 0 0 0 0
          0 0 0 0 0 0
          -0.1662633757414041 -0.11335143396643337 0 -0.17163198768278487 -0.08012197823192249 0
          -0.16535440363039097 -0.1211725525165916 0 -0.15333529215503156 -0.1565418610902302 0
          -0.1439897480060222 -0.16258135406634822 0 -0.12552487337390042 -0.19638657478509144 0
          -0.10543540900506515 -0.22749184309579146 0 -0.08506320702096336 -0.25477689818456134 0
          -0.06566855807943553 -0.27717940916029093 0 -0.048182819575646504 -0.2934686309310315 0
          -0.05513248956329385 -0.3112810923940006 0 -0.04905294113110927 -0.30521951099087696 0
          -0.031330810091641854 -0.2612740015613136 0 -0.014047111663461492 -0.1872006552378892 0
          0 0 0 -0.10339148655450342 -0.016620150042780082 0
          -0.09419970328615394 -0.006718377635469852 0 -0.10970762629401351 -0.030041595941335344 0
          -0.12067167838517066 -0.03654218821795331 0 -0.13134190254720599 -0.04344247273497954 0
          -0.14158429890034696 -0.05066550256780038 0 -0.15116161374270512 -0.058107238570374274 0
          -0.1597178266737097 -0.06562807536986533 0 -0.16675921141286898 -0.07304456019887041 0
          -0.020444605906931188 0.0001627957998055153 0 0 0 0
          -0.0381854955994121 0.0007410773851289586 0 -0.0539628239467106 0.0016745917460577852 0
          -0.06893175159395246 -0.00025558619970339626 0 -0.08239420503878368 -0.0003221248849276298 0
          <InformationKey name="L2_NORM_RANGE" location="vtkDataArray" length="2">
            <Value index="0">
              0
            </Value>
            <Value index="1">
              0.31612578175
            </Value>
          </InformationKey>
        </DataArray>
        <DataArray type="Float64" Name="Pressure" format="ascii" RangeMin="68.81985895806132" RangeMax="78.17138200346972">
          75.60662662899612 76.28929185967884 74.04541975151473 74.8441705966786 75.08872345229689 74.92952595237617
          72.86996182332288 74.54951567826124 73.66882533702089 73.94916441742446 73.85506426867157 74.02483381827372
          73.60515335781446 71.96410493395322 72.72171197156857 73.02082705622477 73.26497562955677 72.98716788638507
          72.82983561282494 72.84885167310757 71.25971761893747 71.96382165891139 72.26692299898242 72.60837359190315
          72.27993541701733 72.18963642982347 72.32003089887472 70.70692138027393 71.35547906345498 72.04762232818187
          71.65220848120421 71.69686112920236 71.97265905503147 71.84592318865161 71.6541604453778 70.27029065529497
          70.86491698994041 71.56763695182585 71.14925923298128 71.58603175618126 71.213879183999 71.42743303481288
          71.20442054483944 71.28365596380223 71.15754383148604 69.92515289761998 70.46882922900703 71.23270552528393
          70.73765292370058 70.81414754800261 71.06255649351958 70.99564171039934 70.8276327011342 70.91742764467052
          70.80919575294018 69.65376949423698 70.1498897857272 70.40168582892625 70.7301530538226 70.48447467391291
          70.74787488737172 70.73200361719395 70.51348529323474 70.6408877582418 70.51526526964484 69.44279531168455
          70.51747025135076 69.89473701151731 70.12890237785227 70.47895456883988 70.49629024433742 70.2140461843963
          70.25314068286035 70.40132305137998 70.32328914010081 70.26899534477145 69.28186837395792 69.69280887481874
          69.90927934652858 70.28899804837192 70.25108007260968 69.99396575491922 70.12891752126562 70.03909915414623
          70.19594583311509 70.14967122160863 70.06439265928812 70.10908122793786 69.16281492221765 69.53564918082331
          70.05977979790548 69.73468398751517 69.98913614644847 69.81690855360102 69.86505569117865 70.02174540280937
          69.99697128513563 69.89626168666754 69.9548674516286 69.07914911773597 69.41643538926554 69.8644594226682
          69.90100146856493 69.59846541263514 69.67680476800182 69.8646503381709 69.87578727881514 69.72569663762971
          69.71558852421708 69.76011642922964 69.824457603966 69.75517997697146 69.77112286938535 69.02571950935125
          69.329626213978 69.4951383408741 69.75170865705832 69.56858204760258 69.75530960922343 69.61651581919482
          69.62991273305117 69.65207908563245 69.71590122314207 69.66100905916154 69.66693016341011 68.99842696217351
          69.27067415302439 69.42012325713412 69.6569178846087 69.48795454879836 69.55533289996589 69.65777093237075
          69.53366082808405 69.58131814616071 69.56878827783203 69.62730304615236 69.58558780486662 68.99398563522489
          69.23577262485512 69.57897132195049 69.36951330344986 69.49167560881187 69.580875170744 69.43123241270193
          69.47379050672996 69.51530726011681 69.55689281633025 69.50730489078227 69.52459174990669 69.51658599667479
          69.43854975249835 69.00975534483348 69.22166603959256 69.33989259338122 69.52256837344221 69.39517724751748
          69.43397350584495 69.46212338886373 69.50305873640218 69.4650499414852 69.48174228017585 69.39546257072041
          69.46856402796742 69.04363389458614 69.22557720557211 69.32827833961237 69.48104205460264 69.37698248697546
          69.42093959625163 69.41171480136894 69.46437583034638 69.43986883983105 69.36190550985037 69.4552337956442
          69.43383946045151 69.0936891291237 69.24509195044507 69.45483716216368 69.33208210311604 69.39101321076615
          69.37427626906202 69.40500778165884 69.43971363542573 69.43013003535653 69.3374167650073 69.41157982455644
          69.44378760809208 69.15688013676849 69.44299643342784 69.27742937301788 69.37177210293069 69.3485517542046
          69.38456898787217 69.42839385497801 69.41178164422176 69.43420059035131 69.32164415971533 69.40133547576258
          69.44617886387502 69.26286912169377 69.44465996262252 69.22692037713972 69.36294288762774 69.31784577652469
          69.37341149192062 69.40386294465668 69.42986760099558 69.42841722368587 69.31444015206134 69.44890126904063
          69.4028071220143 69.45968965442145 69.25741005779665 69.3644130476687 69.45758271906297 69.29364491172174
          69.35897695384425 69.40063697998853 69.42679219694512 69.44236462806559 69.4500911103252 69.19374844180687
          69.31581892973963 69.4699244600384 69.41468849650227 69.48049501764697 69.2585640926683 69.37531949597903
          69.47841425596215 69.34748989704131 69.39457405161092 69.42701178826509 69.4525926430549 69.46302967090952
          69.19453675927801 69.32533360113038 69.47815145364622 69.5003157020005 69.43465153257046 69.51276085982704
          69.2662691781609 69.12585684999958 69.39389218785927 69.51184841765196 69.38798202416858 69.42658998243868
          69.45864591998973 69.20005361627437 69.4965930006474 69.4919903654102 69.34179824712774 69.5281723605033
          69.46709150292098 69.56017522145905 69.12887759315616 69.27994529270589 69.5799889006603 69.42391624423578
          69.5831806169198 69.21034364063499 69.42545943268844 69.46377674928723 69.50334870585336 69.56848763512332
          69.36818804123776 69.55250266211091 69.60898781338204 69.53610910085311 69.66132964123234 69.13530191637659
          69.3016243752795 69.6977133673454 69.48692897801698 69.71128178419711 69.22642599754481 69.0573205435924
          69.42247317709214 69.69989718035738 69.14512950490992 69.66396304596405 69.34492055132684 69.60504929906391
          69.0604943658136 69.25697812804509 69.52552216743159 69.16171930366767 69.42846945991428 69.06245820303259
          69.31756163599746 69.19686815236102 69.07070487101318 68.94352749424505 69.81216183741589 69.55428901398408
          69.91886280485984 70.28255351523535 70.44726959339684 70.9564660867748 71.58801379753733 72.38197809224084
          73.41878761472329 74.84670058988576 75.65350957603891 76.23751420896889 76.47180748147836 78.17138200346972
          77.87883602363351 69.19740150099396 69.12555158483526 69.27485607616443 69.29343845839247 69.31878820271089
          69.35113149063191 69.39071579291516 69.43774890966698 69.49231702853122 68.96266323422333 68.81985895806132
          68.9754175422882 68.97900240839613 69.05510022436586 69.05479610094127
        </DataArray>
      </PointData>
      <CellData>
        <DataArray type="UInt8" Name="vtkGhostType" format="ascii" RangeMin="0" RangeMax="1">
          0 0 0 0 0 0
          0 0 0 0 0 0
          0 0 0 0 0 0
          0 0 0 0 0 0
          0 0 0 0 0 0
          0 0 0 0 0 0
          0 0 0 0 0 0
          0 0 0 0 0 0
          0 0 0 0 0 0
          0 0 0 0 0 0
          0 0 0 0 0 0
          0 0 0 0 0 0
          0 0 0 0 0 0
          0 0 0 0 0 0
          0 0 0 0 0 0
          0 0 0 0 0 0
          0 0 0 0 0 0
          0 0 0 0 0 0
          0 0 0 0 0 0
          0 0 0 0 0 0
          0 0 0 0 0 0
          0 0 0 0 0 0
          0 0 0 0 0 0
          0 0 0 0 0 0
          0 0 0 0 0 0
          0 0 0 0 1 0
          1 0 0 0 0 0
          0 0 0 0 0 0
          0 0 0 0 0 1
          0 1 0 0 0 0
          0 0 0 0 0 0
          0 0 0 0 1 0
          1 0 0 0 0 0
          0 0 0 0 0 0
          0 1 0 1 0 0
          0 0 0 0 0 0
          0 0 1 1 1 1
          1 1 1 0 1 0
          0 1 1 1 0 0
          0 0 0 0 0 0
          0 0 0 0 0 0
          0 0 0 0 0 0
          0 0 0 0 0 0
          0 0 0 0 0 0
          0 0 0 0 0 0
          0 0 0 0 0 0
          0 0 0 0 0 0
          0 0 0 0 0 0
          0 0 0 0 0 0
          0 0 0 0 0 0
          0 0 0 0 0 0
          0 0 0 0 0 0
          0 0 0 0 0 0
          0 0 0 0 0 0
          0 0 0 0 0 0
          0 0 0 0 0 0
          0 0 0 0 0 0
          0 0 0 0 0 0
          0 0 0 0 0 0
          0 0 0 0 0 0
          0 0 0 0 0 0
          0 0 0 0 0 0
          0 0 0 0 0 0
          0 0 0 0 0 0
          0 0 0 0 0 0
          0 0 0 0 0 0
          0 0 0 0 0 0
          0 0 0 0 0 0
          0 0 0 0 0 0
          0 0 0 0 0 0
          0 0 0 0 0 0
          0 0 0 0 0 0
          0 0 0 0 0 0
          0 0 0 0 0 0
          0 0 0 0 0 0
          0 0 0 0 0 0
          0 0 0 0 0 0
          0 0 0 0 0 0
          0 0 0 0 0 0
          0 0 0 0 0 0
          0 0 0 0 0 0
          0 0 0 0 0 0
          0 0 0 0 0 0
          0 0 0 0 0 0
          0 0 0 0 0 0
          0 0 0 0 0 0
          0 0 0 0 0 0
          0 0 0 0 0 0
          0 0 0 0 0 0
          0 0 0 0 0 0
          0 0 0 0 0 0
          0 0 0 0 0 0
          0 0 0 0 0 0
          0 0 0 0 0 0
          0 0 0 0 0 0
          0
        </DataArray>
      </CellData>
      <Points>
        <DataArray type="Float32" Name="Points" NumberOfComponents="3" format="ascii" RangeMin="0.4333333373069763" RangeMax="1.3017082665984545">
          1 0.800000011920929 0 0.9666666388511658 0.800000011920929 0
          1 0.7666666507720947 0 0.9666666388511658 0.7666666507720947 0
          0.9333333373069763 0.7666666507720947 0 0.8999999761581421 0.7666666507720947 0
          1 0.7333333492279053 0 0.8666666746139526 0.7666666507720947 0
          0.9666666388511658 0.7333333492279053 0 0.9333333373069763 0.7333333492279053 0
          0.8999999761581421 0.7333333492279053 0 0.8333333134651184 0.7666666507720947 0
          0.8666666746139526 0.7333333492279053 0 1 0.699999988079071 0
          0.9666666388511658 0.699999988079071 0 0.9333333373069763 0.699999988079071 0
          0.8333333134651184 0.7333333492279053 0 0.8999999761581421 0.699999988079071 0
          0.8666666746139526 0.699999988079071 0 0.800000011920929 0.7333333492279053 0
          1 0.6666666865348816 0 0.9666666388511658 0.6666666865348816 0
          0.9333333373069763 0.6666666865348816 0 0.8333333134651184 0.699999988079071 0
          0.8999999761581421 0.6666666865348816 0 0.8666666746139526 0.6666666865348816 0
          0.800000011920929 0.699999988079071 0 1 0.6333333253860474 0
          0.9666666388511658 0.6333333253860474 0 0.8333333134651184 0.6666666865348816 0
          0.9333333373069763 0.6333333253860474 0 0.8999999761581421 0.6333333253860474 0
          0.7666666507720947 0.699999988079071 0 0.800000011920929 0.6666666865348816 0
          0.8666666746139526 0.6333333253860474 0 1 0.6000000238418579 0
          0.9666666388511658 0.6000000238418579 0 0.8333333134651184 0.6333333253860474 0
          0.9333333373069763 0.6000000238418579 0 0.7666666507720947 0.6666666865348816 0
          0.8999999761581421 0.6000000238418579 0 0.800000011920929 0.6333333253860474 0
          0.8666666746139526 0.6000000238418579 0 0.7333333492279053 0.6666666865348816 0
          0.8333333134651184 0.6000000238418579 0 1 0.5666666626930237 0
          0.9666666388511658 0.5666666626930237 0 0.7666666507720947 0.6333333253860474 0
          0.9333333373069763 0.5666666626930237 0 0.8999999761581421 0.5666666626930237 0
          0.800000011920929 0.6000000238418579 0 0.7333333492279053 0.6333333253860474 0
          0.8666666746139526 0.5666666626930237 0 0.7666666507720947 0.6000000238418579 0
          0.8333333134651184 0.5666666626930237 0 1 0.5333333611488342 0
          0.9666666388511658 0.5333333611488342 0 0.9333333373069763 0.5333333611488342 0
          0.699999988079071 0.6333333253860474 0 0.8999999761581421 0.5333333611488342 0
          0.800000011920929 0.5666666626930237 0 0.7333333492279053 0.6000000238418579 0
          0.8666666746139526 0.5333333611488342 0 0.7666666507720947 0.5666666626930237 0
          0.8333333134651184 0.5333333611488342 0 1 0.5 0
          0.699999988079071 0.6000000238418579 0 0.9666666388511658 0.5 0
          0.9333333373069763 0.5 0 0.800000011920929 0.5333333611488342 0
          0.7333333492279053 0.5666666626930237 0 0.8999999761581421 0.5 0
          0.8666666746139526 0.5 0 0.7666666507720947 0.5333333611488342 0
          0.699999988079071 0.5666666626930237 0 0.8333333134651184 0.5 0
          1 0.46666666865348816 0 0.9666666388511658 0.46666666865348816 0
          0.9333333373069763 0.46666666865348816 0 0.7333333492279053 0.5333333611488342 0
          0.800000011920929 0.5 0 0.8999999761581421 0.46666666865348816 0
          0.6666666865348816 0.5666666626930237 0 0.8666666746139526 0.46666666865348816 0
          0.7666666507720947 0.5 0 0.699999988079071 0.5333333611488342 0
          0.8333333134651184 0.46666666865348816 0 0.7333333492279053 0.5 0
          1 0.4333333373069763 0 0.9666666388511658 0.4333333373069763 0
          0.800000011920929 0.46666666865348816 0 0.9333333373069763 0.4333333373069763 0
          0.6666666865348816 0.5333333611488342 0 0.8999999761581421 0.4333333373069763 0
          0.8666666746139526 0.4333333373069763 0 0.7666666507720947 0.46666666865348816 0
          0.699999988079071 0.5 0 0.8333333134651184 0.4333333373069763 0
          0.7333333492279053 0.46666666865348816 0 1 0.4000000059604645 0
          0.9666666388511658 0.4000000059604645 0 0.6666666865348816 0.5 0
          0.800000011920929 0.4333333373069763 0 0.9333333373069763 0.4000000059604645 0
          0.8999999761581421 0.4000000059604645 0 0.699999988079071 0.46666666865348816 0
          0.7666666507720947 0.4333333373069763 0 0.8666666746139526 0.4000000059604645 0
          0.6333333253860474 0.5 0 0.8333333134651184 0.4000000059604645 0
          0.7333333492279053 0.4333333373069763 0 0.6666666865348816 0.46666666865348816 0
          0.800000011920929 0.4000000059604645 0 1 0.36666667461395264 0
          0.9666666388511658 0.36666667461395264 0 0.9333333373069763 0.36666667461395264 0
          0.699999988079071 0.4333333373069763 0 0.8999999761581421 0.36666667461395264 0
          0.7666666507720947 0.4000000059604645 0 0.8666666746139526 0.36666667461395264 0
          0.6333333253860474 0.46666666865348816 0 0.8333333134651184 0.36666667461395264 0
          0.7333333492279053 0.4000000059604645 0 0.6666666865348816 0.4333333373069763 0
          0.800000011920929 0.36666667461395264 0 1 0.3333333432674408 0
          0.9666666388511658 0.3333333432674408 0 0.9333333373069763 0.3333333432674408 0
          0.699999988079071 0.4000000059604645 0 0.8999999761581421 0.3333333432674408 0
          0.6333333253860474 0.4333333373069763 0 0.7666666507720947 0.36666667461395264 0
          0.8666666746139526 0.3333333432674408 0 0.6666666865348816 0.4000000059604645 0
          0.8333333134651184 0.3333333432674408 0 0.7333333492279053 0.36666667461395264 0
          0.800000011920929 0.3333333432674408 0 1 0.30000001192092896 0
          0.9666666388511658 0.30000001192092896 0 0.699999988079071 0.36666667461395264 0
          0.9333333373069763 0.30000001192092896 0 0.6333333253860474 0.4000000059604645 0
          0.7666666507720947 0.3333333432674408 0 0.8999999761581421 0.30000001192092896 0
          0.8666666746139526 0.30000001192092896 0 0.6666666865348816 0.36666667461395264 0