<?xml version="1.0"?>
<VTKFile type="UnstructuredGrid" version="0.1" byte_order="LittleEndian" header_type="UInt32" compressor="vtkZLibDataCompressor">
  <UnstructuredGrid>
    <Piece NumberOfPoints="322" NumberOfCells="571">
      <PointData>
        <DataArray type="Float64" Name="Velocity" NumberOfComponents="3" format="ascii" RangeMin="0" RangeMax="0.3178994799606304">
          0 0 0 -0.010026608181019778 -0.16505919907359676 0
          0 0 0 -0.008105552746078758 -0.14584507284556544 0
          -0.028160705483374498 -0.24017619261405743 0 -0.049163112777767616 -0.2913934920463167 0
          0 0 0 -0.06360393777940548 -0.3088034237924469 0
          -0.00692719708180409 -0.12919292574553778 0 -0.02573829209265192 -0.21822586598510116 0
          -0.04789110153029582 -0.2718109188660464 0 -0.06849378553913786 -0.3019952932384159 0
          -0.06685512211078978 -0.2959593210898012 0 0 0 0
          -0.0060456659216241776 -0.11441251795202527 0 -0.02354240442845565 -0.19702508288416623 0
          -0.07938988391727916 -0.2973701427110751 0 -0.04570579460981063 -0.2503118584642655 0
          -0.06691553370755808 -0.27819952716344903 0 -0.08471534490892209 -0.2827032203480993 0
          0 0 0 -0.0053406356156377715 -0.10114822379583185 0
          -0.021521789624887572 -0.17684617287716087 0 -0.08407882586846048 -0.28543221074335584 0
          -0.043083361677556914 -0.22821088418427735 0 -0.06520429678103239 -0.2577739825046443 0
          -0.09592212388293443 -0.27697029613503404 0 0 0 0
          -0.004762931172500375 -0.08918876648815412 0 -0.0850401256485996 -0.2688922427746308 0
          -0.019676533080915905 -0.15785784537174322 0 -0.04029409923035625 -0.2063063574435285 0
          -0.10239485530544089 -0.25742245509538025 0 -0.10113378006912675 -0.2652482551979512 0
          -0.06248679433459702 -0.23611152677290312 0 0 0 0
          -0.0042768474728176915 -0.0783729573377567 0 -0.0836852382987523 -0.24962104199478505 0
          -0.01799342425670299 -0.1401285306743227 0 -0.11293673680442491 -0.25042946928083387 0
          -0.03748302933049895 -0.18507380063594986 0 -0.10239097293073048 -0.2495514320283684 0
          -0.05920571811579154 -0.21412779399797852 0 -0.12060278818796455 -0.22762699139968123 0
          -0.08086735611889227 -0.22889950360868214 0 0 0 0
          -0.0038564583315901517 -0.06856920811700344 0 -0.11778816952785916 -0.23867322034079877 0
          -0.01645072968683728 -0.1236629041332385 0 -0.034723148331686146 -0.164793299449207 0
          -0.101003423950407 -0.231372369764676 0 -0.12962855985729058 -0.21957893765348444 0
          -0.05562844863354516 -0.19242316396004783 0 -0.11866346785076472 -0.2236700543806596 0
          -0.07713221046934765 -0.20762014483923052 0 0 0 0
          -0.003485060641258354 -0.05967086441763691 0 -0.015028788972889588 -0.10843370728790165 0
          -0.13812281477939423 -0.19453236460804083 0 -0.032051437390466384 -0.14562702438694494 0
          -0.0978454325293763 -0.21181131019899116 0 -0.1333510185323107 -0.20787503322167591 0
          -0.051921986004284805 -0.17139625198914982 0 -0.1167638627050227 -0.20660971387662427 0
          -0.07284228994740147 -0.18641187367983392 0 0 0 0
          -0.1449736494400451 -0.1858971075093905 0 -0.0031522689400169616 -0.051590892924618555 0
          -0.013712740726689697 -0.09439831516102158 0 -0.093519620697028 -0.1916788411553772 0
          -0.13324360848943842 -0.19367246715082043 0 -0.02948739891780355 -0.12766271421836808 0
          -0.048193424126820594 -0.15130882000173074 0 -0.11294656138414863 -0.1884082012240947 0
          -0.1469866886591481 -0.17458764019608528 0 -0.06824357235109021 -0.165715412525642 0
          0 0 0 -0.0028512576810466725 -0.04425659981274599 0
          -0.01249122322369374 -0.08150636636216249 0 -0.1303992667419189 -0.17790633506259645 0
          -0.08844936502298474 -0.17156711897532523 0 -0.027040752882832246 -0.11093917646841753 0
          -0.15796548273627248 -0.15079477895644242 0 -0.04451185781485688 -0.13232688364841516 0
          -0.10783159592013646 -0.16975923026632878 0 -0.1454453426013122 -0.1614792181452257 0
          -0.06350415986886127 -0.14583406801189724 0 -0.12563229123422417 -0.16131127477947255 0
          0 0 0 -0.0025770645909035683 -0.03760594026391327 0
          -0.08293420143080042 -0.15190229353438356 0 -0.011354579680315785 -0.06970405877871749 0
          -0.15789460532283656 -0.14036009077855563 0 -0.024714300013653916 -0.09546292030882725 0
          -0.040920208036501364 -0.11454931010768785 0 -0.1018698265547236 -0.15117936686706887 0
          -0.1413363682870169 -0.1472869371375997 0 -0.05873742355007342 -0.1269709216779662 0
          -0.11954998413357787 -0.1444516889970642 0 0 0 0
          -0.0023256574502063974 -0.031585470272245335 0 -0.15464099885092203 -0.12873013375299078 0
          -0.07718456876257955 -0.1329851846941878 0 -0.010293506413293024 -0.058937363917447916 0
          -0.02250492353407201 -0.08121993164069748 0 -0.1354144370163812 -0.13257764252128806 0
          -0.09538732859545333 -0.13304644747487426 0 -0.037441671368538404 -0.09802854985426851 0
          -0.1654020189423728 -0.10662128559504616 0 -0.05401604084151509 -0.10925671207619872 0
          -0.11260235838524654 -0.1277526563316968 0 -0.14908631421298474 -0.1164320614604293 0
          -0.07134409879630552 -0.11502302307600588 0 0 0 0
          -0.0020933603303220512 -0.026149496931534618 0 -0.009298064780331447 -0.049154853537624034 0
          -0.12825128366510688 -0.11778990790894102 0 -0.020403840958644434 -0.06818449662782612 0
          -0.08861506302103442 -0.11563129303073226 0 -0.034083320580474995 -0.08278603859946207 0
          -0.16033320524432482 -0.09686623447330614 0 -0.04938067450407362 -0.09277091494351154 0
          -0.10511694236100697 -0.11152796490045852 0 -0.14191257061098644 -0.10388460305347728 0
          -0.06550421534103809 -0.09815416673224044 0 0 0 0
          -0.0018764350655324743 -0.021260009720896873 0 -0.00835691750370522 -0.040310334782120774 0
          -0.12027242317856587 -0.10325565866309383 0 -0.018396564697463594 -0.05632611952207961 0
          -0.1532938729419847 -0.08676761978257787 0 -0.08170917749075214 -0.09912344828347998 0
          -0.030838249431531312 -0.0688239559553384 0 -0.13363732817498603 -0.09141199652848132 0
          -0.04484561254954847 -0.07755793772165913 0 -0.09732361561994522 -0.09600428392061072 0
          -0.05971406670153109 -0.08246750304966488 0 0 0 0
          -0.0016707841744977297 -0.016887097176745393 0 -0.11178468596952736 -0.08922066454003634 0
          -0.007456794718027125 -0.0323653022387451 0 -0.14488159706292403 -0.07661786703999303 0
          -0.0747653352731319 -0.08365205803364817 0 -0.01646288716281485 -0.04561507518064059 0
          -0.027687124340553395 -0.056134381229092145 0 -0.12464180210005345 -0.07925947163898794 0
          -0.08937276504381535 -0.08134166414317226 0 -0.04040285038871313 -0.06363975651054446 0
          -0.053987778253787616 -0.0680178522100413 0 -0.10299713060751564 -0.07586301994210874 0
          -0.13554427675060132 -0.06664250624795277 0 0 0 0
          -0.0014718246025439265 -0.013009891372614053 0 -0.00658230037067087 -0.025291360822124142 0
          -0.06782932932991073 -0.06930289667849741 0 -0.014577212365355918 -0.03602705887735236 0
          -0.024599803480099814 -0.044706667954648144 0 -0.11519319997164716 -0.06760848684578273 0
          -0.08134899088079847 -0.06765086545448039 0 -0.0360256699020103 -0.05102607976533249 0
          -0.04831042580344056 -0.05483852846704044 0 -0.1256025676873915 -0.05701147875825484 0
          -0.0940372024503695 -0.06330947992098768 0 0 0 0
          -0.0012744563494230044 -0.009618440655379205 0 -0.0057161473363272625 -0.019073044830308198 0
          -0.0609055855254164 -0.05613256730967958 0 -0.012709593787776153 -0.027547567912831666 0
          -0.10546247365712029 -0.056590992497968444 0 -0.021537663717188415 -0.03453398960064557 0
          -0.07328197554584027 -0.05500821615313633 0 -0.031672613661588994 -0.03972327303506928 0
          -0.11526831441241592 -0.047850559559943266 0 -0.042643831668995553 -0.042952436924517584 0
          -0.08496355481696044 -0.05164994555562897 0 0 0 0
          -0.0010727157982248598 -0.006715954490945517 0 -0.05396476615266939 -0.04418121218091917 0
          -0.004839848074069168 -0.013710401677456935 0 -0.09553851897165287 -0.04630259029350354 0
          -0.010827986868285658 -0.020175571293806212 0 -0.018457454165106083 -0.025618966128361897 0
          -0.06515571273551836 -0.04346914321274903 0 -0.027292817704242425 -0.029742345189582735 0
          -0.10465949673080699 -0.039252419915457304 0 -0.07577659041143113 -0.04095091435941116 0
          -0.03693317415171562 -0.03238232818373717 0 0 0 0
          -0.046951402722689155 -0.033484552549085285 0 -0.0008588812665879157 -0.0043176047198447455 0
          -0.08543963371388694 -0.03681501815022939 0 -0.00393534288284243 -0.009217159438046222 0
          -0.008902798610447021 -0.013922421417653902 0 -0.05691688774583363 -0.03308124929021511 0
          -0.01531804966840968 -0.01797459661325115 0 -0.022834098547838307 -0.02110259787729119 0
          -0.09381218311351826 -0.03128736932290186 0 -0.0664273117484105 -0.03126871081630483 0
          -0.031115661059862083 -0.023157265102030252 0 -0.1006189058536106 -0.02461899666764297 0
          -0.03979257224230052 -0.024082807714178762 0 0 0 0
          -0.07512257545469105 -0.028188630244773055 0 -0.0006237909792873588 -0.0024406252508170833 0
          -0.002989743232369996 -0.00560911228431491 0 -0.006916009189733195 -0.008801224753886094 0
          -0.048483137978465346 -0.023895005313983107 0 -0.012092365942260338 -0.011616079921231644 0
          -0.08268956654303102 -0.02401425071354962 0 -0.01825596059368708 -0.013826674120152704 0
          -0.05682489836629687 -0.022661104426966797 0 -0.025133288708486714 -0.015311115421340928 0
          -0.08886606603933353 -0.018940178197315152 0 -0.06448931156481748 -0.020484044062702045 0
          -0.032409473385214604 -0.01602241423087193 0 0 0 0
          -0.00036379084487656667 -0.0010896170124475876 0 -0.0020083196792554476 -0.0028894062800892436 0
          -0.004879067678704204 -0.00481675939985854 0 -0.03975287527549349 -0.01596818477382933 0
          -0.008787927177599048 -0.006556331052666284 0 -0.09344452732614678 -0.013174877760443397 0
          -0.07118784002463906 -0.017491259256402557 0 -0.013550538448896886 -0.007941276969501455 0
          -0.0468445067392674 -0.015193788252468636 0 -0.01895241604176437 -0.008887498444531225 0
          -0.07667683559181775 -0.013826694328503383 0 -0.053392750688558345 -0.013769945661540352 0
          -0.02473451877711752 -0.009364008458605572 0 0 0 0
          -0.00010150218315604 -0.00025524194056793877 0 -0.001044447741221501 -0.0010545257055881504 0
          -0.002868063585875644 -0.001986309547658865 0 -0.03061930951081726 -0.009375678603817522 0
          -0.08076201093925424 -0.009645001909565536 0 -0.059139951263044666 -0.011784388851406098 0
          -0.0054834579668303985 -0.002842783554481493 0 -0.008777006729046128 -0.003527271170761846 0
          -0.03633804632000775 -0.008950930557323664 0 -0.012593510844845099 -0.003998680876528542 0
          -0.06386751341471072 -0.009336115262525056 0 -0.08330157303718562 -0.005107454786626725 0
          -0.04164437441052053 -0.008133455637266706 0 -0.016735249778716883 -0.004245119394621626 0
          0 0 0 0.00007764323317913457 0.00007510853599230265 0
          -0.00025724096622715774 -0.00011336744930610492 0 -0.06740039409474577 -0.0065312952939386975 0
          -0.020988352402031188 -0.004271333846476222 0 -0.0010915499197837973 -0.00037717157395929907 0
          -0.04632034431486475 -0.006976896631677999 0 -0.002397519588098208 -0.000618799086049204 0
          -0.025146496320353328 -0.004092229687586504 0 -0.004122330042570055 -0.0008044390255994235 0
          -0.06961027333898563 -0.003480403547184359 0 -0.05018086392176607 -0.0055412770816030315 0
          -0.006177912300454816 -0.0009284075423187703 0 -0.029021718381656306 -0.0037292695337483675 0
          -0.008444725955927759 -0.0009934945129032775 0 -0.05307753049663436 -0.0038905056836038595 0
          0 0 0 0 0 0
          0 0 0 -0.010793229340044215 -0.0010039615955034769 0
          -0.03244850797179551 -0.003208155634989246 0 0 0 0
          0 0 0 -0.01310090212866414 -0.0009646344949800257 0
          0 0 0 -0.054901292526031084 -0.0020906410608363306 0
          -0.0352866843478032 -0.002557166815253221 0 0 0 0
          -0.01525845745939483 -0.0008812503828242933 0 0 0 0
          -0.03742394852636905 -0.0018060000220674378 0 -0.05558401065601459 -0.000208659062526914 0
          -0.017170958022174044 -0.0007603503759727827 0 0 0 0
          -0.038777572377804784 -0.0009849979716411198 0 0 0 0
          -0.018758535002046415 -0.0006088820044938297 0 0 0 0
          -0.039295194590208374 -0.00012457085918367644 0 -0.01995738749876315 -0.00043390733632150155 0
          0 0 0 -0.0207204359933252 -0.00024247135635125747 0
          0 0 0 -0.021017430419625796 -0.00004150619259442834 0
          0 0 0 0 0 0
          0 0 0 0 0 0
          -0.16772631411601066 -0.11566338738428798 0 -0.17358330886724527 -0.08185299467654494 0
          -0.1663247848332216 -0.12353961731741062 0 -0.153729311089608 -0.15939017709423878 0
          -0.14376950788543585 -0.16538973976335541 0 -0.12477453100348063 -0.19946575043118595 0
          -0.10428298078399226 -0.2306435872648048 0 -0.08368167688175482 -0.25778795159261014 0
          -0.06425414862240907 -0.27984595476990226 0 -0.04692484193307578 -0.2956243628986059 0
          -0.05428199371298475 -0.3132308166796216 0 -0.04855258539843933 -0.3068379946693409 0
          -0.031104097641084613 -0.2624422557160545 0 -0.013985703628605843 -0.18768621022919077 0
          0 0 0 -0.10564421291954104 -0.017076927262935953 0
          -0.09627460828424425 -0.00693538006068699 0 -0.11204338456306336 -0.030812774006597037 0
          -0.1231699261208297 -0.03746984705771335 0 -0.13394631519644903 -0.04452803825973965 0
          -0.14422885685717743 -0.05190605025721125 0 -0.1537703189904689 -0.059495075948465335 0
          -0.16220482949142725 -0.06715036892117551 0 -0.1690295688147234 -0.07468307565135907 0
          -0.020834670343178728 0.0001623294074149031 0 0 0 0
          -0.038955061292077764 0.000745366671909768 0 -0.05509940676060379 0.0016885405083143699 0
          -0.07041746251521043 -0.0002962644608810589 0 -0.08420803653508399 -0.00037921248226685647 0
          <InformationKey name="L2_NORM_RANGE" location="vtkDataArray" length="2">
            <Value index="0">
              0
            </Value>
            <Value index="1">
              0.31789947996
            </Value>
          </InformationKey>
        </DataArray>
        <DataArray type="Float64" Name="Pressure" format="ascii" RangeMin="68.85796232359131" RangeMax="78.19832743027428">
          75.6405961341976 76.31658612368174 74.07742961695648 74.8708696446004 75.11220392787705 74.95140617161357
          72.8991538245636 74.57029947850346 73.69427191055054 73.9723130655617 73.87712970970232 74.04475427441926
          73.62648914745226 71.99003211895112 72.74551054986897 73.04327852822703 73.28573056148815 73.00906027023599
          72.85138177628627 72.86929357531436 71.28226938857297 71.98579857568078 72.28846898123739 72.62965108924058
          72.30142363066354 72.21115851365666 72.34123117635701 70.72624794087685 71.37564177988736 72.06920146210675
          71.6727766350487 71.71782883189925 71.99403409703882 71.86768114632027 71.67552089105081 70.28673290547671
          70.8834140345166 71.58937566186299 71.16888970453907 71.60814882131274 71.23430876475716 71.44961135822862
          71.22556683343723 71.30630824216307 71.17936930654271 69.93918072632218 70.48591235032875 71.25543696010715
          70.75647361243784 70.83410123892645 71.08507254592736 71.01904653906765 70.84858268459551 70.94068822305078
          70.83109340575497 69.66593010244766 70.16588014395546 70.41988855978438 70.75434715834162 70.50407529561942
          70.77069229775954 70.75607898731944 70.53431168996454 70.66462809817703 70.53726701898107 69.45367186617847
          70.54243677246694 69.90999645056095 70.14672140503335 70.502074643257 70.52098060150074 70.23345918048965
          70.27395632524897 70.42552332298352 70.34897183787987 70.2911683549483 69.2920483215634 69.70771647704726
          69.92697279045288 70.31426983888916 70.2745336431385 70.01338322375013 70.15564805546235 70.0600436538125
          70.22061004523019 70.17602844814543 70.08682902622853 70.13491914494993 69.17286669880643 69.55058273605157
          70.08361974330094 69.75251829524034 70.01660994593621 69.83653551344291 69.88628377525109 70.04689628335447
          70.02397398726758 69.91906926843978 69.98127128431345 69.08960565259008 69.43175702241945 69.8926378698552
          69.92529598966188 69.61670254843796 69.69684755998259 69.89228065701688 69.9014616896717 69.74736815434332
          69.74496961085191 69.78341085220907 69.8514395086502 69.78403152743536 69.79594952506554 69.03706675038212
          69.3456711692969 69.51402509403623 69.77995886489471 69.58923843133918 69.78155443025705 69.63878707660383
          69.6599966685804 69.67597666081672 69.74348326134191 69.69050972125338 69.69237041987572 69.01109557805674
          69.28774165872359 69.43988193324829 69.68578942457819 69.50940487606364 69.5860821650703 69.68463913672566
          69.55667673923591 69.61145190239851 69.59339938569214 69.65551464904215 69.61172171309646 69.00834415601521
          69.25411792721378 69.60847353365892 69.39033331795812 69.52305916216912 69.60842172597361 69.45363159476324
          69.49767740390631 69.54606593300633 69.5857678001687 69.53272784437647 69.55149289795827 69.54673412028582
          69.47054392551878 69.02610342049009 69.24149322772475 69.36192320917705 69.55084623392847 69.41864820247498
          69.45883367899773 69.49350549268708 69.53263223830149 69.4913666899151 69.50947462679434 69.42805061479501
          69.49937695098664 69.06219438524012 69.24703299205562 69.35162348101376 69.5101000451414 69.40161257251171
          69.45294872875098 69.43762483463996 69.49468312633797 69.46714507557397 69.39507643800764 69.48385328912913
          69.46533932252443 69.11459475462075 69.26825897457616 69.48472284695573 69.35679653920923 69.42365826982582
          69.40011586330188 69.43201982166414 69.47079400791289 69.45841902125554 69.37116598864411 69.44379664565561
          69.47334815759316 69.18014313219768 69.47376377104035 69.30231131875472 69.40507246643081 69.37463148706934
          69.41162316421479 69.46029949639276 69.43991632741253 69.46353782937166 69.355979059303 69.43431692254308
          69.47672896215336 69.29819756267854 69.47636795498792 69.25237320647048 69.3969387357799 69.344331761823
          69.40076673811737 69.43206324835876 69.46266430242198 69.45763229544572 69.34939075840514 69.4792707942746
          69.43662118424459 69.4912376397903 69.29326317099468 69.39916991865852 69.49026108887266 69.32087541368784
          69.38679275111575 69.42905700984232 69.45596606813025 69.47609933329468 69.48025146781107 69.23046510625136
          69.35144421259864 69.50122816991265 69.44939418638475 69.51297678304626 69.29499103067477 69.41090305429249
          69.51202900472583 69.37586738625257 69.42328473319085 69.45617958659655 69.48250474412936 69.49769392964649
          69.23171369776762 69.3617008085164 69.50910236960821 69.53247685704616 69.47026063483307 69.5461656081167
          69.3033344057841 69.16375272039045 69.43032873277748 69.54643837376044 69.41688558964562 69.45574795219358
          69.48825806643566 69.23774905034931 69.53225840959331 69.52247948221677 69.37894250782689 69.5599243795442
          69.50369213958727 69.5933872146868 69.16716020028443 69.31768739122818 69.61467025753772 69.46129531234209
          69.61921546301275 69.24859464018108 69.45461153246654 69.49317835605065 69.53327178938207 69.60568804540047
          69.40618686224562 69.58353167304264 69.64167098042842 69.57424729562175 69.69594627583278 69.17400229003927
          69.34009746841623 69.73425479857464 69.5257603363976 69.74953548626152 69.26525425109664 69.09644530574293
          69.46175756290978 69.73953268781774 69.18423018699097 69.70459081171299 69.3844421300762 69.64626176458356
          69.0998274139444 69.29656195016044 69.56692734599066 69.2012437012066 69.46971968108967 69.10186266311929
          69.35837676753766 69.23705275921824 69.11015933790316 68.98225370915256 69.84079778662668 69.58491317903949
          69.94670849517703 70.30849533619337 70.4723701181819 70.979814218838 71.6098001128352 72.40243304818539
          73.43819231039103 74.86536185835052 75.67327865148924 76.25871291877849 76.49507857019664 78.19832743027428
          77.91344207502557 69.233695080572 69.16311028757383 69.30967762037844 69.3277473448611 69.3525661083208
          69.38435340272348 69.4233508718685 69.46975956228434 69.52365899134237 69.00195204712855 68.85796232359131
          69.01498817722266 69.01856277411154 69.09395571536862 69.09340326871703
        </DataArray>
      </PointData>
      <CellData>
        <DataArray type="UInt8" Name="vtkGhostType" format="ascii" RangeMin="0" RangeMax="1">
          0 0 0 0 0 0
          0 0 0 0 0 0
          0 0 0 0 0 0
          0 0 0 0 0 0
          0 0 0 0 0 0
          0 0 0 0 0 0
          0 0 0 0 0 0
          0 0 0 0 0 0
          0 0 0 0 0 0
          0 0 0 0 0 0
          0 0 0 0 0 0
          0 0 0 0 0 0
          0 0 0 0 0 0
          0 0 0 0 0 0
          0 0 0 0 0 0
          0 0 0 0 0 0
          0 0 0 0 0 0
          0 0 0 0 0 0
          0 0 0 0 0 0
          0 0 0 0 0 0
          0 0 0 0 0 0
          0 0 0 0 0 0
          0 0 0 0 0 0
          0 0 0 0 0 0
          0 0 0 0 0 0
          0 0 0 0 1 0
          1 0 0 0 0 0
          0 0 0 0 0 0
          0 0 0 0 0 1
          0 1 0 0 0 0
          0 0 0 0 0 0
          0 0 0 0 1 0
          1 0 0 0 0 0
          0 0 0 0 0 0
          0 1 0 1 0 0
          0 0 0 0 0 0
          0 0 1 1 1 1
          1 1 1 0 1 0
          0 1 1 1 0 0
          0 0 0 0 0 0
          0 0 0 0 0 0
          0 0 0 0 0 0
          0 0 0 0 0 0
          0 0 0 0 0 0
          0 0 0 0 0 0
          0 0 0 0 0 0
          0 0 0 0 0 0
          0 0 0 0 0 0
          0 0 0 0 0 0
          0 0 0 0 0 0
          0 0 0 0 0 0
          0 0 0 0 0 0
          0 0 0 0 0 0
          0 0 0 0 0 0
          0 0 0 0 0 0
          0 0 0 0 0 0
          0 0 0 0 0 0
          0 0 0 0 0 0
          0 0 0 0 0 0
          0 0 0 0 0 0
          0 0 0 0 0 0
          0 0 0 0 0 0
          0 0 0 0 0 0
          0 0 0 0 0 0
          0 0 0 0 0 0
          0 0 0 0 0 0
          0 0 0 0 0 0
          0 0 0 0 0 0
          0 0 0 0 0 0
          0 0 0 0 0 0
          0 0 0 0 0 0
          0 0 0 0 0 0
          0 0 0 0 0 0
          0 0 0 0 0 0
          0 0 0 0 0 0
          0 0 0 0 0 0
          0 0 0 0 0 0
          0 0 0 0 0 0
          0 0 0 0 0 0
          0 0 0 0 0 0
          0 0 0 0 0 0
          0 0 0 0 0 0
          0 0 0 0 0 0
          0 0 0 0 0 0
          0 0 0 0 0 0
          0 0 0 0 0 0
          0 0 0 0 0 0
          0 0 0 0 0 0
          0 0 0 0 0 0
          0 0 0 0 0 0
          0 0 0 0 0 0
          0 0 0 0 0 0
          0 0 0 0 0 0
          0 0 0 0 0 0
          0 0 0 0 0 0
          0
        </DataArray>
      </CellData>
      <Points>
        <DataArray type="Float32" Name="Points" NumberOfComponents="3" format="ascii" RangeMin="0.4333333373069763" RangeMax="1.3017082665984545">
          1 0.800000011920929 0 0.9666666388511658 0.800000011920929 0
          1 0.7666666507720947 0 0.9666666388511658 0.7666666507720947 0
          0.9333333373069763 0.7666666507720947 0 0.8999999761581421 0.7666666507720947 0
          1 0.7333333492279053 0 0.8666666746139526 0.7666666507720947 0
          0.9666666388511658 0.7333333492279053 0 0.9333333373069763 0.7333333492279053 0
          0.8999999761581421 0.7333333492279053 0 0.8333333134651184 0.7666666507720947 0
          0.8666666746139526 0.7333333492279053 0 1 0.699999988079071 0
          0.9666666388511658 0.699999988079071 0 0.9333333373069763 0.699999988079071 0
          0.8333333134651184 0.7333333492279053 0 0.8999999761581421 0.699999988079071 0
          0.8666666746139526 0.699999988079071 0 0.800000011920929 0.7333333492279053 0
          1 0.6666666865348816 0 0.9666666388511658 0.6666666865348816 0
          0.9333333373069763 0.6666666865348816 0 0.8333333134651184 0.699999988079071 0
          0.8999999761581421 0.6666666865348816 0 0.8666666746139526 0.6666666865348816 0
          0.800000011920929 0.699999988079071 0 1 0.6333333253860474 0
          0.9666666388511658 0.6333333253860474 0 0.8333333134651184 0.6666666865348816 0
          0.9333333373069763 0.6333333253860474 0 0.8999999761581421 0.6333333253860474 0
          0.7666666507720947 0.699999988079071 0 0.800000011920929 0.6666666865348816 0
          0.8666666746139526 0.6333333253860474 0 1 0.6000000238418579 0
          0.9666666388511658 0.6000000238418579 0 0.8333333134651184 0.6333333253860474 0
          0.9333333373069763 0.6000000238418579 0 0.7666666507720947 0.6666666865348816 0
          0.8999999761581421 0.6000000238418579 0 0.800000011920929 0.6333333253860474 0
          0.8666666746139526 0.6000000238418579 0 0.7333333492279053 0.6666666865348816 0
          0.8333333134651184 0.6000000238418579 0 1 0.5666666626930237 0
          0.9666666388511658 0.5666666626930237 0 0.7666666507720947 0.6333333253860474 0
          0.9333333373069763 0.5666666626930237 0 0.8999999761581421 0.5666666626930237 0
          0.800000011920929 0.6000000238418579 0 0.7333333492279053 0.6333333253860474 0
          0.8666666746139526 0.5666666626930237 0 0.7666666507720947 0.6000000238418579 0
          0.8333333134651184 0.5666666626930237 0 1 0.5333333611488342 0
          0.9666666388511658 0.5333333611488342 0 0.9333333373069763 0.5333333611488342 0
          0.699999988079071 0.6333333253860474 0 0.8999999761581421 0.5333333611488342 0
          0.800000011920929 0.5666666626930237 0 0.7333333492279053 0.6000000238418579 0
          0.8666666746139526 0.5333333611488342 0 0.7666666507720947 0.5666666626930237 0
          0.8333333134651184 0.5333333611488342 0 1 0.5 0
          0.699999988079071 0.6000000238418579 0 0.9666666388511658 0.5 0
          0.9333333373069763 0.5 0 0.800000011920929 0.5333333611488342 0
          0.7333333492279053 0.5666666626930237 0 0.8999999761581421 0.5 0
          0.8666666746139526 0.5 0 0.7666666507720947 0.5333333611488342 0
          0.699999988079071 0.5666666626930237 0 0.8333333134651184 0.5 0
          1 0.46666666865348816 0 0.9666666388511658 0.46666666865348816 0
          0.9333333373069763 0.46666666865348816 0 0.7333333492279053 0.5333333611488342 0
          0.800000011920929 0.5 0 0.8999999761581421 0.46666666865348816 0
          0.6666666865348816 0.5666666626930237 0 0.8666666746139526 0.46666666865348816 0
          0.7666666507720947 0.5 0 0.699999988079071 0.5333333611488342 0
          0.8333333134651184 0.46666666865348816 0 0.7333333492279053 0.5 0
          1 0.4333333373069763 0 0.9666666388511658 0.4333333373069763 0
          0.800000011920929 0.46666666865348816 0 0.9333333373069763 0.4333333373069763 0
          0.6666666865348816 0.5333333611488342 0 0.8999999761581421 0.4333333373069763 0
          0.8666666746139526 0.4333333373069763 0 0.7666666507720947 0.46666666865348816 0
          0.699999988079071 0.5 0 0.8333333134651184 0.4333333373069763 0
          0.7333333492279053 0.46666666865348816 0 1 0.4000000059604645 0
          0.9666666388511658 0.4000000059604645 0 0.6666666865348816 0.5 0
          0.800000011920929 0.4333333373069763 0 0.9333333373069763 0.4000000059604645 0
          0.8999999761581421 0.4000000059604645 0 0.699999988079071 0.46666666865348816 0
          0.7666666507720947 0.4333333373069763 0 0.8666666746139526 0.4000000059604645 0
          0.6333333253860474 0.5 0 0.8333333134651184 0.4000000059604645 0
          0.7333333492279053 0.4333333373069763 0 0.6666666865348816 0.46666666865348816 0
          0.800000011920929 0.4000000059604645 0 1 0.36666667461395264 0
          0.9666666388511658 0.36666667461395264 0 0.9333333373069763 0.36666667461395264 0
          0.699999988079071 0.4333333373069763 0 0.8999999761581421 0.36666667461395264 0
          0.7666666507720947 0.4000000059604645 0 0.8666666746139526 0.36666667461395264 0
          0.6333333253860474 0.46666666865348816 0 0.8333333134651184 0.36666667461395264 0
          0.7333333492279053 0.4000000059604645 0 0.6666666865348816 0.4333333373069763 0
          0.800000011920929 0.36666667461395264 0 1 0.3333333432674408 0
          0.9666666388511658 0.3333333432674408 0 0.9333333373069763 0.3333333432674408 0
          0.699999988079071 0.4000000059604645 0 0.8999999761581421 0.3333333432674408 0
          0.6333333253860474 0.4333333373069763 0 0.7666666507720947 0.36666667461395264 0
          0.8666666746139526 0.3333333432674408 0 0.6666666865348816 0.4000000059604645 0
          0.8333333134651184 0.3333333432674408 0 0.7333333492279053 0.36666667461395264 0
          0.800000011920929 0.3333333432674408 0 1 0.30000001192092896 0
          0.9666666388511658 0.30000001192092896 0 0.699999988079071 0.36666667461395264 0
          0.9333333373069763 0.30000001192092896 0 0.6333333253860474 0.4000000059604645 0
          0.7666666507720947 0.3333333432674408 0 0.8999999761581421 0.30000001192092896 0
          0.8666666746139526 0.30000001192092896 0 0.6666666865348816 0.36666667461395264 0