<?xml version="1.0"?>
<VTKFile type="UnstructuredGrid" version="0.1" byte_order="LittleEndian" header_type="UInt32" compressor="vtkZLibDataCompressor">
  <UnstructuredGrid>
    <Piece NumberOfPoints="324" NumberOfCells="580">
      <PointData>
        <DataArray type="Float64" Name="Velocity" NumberOfComponents="3" format="ascii" RangeMin="0" RangeMax="0.24746467598773544">
          -0.14377108087693874 -0.1628690783654921 0 -0.14723697057220192 -0.13144615544614488 0
          -0.15320460596271399 -0.15684957672606997 0 -0.14907368369148563 -0.09847157519320326 0
          -0.15944830157431725 -0.12754723038572488 0 -0.1636023190660391 -0.09621186994170439 0
          -0.1497901093744275 -0.06466078470065137 0 -0.16530513160079696 -0.12139164496347729 0
          -0.1660464647587915 -0.06364116142066178 0 -0.17124411615569013 -0.09213610701317873 0
          -0.1497668144468911 -0.03049798284106447 0 -0.1663088406655182 -0.11357733671301214 0
          -0.1750635856121546 -0.061350883410764334 0 -0.1670861597686561 -0.030433337578160493 0
          -0.1735370954653794 -0.08667737374646962 0 -0.14924132664282355 0.003682029085531306 0
          -0.1783868435716982 -0.058058436138869005 0 -0.17698359553190587 -0.02970232614707272 0
          -0.17176445278732216 -0.08023559114144792 0 -0.16692631583101458 0.002950179786829963 0
          -0.14830705565387972 0.03761939166437555 0 -0.18099425796248425 -0.02841569493207277 0
          -0.1773298189616238 -0.05402459720935502 0 -0.17716445842111672 0.002259463287536964 0
          -0.16566097201094637 0.03612186184708 0 -0.16697317592359584 -0.07315958995559099 0
          -0.14691890270228683 0.07106183384630634 0 -0.18147075141087748 0.0016483282571014138 0
          -0.18043856800159036 -0.02669354443319126 0 -0.1729819563580454 -0.04948604349581002 0
          -0.175690849126863 0.03405102871881935 0 -0.15999933420153797 -0.06574074987998102 0
          -0.16327342221342286 0.0687075386970889 0 -0.14490225508164092 0.10370130402038634 0
          -0.18115481465878883 0.0011340442375118165 0 -0.17988512793806322 0.031586832056274716 0
          -0.17642393246843494 -0.024653563134872835 0 -0.16622562477840175 -0.04464686177299366 0
          -0.17256766586574482 0.06520464864383928 0 -0.15149475949025756 -0.05821412966624705 0
          -0.15964357632086565 0.10028810747528576 0 -0.17732122161723463 0.0007187057698508797 0
          -0.17952850581375318 0.02887816577804898 0 -0.14196533813481813 0.1351109389243182 0
          -0.1698564512180706 -0.022403158677276946 0 -0.17625692665187323 0.060868295653617226 0
          -0.1577574148553123 -0.03967601477894127 0 -0.16772518111501078 0.0952178408050302 0
          -0.14195220684379925 -0.05076381074883631 0 -0.15456181265812885 0.130342254454857 0
          -0.1757047561543658 0.02604341579626636 0 -0.1708790027841241 0.00039501927120583067 0
          -0.1755878887980733 0.05597182833285297 0 -0.1614581013402012 -0.020035213917060077 0
          -0.17055953600836835 0.08893506253312945 0 -0.13771775188607172 0.1646791771733191 0
          -0.14811021664467935 -0.03470870949157135 0 -0.16103254061043948 0.1235039122040853 0
          -0.13172761833748092 -0.04353025953987694 0 -0.14775119419976815 0.15818902072564864 0
          -0.17160705133744586 0.05074316014342642 0 -0.16930693082101808 0.023173880380445575 0
          -0.1693411483316819 0.08182879030470903 0 -0.162556545725867 0.00015094826360298144 0
          -0.15178605400412795 -0.017626650844431237 0 -0.16273231579426994 0.11516271197953307 0
          -0.13169939388138618 0.19153861607790243 0 -0.15232073983298897 0.14934402228195023 0
          -0.13767396690335457 -0.029850009176950413 0 -0.16517405306307795 0.04536644289869102 0
          -0.1610518947951617 0.020338298448302244 0 -0.16506297707056514 0.07422663068449459 0
          -0.13890116974422162 0.182929873587158 0 -0.1210589653154169 -0.03661838370148241 0
          -0.16078678052521894 0.10581180503958053 0 -0.15291900674918754 -0.000027001876557074407 0
          -0.15270238496198446 0.13882180808910416 0 -0.14125179187266937 -0.01523887702113611 0
          -0.12671385979693106 -0.025179547356933465 0 -0.1414171525380621 0.1718419612242538 0
          -0.15697756017933526 0.03998666505620284 0 -0.158534714263802 0.06639595833763226 0
          -0.15611841738864315 0.09586509947111352 0 -0.151496898929178 0.017587483036564884 0
          -0.14993310079080685 0.1272035647882992 0 -0.1423860799514904 -0.00015168114461081627 0
          -0.12771402174198346 0.2033916879348826 0 -0.11008162374952551 -0.0301056518054081 0
          -0.14041727486302402 0.1590442519751127 0 -0.13013843053005175 -0.012919351566427477 0
          -0.1504013736198476 0.05854928253589352 0 -0.1475520410916382 0.03471564102916384 0
          -0.1494709315742597 0.08565960481330792 0 -0.12819099297178752 0.1898844609938679 0
          -0.11538546094520549 -0.020756702392082497 0 -0.14484706672654288 0.11497159207492733 0
          -0.14105644910425033 0.014958572304492554 0 -0.13682740984997865 0.14518313028474206 0
          -0.13124845318476658 -0.00023409040023325399 0 -0.1258864396315864 0.17479783737122628 0
          -0.1186152952555609 -0.01070375623304211 0 -0.1411611500466739 0.0508519919602159 0
          -0.1414313898529741 0.0754625516852922 0 -0.13729415301040965 0.029638402579502496 0
          -0.13810647623853617 0.1025146860713221 0 -0.1313753713292632 0.1307857196661018 0
          -0.13001802399993992 0.01247860236003333 0 -0.11260875202503061 0.202113722811233 0
          -0.10374660009684303 -0.016626118105923536 0 -0.12159187840982597 0.15881176579683073 0
          -0.11968179433312727 -0.0002827437626309332 0 -0.13244978145908232 0.06548147934379941 0
          -0.1311816775508198 0.043431255900585906 0 -0.13022744229810873 0.09013806517219351 0
          -0.10922744503026421 0.1848752290217259 0 -0.10674942884265867 -0.008618520489073744 0
          -0.12647767552462028 0.02481899063938197 0 -0.12462750316320043 0.11627017939362409 0
          -0.11591210779978967 0.14246810132767349 0 -0.1185555678073408 0.01016746334493047 0
          -0.10775785287659417 -0.0003031592879329923 0 -0.10446000498906631 0.16703366189803484 0
          -0.12160149485676956 0.07807632515681223 0 -0.1228554892803455 0.05587617504442574 0
          -0.11701777730733785 0.10195937780996475 0 -0.12071385108873516 0.03638439621802924 0
          -0.09073410112797327 0.18790940370818193 0 -0.0945137311995646 -0.006684101408000297 0
          -0.11526644329993924 0.02030505636561965 0 -0.10930590738492767 0.12618736582576778 0
          -0.10674043755831317 0.008041111251076184 0 -0.09877545376068715 0.14910902986879837 0
          -0.11251253365141149 0.06650882183368641 0 -0.08582754850341777 0.16870021156992346 0
          -0.09545242597626909 -0.0002976633216016449 0 -0.11286976961129458 0.046770312844290785 0
          -0.10887094655612164 0.08809693396956621 0 -0.1099034307628868 0.02978484202146057 0
          -0.10211687557347453 0.11028682444789348 0 -0.10372563773348077 0.016132718915374177 0
          -0.09251790568131191 0.13149342867970434 0 -0.0710195441654869 0.18243230905773442 0
          -0.09454961308282257 0.006115506442099732 0 -0.08042909297842649 0.14975714887230382 0
          -0.10314821321215098 0.05557507589312319 0 -0.10042010582946934 0.07486594394055136 0
          -0.10261456664191886 0.03825945706284829 0 -0.094597221529406 0.09499946048399442 0
          -0.06637482324394822 0.16262997463470025 0 -0.08264874740642277 -0.00026746305283618303 0
          -0.08593697987674677 0.1144735592970873 0 -0.09880277040679365 0.023686906982645323 0
          -0.09183135575985875 0.012333991552181017 0 -0.07476775568458843 0.1314113989992589 0
          -0.051175697619657005 0.16696995048480748 0 -0.06158569288960684 0.14347645240414184 0
          -0.08186904799632128 0.004408378013391732 0 -0.09181748607748841 0.06240814206827834 0
          -0.09360550683440187 0.045385550364505846 0 -0.086925814642832 0.08049506679226932 0
          -0.07921042738264988 0.09825218836719588 0 -0.09212280968116215 0.030415064244220157 0
          -0.06900177989757704 0.11389447481267152 0 -0.08738386044453658 0.01813475993816264 0
          -0.04722506522519772 0.14770261950492514 0 -0.0691348286959715 -0.0002180621037460281 0
          -0.05677478816432784 0.1252115785414171 0 -0.07947463167165499 0.00894356110679595 0
          -0.032501899605851474 0.14011794359474655 0 -0.0831380831027199 0.050837074541081106 0
          -0.07921922020530264 0.06690191146398847 0 -0.07246168155660639 0.08297012586428232 0
          -0.08389572023585415 0.036027276193545676 0 -0.043359587187596485 0.12943357719589763 0
          -0.068489064478711 0.0029349734652364076 0 -0.08135649670741668 0.023291286205848433 0
          -0.06323816147739243 0.09736111643315745 0 -0.05201901564183449 0.10799073615330143 0
          -0.07554530717742025 0.013174880491949637 0 -0.02966980350850201 0.12294835778193595 0
          -0.06645373939244534 0.005996432422485813 0 -0.039618025845926864 0.11228924159509583 0
          -0.07153473463467572 0.05432142343478798 0 -0.07438035757109795 0.04024606797278018 0
          -0.06577218827937477 0.06872709460031949 0 -0.07396313912062868 0.02756918116327884 0
          -0.05754756656877477 0.08191116499755158 0 -0.02699644244949896 0.10699035457939542 0
          -0.054095559549087874 0.0017068741477900252 0 -0.04736495376962251 0.09190676736399202 0
          -0.07022207911110148 0.016939454388568607 0 -0.06309973808317568 0.008857886522254464 0
          -0.036015847617537636 0.09633689386058164 0 -0.0638719848413748 0.04283604347337231 0
          -0.05918629015918393 0.05559465076838286 0 -0.06547274727589701 0.03072645760896647 0
          -0.05197647938664962 0.06760647652366203 0 -0.024475079244427687 0.09225467160097672 0
          -0.052459524554866944 0.0035249990587422355 0 -0.0428398197470192 0.0770107682407452 0
          -0.06371408653464035 0.02006870390515133 0 -0.05855296427667466 0.011415721941791555 0
          -0.03255643389250758 0.08160197967987129 0 -0.038269155051549014 0.0007568721615545867 0
          -0.02209071382043344 0.07872583291564006 0 -0.049747750415627366 0.005232387609456826 0
          -0.05271446161681788 0.043624530506178906 0 -0.04655748800194767 0.05447388959759562 0
          -0.05617793392228364 0.032542204116794066 0 -0.03845779337669229 0.06332593152855016 0
          -0.05630198518896928 0.022371755652080473 0 -0.03707887718964835 0.0015944333591287145 0
          -0.02924007975406155 0.06808475404277602 0 -0.0530024635698675 0.013572204577465878 0
          -0.01982725340603254 0.0663724486092922 0 -0.046061889436523264 0.006774210064833649 0
          -0.020483064172280137 0.00016894992932267778 0 -0.04635229946008037 0.03289248835247632 0
          -0.04132126056096513 0.04250855694240631 0 -0.035089095326835934 0.002387136692963601 0
          -0.03422877750442342 0.0508363528559142 0 -0.0483176852915273 0.023621880107832147 0
          -0.04671442880683999 0.015223952092092171 0 -0.026061181024295863 0.05577316645578326 0
          -0.01767751464512451 0.05515628953591039 0 -0.04154993760751399 0.008110781186482632 0
          -0.019822058137330602 0.00036643145167809766 0 -0.03236345839522945 0.003113650586381993 0
          -0.036319319102188816 0.03174647926968665 0 -0.040063659828747336 0.02361643449200198 0
          -0.030195095415607144 0.039464067842435196 0 -0.022992958856392735 0.04462877498805941 0
          -0.04004675680531225 0.016215007908503283 0 -0.01870659939588767 0.0005552495295209471 0
          -0.015636979584247254 0.045038764076247045 0 -0.03641395481380648 0.009229651235672267 0
          -0.028984569382765307 0.003765797740074155 0 0 0 0
          -0.02649834218415261 0.029154435924869108 0 -0.03163838509095582 0.0224306698522934 0
          -0.017164396424494063 0.000731637188535797 0 -0.03342589620841232 0.016258296986875646 0
          -0.020028833855379638 0.034536010373434886 0 -0.013654717559475235 0.035971850162701303 0
          -0.03093866153534671 0.01013169232275239 0 0 0 0
          -0.0250391432372605 0.0043731661406624985 0 -0.015226318340914707 0.0008967074487282833 0
          -0.02332919586949007 0.020185072271802763 0 -0.027162346322206123 0.015008569805563667 0
          -0.017384783518971568 0.02532702256756073 0 -0.011622271211682019 0.02786709017362797 0
          -0.025550929972686376 0.010695969777303523 0 0 0 0
          -0.02061630766348178 0.005040692197317704 0 -0.012906673370097467 0.001072573839562948 0
          0 0 0 -0.020539399440002763 0.013182001878688511 0
          -0.01556994466458906 0.017119590883646327 0 -0.009669000704897856 0.02058819504796858 0
          -0.02084186765362645 0.01030698668903609 0 -0.015874223404279277 0.005913169722056336 0
          -0.010182524608120656 0.0013463590334217897 0 0 0 0
          -0.014184223989386369 0.01074504582644298 0 -0.01730755089915415 0.007509482242326917 0
          -0.008622705110011066 0.014037241320032005 0 -0.011201615697858847 0.00676806670955849 0
          -0.007030868325546843 0.0019233557474643858 0 0 0 0
          -0.008568616001380766 0.008226388881768281 0 -0.010070371289532283 0.006015650562012461 0
          -0.007395270546075972 0.005647999686553526 0 -0.0036252436306270387 0.0030125129620145364 0
          0 0 0 -0.003088177119209766 0.002760111887700405 0
          -0.00696737747769568 -0.0052899792440120495 0 -0.0007138198286955266 0.003990281219157851 0
          0 0 0 0.01506897504787964 -0.007119171852195394 0
          -0.0003698660197042732 0.0003854038862952905 0 0 0 0
          -0.022043102627953576 -0.04579771911967575 0 0 0 0
          0 0 0 -0.16368140373702017 -0.10463338223931852 0
          -0.15657119287635468 -0.13794072740161997 0 -0.15699745153352282 -0.14829034072227332 0
          -0.14446522288353156 -0.18306663848833382 0 -0.13807786547845055 -0.191710177584903 0
          -0.12240264295569928 0.004391133232917442 0 -0.12194541091135257 0.038337668010883244 0
          -0.12328966279951716 -0.029809578207802372 0 -0.12452600129675286 -0.06415856066647128 0
          -0.1258615937213597 -0.09848184933856546 0 -0.12686608097791569 -0.1324565166098014 0
          -0.1269253069211956 -0.16551299171645623 0 -0.12525808491693172 -0.19672096230251077 0
          -0.09176580392317896 -0.012824119971372554 0 -0.09884045004935929 -0.024050370534790356 0
          -0.10285444976537753 -0.03841921551107807 0 -0.11331933158718223 -0.04684184036794396 0
          -0.12354741745452769 -0.055822690240966234 0 -0.1334285493001609 -0.06527349966809143 0
          -0.14275960404909546 -0.07507320042878031 0 -0.15122932496506072 -0.08505715237412613 0
          -0.15839941980271555 -0.0950058271228636 0 -0.09482144415509015 0.20692802727602205 0
          -0.11396784860861899 0.2180772722200776 0 -0.12342334811145345 0.21448879458534392 0
          -0.11834049417752442 0.19678370110808469 0 -0.12066359658208213 0.1680555783352547 0
          -0.1216328918561542 0.1371874986908803 0 -0.12185866334283943 0.10497415070595259 0
          -0.12183991473372932 0.0719229062430638 0 0 0 0
          -0.02067353335540295 -0.00003198638608455768 0 -0.03862303474385427 -0.00009966358873916583 0
          -0.05459816492050413 -0.00016064364889261656 0 -0.06837120785597413 -0.003352030467592249 0
          -0.08179067996613903 -0.004920164920199792 0 -0.05513468150095394 0.1870266231403819 0
          -0.03548430905465797 0.15844665285845255 0 -0.07532935101010516 0.2025326116948589 0
          <InformationKey name="L2_NORM_RANGE" location="vtkDataArray" length="2">
            <Value index="0">
              0
            </Value>
            <Value index="1">
              0.24746467599
            </Value>
          </InformationKey>
        </DataArray>
        <DataArray type="Float64" Name="Pressure" format="ascii" RangeMin="67.06642534037766" RangeMax="71.35477340070021">
          70.47155274848572 70.17925511501552 70.3071896353245 69.88337090274439 70.05863757882797 69.80206023285074
          69.58745792369123 69.94382607751933 69.5416293636154 69.7230776153645 69.29341305642099 69.83755293401906
          69.49592734148634 69.28023465797395 69.6486238391664 69.00202164179582 69.45178806333026 69.26573283833584
          69.58019201092249 69.01976599400984 68.71345700640374 69.25052585434224 69.41033190045317 69.03505690343572
          68.76148955721077 69.5186858075007 68.42768838748376 69.04774139457386 69.23523681915272 69.3723639629798
          68.80591856019988 69.46455478883658 68.50640985747219 68.14480740408123 69.05792746062843 68.84591704693814
          69.22042769328758 69.3384064927685 68.58007740941683 69.41792762884467 68.25557676657645 69.06587645109266
          68.88112629972593 67.86532096276336 69.20656097961327 68.64731709200815 69.30875519532194 68.35929322689495
          69.37873214472292 68.0103647943594 68.91151504975558 69.07191921876023 68.70739488297649 69.19399245665001
          68.45418932668747 67.59053334783952 69.28354576493754 68.14557333405781 69.34678630445988 67.7728519476596
          68.76004322944317 68.93726498906403 68.53928114547398 69.07640392566279 69.1829846093239 68.26897176574344
          67.32297885405585 67.94152609402413 69.2628108733854 68.80532313154089 68.95869004010756 68.61416031447261
          67.54628657366554 69.3218508246051 68.37948545592778 69.07966550173683 68.09460800162324 69.17372280806406
          69.24651616481572 67.7508192092528 68.84352636035797 68.67883566691602 68.47669704015183 68.97617408470327
          68.23113272044574 69.0819999830961 67.33503333899367 69.3036513532284 67.93496787063012 69.16632726178787
          68.73362522281553 68.8750915832168 68.56066930691941 67.57806573757075 69.23457211141421 68.35084451949295
          68.99010711668556 68.09813770436352 69.08364622090528 67.79467036562903 69.16085248387182 68.77905441029064
          68.63183009679844 68.90050745937398 68.45400405232331 68.24045335256615 69.00083342869638 67.42765708521124
          69.22685117050729 67.98496414176763 69.08477097113742 68.69084859631411 68.81572356862158 68.54126683563062
          67.6775479354161 69.15727274257554 68.92023323603321 68.36255731179752 68.14972963765 69.00861890469552
          69.08542560622436 67.89486639160172 68.61352705122742 68.73844838761515 68.46548384836406 68.84421655000688
          67.58755720433217 69.15554742053224 68.93465555635693 68.29021517056447 69.01357684934034 68.0813625511303
          68.6716455770909 67.83013154235783 69.08555215980883 68.77530856529361 68.55045743243188 68.86510063398674
          68.40801263664922 68.9439680896138 68.23912822732537 67.54140294612371 69.0156052321755 68.0363267352548
          68.7163235760075 68.61850395490286 68.80222492879648 68.50481120982657 67.80487156978451 69.0853340345818
          68.37049202174846 68.8787653445034 68.94799435609917 68.20925557009555 67.57949307561738 68.02651423941974
          69.01478657195226 68.67028224802554 68.74853901021753 68.58187194074186 68.47776123558408 68.82005100359048
          68.35210307660842 68.8849847195232 67.86144739811589 69.08578298808139 68.21062241937166 68.94662368554249
          67.7079930495212 68.70687191901719 68.63981270639069 68.56260129253647 68.76991995157923 68.09457666659382
          69.0123755366913 68.82878034716256 68.46790425092536 68.361328961228 68.8832696055788 68.01931753312451
          68.9412958372662 68.28508104590276 68.6798722955961 68.73077437961486 68.62575742105557 68.78136208215055
          68.55896955667728 68.268743985823 69.0102619034523 68.4824443930348 68.82732280871956 68.87505609790348
          68.43854184260005 68.7055707685142 68.6687983788727 68.74440149249943 68.62664971036621 68.466325331026
          68.93472999252235 68.57704119082476 68.7813070487576 68.81653261235111 68.55987994110492 69.00639919722916
          68.62048560460931 68.86407928693976 68.69673736920655 68.67320699331881 68.72021857491889 68.64756820792398
          68.74655064416586 68.92426112394698 68.65302427196328 68.76899840650482 68.73830103425503 68.8011299037132
          68.99336716259006 68.7134289711488 68.70498908417943 68.84753465056458 68.69778406304076 68.72236393556592
          68.73458437357618 68.72132420763933 68.82529412156734 68.7491252865314 68.89693632683672 68.77903465158353
          68.72712375795979 68.71003541573965 68.73466914821803 68.77002931020864 68.70996099050359 68.80706086491912
          68.88560400104161 68.71110213809898 68.721179604863 68.85112682393046 68.76169576933762 68.72054590286031
          68.72707040431786 68.68318998598139 68.80700147526748 68.92434556812655 68.68635585689537 68.7357609790417
          68.67577556023518 68.65933361491965 68.75474072953836 68.64863399178584 68.8304669169062 68.9488628640623
          68.66009014793742 68.63277106131122 68.6455203232097 68.60452158906672 68.54601990115937 68.64474066295863
          68.80423280196419 68.95462247678513 68.58947184223719 68.63605750576329 68.56534982632577 68.4792331319484
          68.65701365881563 68.44063951075896 68.89251575649057 68.63959537775271 68.56309343920877 68.44223767021789
          68.67307008875326 68.36674862111161 68.56868817184304 68.66106572556858 68.47371390791656 68.28809798549821
          68.25678668514468 68.93340357961793 68.68189802571709 68.06857540175616 69.27703313103008 69.2499734976237
          69.2284583414579 70.26630912805334 71.35477340070021 69.74140719640381 70.01451124386445 70.15391849366199
          70.5422055315556 70.75458452991182 68.98238690104988 68.66329249666805 69.3047809724049 69.63175370045009
          69.96411028037866 70.30160949626365 70.6421254857541 70.98059601710393 69.22330538002826 69.29192753888323
          69.36587259285464 69.39000172837596 69.42317496917495 69.46589662048554 69.51866780117246 69.58195820083004
          69.65614623594927 67.30564039580564 67.14397383633788 67.06642534037766 67.08387860673065 67.39783328975551
          67.71361265255645 68.02978944574213 68.34613856742637 68.97451283916821 69.09282693095405 69.09104992804839
          69.08808334091745 69.15909131838725 69.15591081746848 67.24174888843193 67.3226124166055 67.23167956572526
        </DataArray>
      </PointData>
      <CellData>
        <DataArray type="UInt8" Name="vtkGhostType" format="ascii" RangeMin="0" RangeMax="1">
          0 0 1 0 1 0
          0 0 0 0 0 1
          1 0 0 0 0 0
          0 0 0 1 0 1
          0 0 0 0 0 0
          0 0 0 0 1 1
          1 1 1 1 1 1
          1 1 1 1 1 1
          1 1 1 0 1 0
          0 0 0 1 0 1
          0 0 0 0 0 0
          0 0 0 0 1 1
          0 0 0 0 0 0
          0 0 0 0 0 0
          1 1 0 0 0 0
          0 0 0 0 0 0
          0 0 0 0 1 1
          0 0 0 0 0 0
          0 0 0 0 0 0
          0 0 0 0 1 1
          0 0 0 0 0 0
          0 0 0 0 0 0
          0 0 0 0 0 0
          1 1 0 0 0 0
          0 0 0 0 0 0
          0 0 0 0 0 0
          0 0 0 0 1 1
          0 0 0 0 0 0
          0 0 0 0 0 0
          0 0 0 0 0 0
          0 0 1 1 0 0
          0 0 0 0 0 0
          0 0 0 0 0 0
          0 0 0 0 0 0
          0 1 0 0 0 0
          0 0 0 0 0 0
          0 0 0 0 0 0
          0 0 1 0 1 0
          0 0 0 0 0 0
          0 0 0 0 0 0
          0 1 0 1 0 0
          0 0 0 0 0 0
          0 0 0 0 1 1
          1 1 1 1 1 1
          1 1 1 0 0 0
          0 0 0 0 0 0
          0 0 0 0 0 0
          0 0 0 0 0 1
          0 1 0 0 0 0
          0 0 0 0 0 0
          0 0 0 0 0 0
          0 0 0 0 0 0
          1 1 0 0 0 0
          0 0 0 0 0 0
          0 0 0 0 0 0
          0 0 0 0 0 0
          1 1 0 0 0 0
          0 0 0 0 0 0
          0 0 0 0 0 0
          0 0 0 0 0 0
          1 0 1 0 0 0
          0 0 0 0 0 0
          0 0 0 0 0 0
          0 0 0 0 0 0
          0 0 0 1 1 0
          0 0 0 0 0 0
          0 0 0 0 0 0
          0 0 0 0 0 0
          0 0 0 0 0 1
          0 1 0 0 0 0
          0 0 0 0 0 0
          0 0 0 0 0 0
          0 0 0 0 0 0
          0 0 0 0 0 0
          0 0 0 0 0 0
          0 0 0 0 0 0
          0 0 0 0 0 0
          0 0 0 0 0 0
          0 0 0 0 0 0
          0 0 0 0 0 0
          0 0 0 0 0 0
          0 0 0 0 0 0
          0 0 0 0 0 0
          0 0 0 0 0 0
          0 0 0 0 0 0
          0 0 0 0 0 0
          0 0 0 0 0 0
          0 0 0 0 0 0
          0 0 0 0 0 0
          0 0 0 0 0 0
          0 0 0 0 0 0
          0 0 0 0 0 0
          0 0 0 0 0 0
          0 0 0 0 0 0
          0 0 0 0 0 0
          0 0 0 0 1 1
          1 1 1 1
        </DataArray>
      </CellData>
      <Points>
        <DataArray type="Float32" Name="Points" NumberOfComponents="3" format="ascii" RangeMin="0.10000000149011612" RangeMax="0.9666666717364872">
          0.6666666865348816 0.6333333253860474 0 0.6333333253860474 0.6333333253860474 0
          0.6666666865348816 0.6000000238418579 0 0.6000000238418579 0.6333333253860474 0
          0.6333333253860474 0.6000000238418579 0 0.6000000238418579 0.6000000238418579 0
          0.5666666626930237 0.6333333253860474 0 0.6333333253860474 0.5666666626930237 0
          0.5666666626930237 0.6000000238418579 0 0.6000000238418579 0.5666666626930237 0
          0.5333333611488342 0.6333333253860474 0 0.6333333253860474 0.5333333611488342 0
          0.5666666626930237 0.5666666626930237 0 0.5333333611488342 0.6000000238418579 0
          0.6000000238418579 0.5333333611488342 0 0.5 0.6333333253860474 0
          0.5666666626930237 0.5333333611488342 0 0.5333333611488342 0.5666666626930237 0
          0.6000000238418579 0.5 0 0.5 0.6000000238418579 0
          0.46666666865348816 0.6333333253860474 0 0.5333333611488342 0.5333333611488342 0
          0.5666666626930237 0.5 0 0.5 0.5666666626930237 0
          0.46666666865348816 0.6000000238418579 0 0.6000000238418579 0.46666666865348816 0
          0.4333333373069763 0.6333333253860474 0 0.5 0.5333333611488342 0
          0.5333333611488342 0.5 0 0.5666666626930237 0.46666666865348816 0
          0.46666666865348816 0.5666666626930237 0 0.6000000238418579 0.4333333373069763 0
          0.4333333373069763 0.6000000238418579 0 0.4000000059604645 0.6333333253860474 0
          0.5 0.5 0 0.46666666865348816 0.5333333611488342 0
          0.5333333611488342 0.46666666865348816 0 0.5666666626930237 0.4333333373069763 0
          0.4333333373069763 0.5666666626930237 0 0.6000000238418579 0.4000000059604645 0
          0.4000000059604645 0.6000000238418579 0 0.5 0.46666666865348816 0
          0.46666666865348816 0.5 0 0.36666667461395264 0.6333333253860474 0
          0.5333333611488342 0.4333333373069763 0 0.4333333373069763 0.5333333611488342 0
          0.5666666626930237 0.4000000059604645 0 0.4000000059604645 0.5666666626930237 0
          0.6000000238418579 0.36666667461395264 0 0.36666667461395264 0.6000000238418579 0
          0.46666666865348816 0.46666666865348816 0 0.5 0.4333333373069763 0
          0.4333333373069763 0.5 0 0.5333333611488342 0.4000000059604645 0
          0.4000000059604645 0.5333333611488342 0 0.3333333432674408 0.6333333253860474 0
          0.5666666626930237 0.36666667461395264 0 0.36666667461395264 0.5666666626930237 0
          0.6000000238418579 0.3333333432674408 0 0.3333333432674408 0.6000000238418579 0
          0.4333333373069763 0.46666666865348816 0 0.46666666865348816 0.4333333373069763 0
          0.4000000059604645 0.5 0 0.5 0.4000000059604645 0
          0.5333333611488342 0.36666667461395264 0 0.36666667461395264 0.5333333611488342 0
          0.30000001192092896 0.6333333253860474 0 0.3333333432674408 0.5666666626930237 0
          0.5666666626930237 0.3333333432674408 0 0.4333333373069763 0.4333333373069763 0
          0.46666666865348816 0.4000000059604645 0 0.4000000059604645 0.46666666865348816 0
          0.30000001192092896 0.6000000238418579 0 0.6000000238418579 0.30000001192092896 0
          0.36666667461395264 0.5 0 0.5 0.36666667461395264 0
          0.3333333432674408 0.5333333611488342 0 0.5333333611488342 0.3333333432674408 0
          0.5666666626930237 0.30000001192092896 0 0.30000001192092896 0.5666666626930237 0
          0.4333333373069763 0.4000000059604645 0 0.4000000059604645 0.4333333373069763 0
          0.36666667461395264 0.46666666865348816 0 0.46666666865348816 0.36666667461395264 0
          0.3333333432674408 0.5 0 0.5 0.3333333432674408 0
          0.2666666805744171 0.6000000238418579 0 0.6000000238418579 0.2666666805744171 0
          0.30000001192092896 0.5333333611488342 0 0.5333333611488342 0.30000001192092896 0
          0.4000000059604645 0.4000000059604645 0 0.4333333373069763 0.36666667461395264 0
          0.36666667461395264 0.4333333373069763 0 0.2666666805744171 0.5666666626930237 0
          0.5666666626930237 0.2666666805744171 0 0.3333333432674408 0.46666666865348816 0
          0.46666666865348816 0.3333333432674408 0 0.30000001192092896 0.5 0
          0.5 0.30000001192092896 0 0.2666666805744171 0.5333333611488342 0
          0.5333333611488342 0.2666666805744171 0 0.4000000059604645 0.36666667461395264 0
          0.36666667461395264 0.4000000059604645 0 0.4333333373069763 0.3333333432674408 0
          0.3333333432674408 0.4333333373069763 0 0.30000001192092896 0.46666666865348816 0
          0.46666666865348816 0.30000001192092896 0 0.23333333432674408 0.5666666626930237 0
          0.5666666626930237 0.23333333432674408 0 0.2666666805744171 0.5 0
          0.5 0.2666666805744171 0 0.36666667461395264 0.36666667461395264 0
          0.4000000059604645 0.3333333432674408 0 0.3333333432674408 0.4000000059604645 0
          0.23333333432674408 0.5333333611488342 0 0.5333333611488342 0.23333333432674408 0
          0.4333333373069763 0.30000001192092896 0 0.30000001192092896 0.4333333373069763 0
          0.2666666805744171 0.46666666865348816 0 0.46666666865348816 0.2666666805744171 0