<?xml version="1.0"?>
<VTKFile type="UnstructuredGrid" version="0.1" byte_order="LittleEndian" header_type="UInt32" compressor="vtkZLibDataCompressor">
  <UnstructuredGrid>
    <Piece NumberOfPoints="319" NumberOfCells="562">
      <PointData>
        <DataArray type="Float64" Name="Velocity" NumberOfComponents="3" format="ascii" RangeMin="0" RangeMax="1.0000000000000002">
          0.9999999999999999 0 0 0 0 0
          0.9999999999999997 0 0 0.15981144511764983 -0.09443176387365365 0
          0 0 0 0.9999999999999999 0 0
          -0.014060860117830108 -0.21300400025462105 0 0.3169179742619893 -0.08247933167390507 0
          0.0642925680697121 -0.21542803565329044 0 0 0 0
          0.9999999999999999 0 0 0.4489845553756481 -0.05575066483296506 0
          -0.03135651945147182 -0.22966298748720176 0 0.17010892596199187 -0.1702722496334161 0
          -0.023394628323796803 -0.2857217456129048 0 0 0 0
          0.9999999999999997 0 0 0.5495163040027403 -0.03731259606503637 0
          -0.02200545993699928 -0.21218001297847647 0 0.03155189661504709 -0.2589879554520933 0
          -0.03786706689509933 -0.2967457593672073 0 0.2725833168412746 -0.12708849368955555 0
          -0.024999463858461645 -0.3026075187198473 0 0.10472288470638119 -0.21327620817523488 0
          0 0 0 0.9999999999999999 0 0
          0.6219774690020621 -0.026446515601496825 0 -0.014040489259991677 -0.18722469434263728 0
          0.35831427190828874 -0.09535285859124215 0 -0.03521678658581648 -0.2826753977272714 0
          0.0125783370296552 -0.2722059916971338 0 0.17781110606188724 -0.17060961211706885 0
          -0.04378876676917139 -0.31267068791277597 0 1.0000000000000002 0 0
          0.6741873122336717 -0.01951936908437366 0 -0.03129887744670274 -0.26135719801752144 0
          0.42664710119909216 -0.07261892211252745 0 0.06178795893361959 -0.23170948261942084 0
          -0.033595630028858126 -0.30247251531645303 0 -0.048984014793852365 -0.30534358581411225 0
          0.24312756446380032 -0.13550955847214416 0 0.9999999999999999 0 0
          -0.00824225193345794 -0.27232068531647835 0 0.7127340994498139 -0.014620000946132623 0
          -0.05501771082038478 -0.3114408988994725 0 0.11316751956206689 -0.19210855257380044 0
          0.48088817882443624 -0.05576474175592783 0 0.29907210438477494 -0.10729220648887476 0
          -0.048015831921917815 -0.2936556729381226 0 0.02544060393902109 -0.23532048279972542 0
          0.9999999999999999 0 0 0.7417511149096464 -0.011002357599621045 0
          0.16166240571893234 -0.15690008713200063 0 0.5239982907702652 -0.04289688639613119 0
          -0.030915064870505854 -0.263404501575936 0 0.3459401759388423 -0.08454155338433189 0
          0.061740764663575316 -0.19818954373406175 0 0.20493924744959627 -0.12659686966864148 0
          0.9999999999999999 0 0 0.7637325071676113 -0.008289919194860385 0
          -0.008010519358897013 -0.2284194253905447 0 0.5580328368073093 -0.03287690466919161 0
          -0.06544106442666797 -0.27743918379057725 0 0.09689189821270375 -0.16369792406173178 0
          0.3843929017371505 -0.06602402263916096 0 0.24203428742866903 -0.10070798382442345 0
          -0.054757004933245125 -0.24704052973718657 0 0.016938521439598748 -0.19300377512293557 0
          0.9999999999999999 0 0 0.7803139149589573 -0.006211253463325037 0
          0.5845101871913911 -0.024905687370850794 0 0.12870663072897823 -0.13259954837864282 0
          0.4151830126558789 -0.05072315133313509 0 -0.08479331289442658 -0.25509267977981803 0
          -0.040142642504938576 -0.21325582406243068 0 0.2727029210396903 -0.07846575201439072 0
          0.0412545533903063 -0.1591277744517894 0 0.9999999999999999 0 0
          0.7926317695374586 -0.00456336300676903 0 0.15604591540614718 -0.10476023252174936 0
          0.6046151659810867 -0.018382139541321986 0 -0.07938085431040026 -0.22452283798036243 0
          -0.024077522463942996 -0.1788442958721071 0 0.439065221879963 -0.037802361557891344 0
          0.06323529744786455 -0.12745438508228263 0 0.29706352448268464 -0.0590811080516564 0
          0.9999999999999999 0 0 -0.07121672406443237 -0.19131948993801537 0
          -0.10515102723983291 -0.22783494457223322 0 0.8014717508735265 -0.003202841044181687 0
          0.17838968317820783 -0.07970511717887067 0 0.6192453691791617 -0.012854994730508317 0
          -0.008416637750802591 -0.14518033490967824 0 0.4567008055544819 -0.026582674032921232 0
          0.08186731201081426 -0.09799659310215826 0 0.3153686757762366 -0.04183009704403615 0
          -0.10386486374858055 -0.19696836776952265 0 -0.061967347543551474 -0.1573181742577092 0
          0.19554410868063507 -0.056854028300471336 0 0.9999999999999999 0 0
          0.8073575325556954 -0.0020288224047029634 0 0.005562095354328621 -0.11280631115635562 0
          0.6290375845358139 -0.007983526677767971 0 0.4686028570057781 -0.01651375926652164 0
          0.09657132747223862 -0.07046369378015477 0 -0.10050766952767892 -0.16392115592832446 0
          -0.12525808491693172 -0.19672096230251077 0 0.3278783137400604 -0.026072097665862003 0
          -0.05293657701423236 -0.12350751149476157 0 0.017019708880729553 -0.08179683502980081 0
          0.20747192862129032 -0.03561404002297947 0 0.9999999999999999 0 0
          0.8106156103999225 -0.0009660366808903528 0 -0.1269253069211956 -0.16551299171645623 0
          0.6344037865602082 -0.003499250721235013 0 -0.0962255462422482 -0.1299732761674374 0
          0.10703363471838927 -0.04442932798986223 0 0.4751246618628669 -0.00713735402837301 0
          -0.045070797396265565 -0.09032456901476815 0 0.3348032643890056 -0.011238840133616392 0
          0.02543245889255489 -0.05197203639885945 0 0.21420477054163048 -0.015411528262564124 0
          -0.12686608097791569 -0.1324565166098014 0 0.9999999999999999 0 0
          -0.09193220539080466 -0.09585755907045851 0 0.8114172513625455 0.000047440859635585696 0
          0.6355624110740193 0.0008259509788397856 0 0.11310738767398142 -0.019413146381293253 0
          -0.03901271354800205 -0.05786688257189136 0 0.47646550877092064 0.0019487856598021153 0
          0.3362836154048514 0.0031870507326860202 0 -0.1258615937213597 -0.09848184933856546 0
          0.030504877873512064 -0.023020561563596595 0 -0.08829526364267187 -0.06193261300452135 0
          0.2157994425704313 0.004301102177422073 0 0.9999999999999999 0 0
          0.8097993925976295 0.0010690133388927723 0 0.6325562603479398 0.005205156273072821 0
          -0.035157732566493564 -0.026035400348202266 0 0.11475648924290227 0.005078035695664289 0
          0.47267854035341966 0.011122560285991673 0 -0.12452600129675286 -0.06415856066647128 0
          0.3323832673100838 0.017695209446682306 0 0.032113295929762156 0.005426843575065234 0
          -0.08575392803424388 -0.02832059106397045 0 0.21231921943332563 0.024048639480580614 0
          0.9999999999999999 0 0 -0.033699010952471666 0.005369342532203927 0
          0.8056679606519932 0.002159311908816069 0 0.11202694042784785 0.029527990864548322 0
          0.6252570611790299 0.009858475600264304 0 -0.12328966279951716 -0.029809578207802372 0
          0.4636776437711978 0.020765515917807686 0 0.3230958113270657 0.03276877802666381 0
          0.030272895669729558 0.03374974680980052 0 -0.08454432996063341 0.004988734741360235 0
          0.20383454478853286 0.044338002142916895 0 -0.03465775268865344 0.03657934522337262 0
          0.9999999999999997 0 0 0.7987848207306982 0.003390815806806288 0
          0.10504047378093656 0.054395178186370415 0 -0.12240264295569928 0.004391133232917442 0
          0.6133586616794235 0.015035256735215156 0 0.44924512124040167 0.03128898663982255 0
          -0.08472175112345012 0.03805882110004836 0 0.025125456350744584 0.06230146791662263 0
          0.30836212085474185 0.048902001336601574 0 0.19044205994569938 0.06565921168679151 0
          -0.03789884920389232 0.06780581676101638 0 -0.12194541091135257 0.038337668010883244 0
          0.0940084896708754 0.08009440080340124 0 0.9999999999999999 0 0
          0.7887363669557509 0.004860099207087884 0 0.5963621853563573 0.02103927449842032 0
          -0.08617556473546199 0.07094160236115432 0 0.42904564955286356 0.043158835100270035 0
          0.016945290205541266 0.09137277211992971 0 0.28810348573970324 0.06661129926775076 0
          0.17230282743352832 0.08847629820107543 0 -0.043132515802936734 0.099188383788481 0
          -0.12183991473372932 0.0719229062430638 0 0.07926479871352114 0.1069674943424412 0
          0.9999999999999999 0 0 0.774874693199517 0.006710819229889801 0
          0.5735593780492088 0.02826230750286604 0 -0.088635971191495 0.10361720678707817 0
          0.4026604771318408 0.05691738180969324 0 0.006160865948305287 0.12114590187429257 0
          0.2622824079825162 0.08643301418672714 0 -0.12185866334283943 0.10497415070595259 0
          0.14970610744962803 0.11319866656678235 0 -0.049904564046183375 0.13073735129866237 0
          0.06131800694677838 0.1352326046677326 0 0.9999999999999999 0 0
          -0.09167474581063594 0.1359298443905705 0 0.7562042896397169 0.009183582479954334 0
          0.5440137045390276 0.03724153496530034 0 -0.006610303646156946 0.15162862412292352 0
          0.36965852486677536 0.07320296032596559 0 0.2310100781099827 0.10889528857453333 0
          -0.1216328918561542 0.1371874986908803 0 -0.057579778652558755 0.1622599604990271 0
          0.12317144203004698 0.1401154343483495 0 0.04092843641526849 0.164895178797241 0
          -0.09470444241295885 0.16751245448416283 0 0.9999999999999999 0 0
          0.7311933106221962 0.0127074225369769 0 0.5065242802116803 0.04875873615335034 0
          -0.02051457553427631 0.18255440815043872 0 0.32969192897596566 0.09276913683386291 0
          -0.12066359658208213 0.1680555783352547 0 0.1946919108781805 0.13444599473464353 0
          -0.06532247545961659 0.19325968376423408 0 0.09358148843263717 0.16926472588549352 0
          0.01920069275718669 0.19559354130584097 0 -0.09698129304675658 0.19769224974917088 0
          0.9999999999999999 0 0 0.6976491741877306 0.017964450280466396 0
          -0.03441327157290918 0.2132276840965744 0 0.4596473821195909 0.06390022630071064 0
          0.28258934834075716 0.11644611001033998 0 -0.11834049417752442 0.19678370110808469 0
          0.1541370994123306 0.16329362488643007 0 -0.07208444021141003 0.222794409754819 0
          0.06226691396702139 0.2002008362342745 0 -0.09762037115771979 0.2253687472705276 0
          -0.0023753377472304394 0.22634998303183057 0 0.9999999999999999 0 0
          0.6530138275003828 0.02558905084043924 0 -0.0468854547198593 0.24229575087037722 0
          0.40219601998255267 0.08364695186531018 0 -0.11397505404779512 0.22219040512495328 0
          0.22866009273320625 0.14473316178334025 0 0.1106658146470641 0.19500204194768453 0
          -0.07664090349898746 0.24928515102904206 0 0.030992117428245092 0.23159726727878732 0
          -0.12342334811145345 0.21448879458534392 0 -0.0956519841277218 0.24886323802166316 0
          -0.022009076198375485 0.25521425337998727 0 0.9999999999999997 0 0
          -0.056354535045121314 0.2674581545045327 0 0.5943527449703238 0.03500995922506034 0
          -0.10686634507918374 0.24259578965464154 0 0.3345716642766233 0.10731064184991636 0
          0.16986936072538047 0.1764319750256237 0 -0.07773818051791857 0.2702978204322415 0
          0.06679977331868647 0.22750615520062498 0 0.0022625255319195896 0.2605605644029278 0
          -0.11244305253475537 0.23191861830891725 0 -0.09017308137774967 0.2657666691636695 0
          -0.03753802800749053 0.27878273590970454 0 -0.11396784860861899 0.2180772722200776 0
          -0.06115777261328621 0.2851402208114436 0 -0.09644378172031044 0.2557243650848563 0
          0.9999999999999999 0 0 0.5137118402863878 0.04356861497810191 0
          0.25871269558246257 0.13073300051195108 0 0.1114098150341648 0.20668380615244825 0
          -0.0742455094453705 0.282338754573004 0 0.02794963826209801 0.2556161921638933 0
          -0.09847901798676591 0.2417523101829042 0 -0.01938924853658561 0.28160853556762794 0
          -0.08054082807658373 0.2728287697160319 0 -0.04557038024860149 0.29150490828453834 0
          -0.0976238904736905 0.22514340411011882 0 -0.0824736815784432 0.2586622091400004 0
          -0.0590267012090169 0.29002986447606666 0 0.9999999999999999 0 0
          0.39443128869481325 0.053520580225564926 0 0.17119039656496904 0.14698046729406594 0
          0.05786877664917351 0.2268232847149707 0 -0.06488426257993522 0.280568883527623 0
          0.0008212556355741561 0.2706157071231692 0 -0.09482144415509015 0.20692802727602205 0
          -0.08161988512219072 0.24145327998523172 0 -0.02815941026512989 0.28590150940702896 0
          -0.06627726963477923 0.26581001556746897 0 -0.04194972041322653 0.2847388782923507 0
          -0.07901176930964214 0.22243459690724912 0 -0.06508023655319696 0.24781022056942661 0
          -0.04736002634383071 0.2742129066710205 0 -0.04833523382970783 0.25814570211434107 0
          -0.07532935101010516 0.2025326116948589 0 -0.06241498448597542 0.22804626761982674 0
          -0.04704750307122211 0.2390442382184815 0 -0.05896238064690359 0.20754769143710425 0
          -0.044629723144406226 0.21863280065641935 0 -0.05513468150095394 0.1870266231403819 0
          -0.041691456072960834 0.19800587826030422 0 -0.038579036063959245 0.1778161858620252 0
          -0.03548430905465797 0.15844665285845255 0 -0.14924132664282355 0.003682029085531306 0
          -0.14830705565387972 0.03761939166437555 0 -0.1497668144468911 -0.03049798284106447 0
          -0.1497901093744275 -0.06466078470065137 0 -0.14907368369148563 -0.09847157519320326 0
          -0.14723697057220192 -0.13144615544614488 0 -0.14377108087693874 -0.1628690783654921 0
          -0.13807786547845055 -0.191710177584903 0 -0.12097491711708781 -0.2246701828158633 0
          -0.10307713836956095 -0.25450317917774484 0 -0.08556726634260559 -0.28000295406793685 0
          -0.0693598341393667 -0.29968385340211284 0 -0.06418224357784319 -0.30671303515037773 0
          -0.04949873554687689 -0.2896553377444141 0 -0.028310287037036263 -0.23891638452904818 0
          -0.010072184222188512 -0.16448132903090487 0 0 0 0
          -0.11260875202503061 0.202113722811233 0 -0.09073410112797327 0.18790940370818193 0
          -0.12771402174198346 0.2033916879348826 0 -0.13169939388138618 0.19153861607790243 0
          -0.13771775188607172 0.1646791771733191 0 -0.14196533813481813 0.1351109389243182 0
          -0.14490225508164092 0.10370130402038634 0 -0.14691890270228683 0.07106183384630634 0
          -0.051175697619657005 0.16696995048480748 0 -0.032501899605851474 0.14011794359474655 0
          -0.0710195441654869 0.18243230905773442 0
          <InformationKey name="L2_NORM_RANGE" location="vtkDataArray" length="2">
            <Value index="0">
              0
            </Value>
            <Value index="1">
              1
            </Value>
          </InformationKey>
        </DataArray>
        <DataArray type="Float64" Name="Pressure" format="ascii" RangeMin="53.26055281675938" RangeMax="125.55006272791009">
          125.55006272791009 120.62841129698398 103.10811620583951 105.19429103544157 103.73361401466681 87.0225160461144
          96.65036096488394 90.98039727576513 88.57922850067462 89.73387021179593 78.9938837354447 82.74076127273628
          87.01924499384141 82.69206598717646 84.1393979736615 81.87882801658608 75.46161806478523 78.62145706861186
          81.22007366314016 81.09756283570862 80.56507323834339 79.17817751952799 79.3973408674409 78.58614430779616
          77.90530222277773 73.63090992552665 76.21043270982265 78.19683725115136 76.87642165490706 78.2066939898054
          77.800960746016 76.60719397884233 77.76964292959187 72.42339828895562 74.47828944016781 76.49693128638513
          75.1277350509862 76.19306307608989 76.81903486146204 76.26225883044324 75.01348953098737 71.5604810789307
          75.62831941430231 73.16956785437246 75.67791062060252 74.78394298341092 73.75815355917176 73.74364644645604
          74.87078945000354 74.47021507714487 70.94338047272915 72.19147554083246 73.6292058682969 72.70028443246146
          74.00481290161143 72.74417579752316 73.46412368826952 72.70054485520494 70.49451490784024 71.45332449501363
          73.18748364562786 71.87628858075944 73.44280972421389 72.61962803997842 71.94512840608111 71.93953192746955
          72.81646548148242 72.45502321578617 70.15452037527626 70.87721218161317 71.21488683207714 71.9037820554629
          71.28568960349834 72.40599571817734 72.21021561589188 71.29593353885909 71.80451260447715 69.88594718141279
          70.40998105130417 71.28277044950197 70.66583330925972 71.91934185666211 71.64144247193836 70.72459507433146
          71.22257376670456 70.73672617595702 69.66648894345686 71.43707118796401 71.61206625859737 70.017313149448
          70.73289076466028 70.19534028915118 71.11404996451661 70.23387264943977 70.69648677581822 70.23932138362883
          71.21189534639052 70.97252981750685 70.23674821725925 69.481952744553 69.67531351215347 70.62567815848975
          69.7785073593649 69.79180056069227 70.21466299423302 70.81190896460626 70.98059601710393 69.78527582107273
          70.53067783890206 70.17068226075232 69.7791229848515 69.3225283135614 69.36559210849343 70.6421254857541
          69.3950586658894 70.42058107074914 69.76557660593112 69.37974506671334 70.11100183293482 69.35808783355452
          69.74155985516748 69.34586051794152 70.30160949626365 69.18116843817106 70.04102193530255 69.07277608190924
          69.02723138021165 69.33791266822784 69.70989376186733 68.98089109347555 68.9426439605167 69.96411028037866
          69.33017383332842 69.67294077686546 68.92387300081788 69.05275745016033 68.78280985935243 68.65818824318082
          69.32239065377252 68.9210241851839 68.57917498601815 69.63175370045009 68.52462141610899 68.92856632783776
          69.31424653426318 68.50090152372714 68.93358049376272 68.94320030116658 68.48136011248172 68.50497900031189
          68.27041501067944 69.3047809724049 68.158116964735 68.08970303140062 68.5292289363116 68.96207763168871
          68.06501758637656 68.56714552255745 68.82099595148863 68.15206868294794 68.08031397007959 68.98238690104988
          67.84396616904193 67.69967966676616 68.61335819236452 68.12508977447571 67.62291627311548 67.60422361925502
          68.18933461142147 68.66329249666805 67.63781666041844 68.71321082372371 67.774394177647 67.35418066599449
          68.26510719771426 67.18289840344555 67.70946644113025 67.10807517128728 67.1062933453796 67.80527442708171
          68.34613856742637 67.16851314100724 68.60889101265072 67.3211740140681 66.76850464194311 67.91467058867168
          66.58137617864396 67.27613525860184 66.52636216861858 68.02978944574213 66.55820251216463 67.41102752707631
          66.6635561456547 68.50418911347029 67.55995539112112 66.7565351134201 66.04430882044646 66.81942636828606
          65.86046689760681 65.85346991264228 67.71361265255645 67.0034186842603 65.94406834794093 66.11313444793244
          67.19972282017005 68.37305142879403 66.02702987962822 65.13163697920895 66.33381106485244 64.98239575905187
          67.39783328975551 65.06196555397557 66.5800058029989 65.24539793348275 65.50630695815839 66.83378511304882
          68.0999978570087 65.00989270560987 65.81394039686306 63.96715179818945 63.92703791301263 67.08387860673065
          64.1448244432292 66.1392395080438 64.45832420906365 66.46313945895469 64.8424436147018 67.41309082719981
          63.391917302177234 65.2623586642728 62.40069099395038 66.77444392254085 62.684573919257296 63.14137708584356
          65.68557436860709 63.62408429471388 67.06642534037766 66.09301928916588 64.15612705728044 66.2334282739632
          64.70840211044265 60.75006661942447 66.47492594542807 60.070584859166544 61.10657475805266 65.2437080515071
          62.03361294626479 62.765723890695675 66.8261130962851 65.74341550421968 63.4783625239502 67.14397383633788
          64.18532511862995 66.20090199327093 66.00288141683133 57.64558502906056 56.69465704208198 58.73137062589987
          64.847576942494 60.438595215700204 66.61382023787469 61.60183160915563 65.44693523754452 62.60961308208642
          66.9817355791497 65.98217380562073 63.56093302804737 69.6712579121353 57.04697807504709 53.26055281675938
          55.331788248686905 64.41987628952367 57.748327626792744 67.30564039580564 66.45594404933753 59.534314822912975
          65.16813597745276 61.05761013896292 66.8712533702911 65.81318567896385 62.4532303963982 63.67796608385114
          67.23167956572526 66.36723374697708 64.70893156267657 66.84045496623578 65.56351568404015 67.24174888843193
          66.26883936122788 66.84859193529486 67.3226124166055 69.00202164179582 68.71345700640374 69.29341305642099
          69.58745792369123 69.88337090274439 70.17925511501552 70.47155274848572 70.75458452991182 71.30797700838282
          71.99692251263623 72.87309307586553 74.0491157778414 74.57410335543415 74.95444970514978 75.11401801900345
          76.31504022368587 75.6334934747982 67.42765708521124 67.58755720433217 67.33503333899367 67.32297885405585
          67.59053334783952 67.86532096276336 68.14480740408123 68.42768838748376 67.57949307561738 67.7079930495212
          67.54140294612371
        </DataArray>
      </PointData>
      <CellData>
        <DataArray type="UInt8" Name="vtkGhostType" format="ascii" RangeMin="0" RangeMax="0">
          0 0 0 0 0 0
          0 0 0 0 0 0
          0 0 0 0 0 0
          0 0 0 0 0 0
          0 0 0 0 0 0
          0 0 0 0 0 0
          0 0 0 0 0 0
          0 0 0 0 0 0
          0 0 0 0 0 0
          0 0 0 0 0 0
          0 0 0 0 0 0
          0 0 0 0 0 0
          0 0 0 0 0 0
          0 0 0 0 0 0
          0 0 0 0 0 0
          0 0 0 0 0 0
          0 0 0 0 0 0
          0 0 0 0 0 0
          0 0 0 0 0 0
          0 0 0 0 0 0
          0 0 0 0 0 0
          0 0 0 0 0 0
          0 0 0 0 0 0
          0 0 0 0 0 0
          0 0 0 0 0 0
          0 0 0 0 0 0
          0 0 0 0 0 0
          0 0 0 0 0 0
          0 0 0 0 0 0
          0 0 0 0 0 0
          0 0 0 0 0 0
          0 0 0 0 0 0
          0 0 0 0 0 0
          0 0 0 0 0 0
          0 0 0 0 0 0
          0 0 0 0 0 0
          0 0 0 0 0 0
          0 0 0 0 0 0
          0 0 0 0 0 0
          0 0 0 0 0 0
          0 0 0 0 0 0
          0 0 0 0 0 0
          0 0 0 0 0 0
          0 0 0 0 0 0
          0 0 0 0 0 0
          0 0 0 0 0 0
          0 0 0 0 0 0
          0 0 0 0 0 0
          0 0 0 0 0 0
          0 0 0 0 0 0
          0 0 0 0 0 0
          0 0 0 0 0 0
          0 0 0 0 0 0
          0 0 0 0 0 0
          0 0 0 0 0 0
          0 0 0 0 0 0
          0 0 0 0 0 0
          0 0 0 0 0 0
          0 0 0 0 0 0
          0 0 0 0 0 0
          0 0 0 0 0 0
          0 0 0 0 0 0
          0 0 0 0 0 0
          0 0 0 0 0 0
          0 0 0 0 0 0
          0 0 0 0 0 0
          0 0 0 0 0 0
          0 0 0 0 0 0
          0 0 0 0 0 0
          0 0 0 0 0 0
          0 0 0 0 0 0
          0 0 0 0 0 0
          0 0 0 0 0 0
          0 0 0 0 0 0
          0 0 0 0 0 0
          0 0 0 0 0 0
          0 0 0 0 0 0
          0 0 0 0 0 0
          0 0 0 0 0 0
          0 0 0 0 0 0
          0 0 0 0 0 0
          0 0 0 0 0 0
          0 0 0 0 0 0
          0 0 0 0 0 0
          0 0 0 0 0 0
          0 0 0 0 0 0
          0 0 0 0 0 0
          0 0 0 0 0 0
          0 0 0 0 0 0
          0 0 0 0 0 0
          0 0 0 0 0 0
          0 0 0 0 0 0
          0 0 0 0 0 0
          0 0 0 0
        </DataArray>
      </CellData>
      <Points>
        <DataArray type="Float32" Name="Points" NumberOfComponents="3" format="ascii" RangeMin="0.5426273808170171" RangeMax="1.4142135623730951">
          1 1 0 1 0.9666666388511658 0
          0.9666666388511658 1 0 0.9666666388511658 0.9666666388511658 0
          1 0.9333333373069763 0 0.9333333373069763 1 0
          0.9666666388511658 0.9333333373069763 0 0.9333333373069763 0.9666666388511658 0
          0.9333333373069763 0.9333333373069763 0 1 0.8999999761581421 0
          0.8999999761581421 1 0 0.8999999761581421 0.9666666388511658 0
          0.9666666388511658 0.8999999761581421 0 0.8999999761581421 0.9333333373069763 0
          0.9333333373069763 0.8999999761581421 0 1 0.8666666746139526 0
          0.8666666746139526 1 0 0.8666666746139526 0.9666666388511658 0
          0.9666666388511658 0.8666666746139526 0 0.8999999761581421 0.8999999761581421 0
          0.9333333373069763 0.8666666746139526 0 0.8666666746139526 0.9333333373069763 0
          0.8999999761581421 0.8666666746139526 0 0.8666666746139526 0.8999999761581421 0
          1 0.8333333134651184 0 0.8333333134651184 1 0
          0.8333333134651184 0.9666666388511658 0 0.9666666388511658 0.8333333134651184 0
          0.8333333134651184 0.9333333373069763 0 0.9333333373069763 0.8333333134651184 0
          0.8666666746139526 0.8666666746139526 0 0.8333333134651184 0.8999999761581421 0
          0.8999999761581421 0.8333333134651184 0 0.800000011920929 1 0
          0.800000011920929 0.9666666388511658 0 0.9333333373069763 0.800000011920929 0
          0.800000011920929 0.9333333373069763 0 0.8333333134651184 0.8666666746139526 0
          0.8666666746139526 0.8333333134651184 0 0.8999999761581421 0.800000011920929 0
          0.800000011920929 0.8999999761581421 0 0.7666666507720947 1 0
          0.8333333134651184 0.8333333134651184 0 0.7666666507720947 0.9666666388511658 0
          0.8666666746139526 0.800000011920929 0 0.800000011920929 0.8666666746139526 0
          0.7666666507720947 0.9333333373069763 0 0.7666666507720947 0.8999999761581421 0
          0.8333333134651184 0.800000011920929 0 0.800000011920929 0.8333333134651184 0
          0.7333333492279053 1 0 0.7333333492279053 0.9666666388511658 0
          0.7666666507720947 0.8666666746139526 0 0.7333333492279053 0.9333333373069763 0
          0.800000011920929 0.800000011920929 0 0.7333333492279053 0.8999999761581421 0
          0.7666666507720947 0.8333333134651184 0 0.7333333492279053 0.8666666746139526 0
          0.699999988079071 1 0 0.699999988079071 0.9666666388511658 0
          0.7666666507720947 0.800000011920929 0 0.699999988079071 0.9333333373069763 0
          0.800000011920929 0.7666666507720947 0 0.7333333492279053 0.8333333134651184 0
          0.699999988079071 0.8999999761581421 0 0.699999988079071 0.8666666746139526 0
          0.7666666507720947 0.7666666507720947 0 0.7333333492279053 0.800000011920929 0
          0.6666666865348816 1 0 0.6666666865348816 0.9666666388511658 0
          0.6666666865348816 0.9333333373069763 0 0.699999988079071 0.8333333134651184 0
          0.6666666865348816 0.8999999761581421 0 0.7666666507720947 0.7333333492279053 0
          0.7333333492279053 0.7666666507720947 0 0.6666666865348816 0.8666666746139526 0
          0.699999988079071 0.800000011920929 0 0.6333333253860474 1 0
          0.6333333253860474 0.9666666388511658 0 0.6666666865348816 0.8333333134651184 0
          0.6333333253860474 0.9333333373069763 0 0.7333333492279053 0.7333333492279053 0
          0.699999988079071 0.7666666507720947 0 0.6333333253860474 0.8999999761581421 0
          0.6666666865348816 0.800000011920929 0 0.6333333253860474 0.8666666746139526 0
          0.6000000238418579 1 0 0.699999988079071 0.7333333492279053 0
          0.7333333492279053 0.699999988079071 0 0.6000000238418579 0.9666666388511658 0
          0.6333333253860474 0.8333333134651184 0 0.6000000238418579 0.9333333373069763 0
          0.6666666865348816 0.7666666507720947 0 0.6000000238418579 0.8999999761581421 0
          0.6333333253860474 0.800000011920929 0 0.6000000238418579 0.8666666746139526 0
          0.699999988079071 0.699999988079071 0 0.6666666865348816 0.7333333492279053 0
          0.6000000238418579 0.8333333134651184 0 0.5666666626930237 1 0
          0.5666666626930237 0.9666666388511658 0 0.6333333253860474 0.7666666507720947 0
          0.5666666626930237 0.9333333373069763 0 0.5666666626930237 0.8999999761581421 0
          0.6000000238418579 0.800000011920929 0 0.6666666865348816 0.699999988079071 0
          0.699999988079071 0.6666666865348816 0 0.5666666626930237 0.8666666746139526 0
          0.6333333253860474 0.7333333492279053 0 0.6000000238418579 0.7666666507720947 0
          0.5666666626930237 0.8333333134651184 0 0.5333333611488342 1 0
          0.5333333611488342 0.9666666388511658 0 0.6666666865348816 0.6666666865348816 0
          0.5333333611488342 0.9333333373069763 0 0.6333333253860474 0.699999988079071 0
          0.5666666626930237 0.800000011920929 0 0.5333333611488342 0.8999999761581421 0
          0.6000000238418579 0.7333333492279053 0 0.5333333611488342 0.8666666746139526 0
          0.5666666626930237 0.7666666507720947 0 0.5333333611488342 0.8333333134651184 0
          0.6333333253860474 0.6666666865348816 0 0.5 1 0
          0.6000000238418579 0.699999988079071 0 0.5 0.9666666388511658 0
          0.5 0.9333333373069763 0 0.5333333611488342 0.800000011920929 0
          0.5666666626930237 0.7333333492279053 0 0.5 0.8999999761581421 0
          0.5 0.8666666746139526 0 0.6000000238418579 0.6666666865348816 0
          0.5333333611488342 0.7666666507720947 0 0.5666666626930237 0.699999988079071 0
          0.5 0.8333333134651184 0 0.46666666865348816 1 0
          0.46666666865348816 0.9666666388511658 0 0.46666666865348816 0.9333333373069763 0
          0.5333333611488342 0.7333333492279053 0 0.5 0.800000011920929 0
          0.46666666865348816 0.8999999761581421 0 0.5666666626930237 0.6666666865348816 0
          0.46666666865348816 0.8666666746139526 0 0.5 0.7666666507720947 0
          0.5333333611488342 0.699999988079071 0 0.46666666865348816 0.8333333134651184 0
          0.4333333373069763 1 0 0.5 0.7333333492279053 0