<?xml version="1.0"?>
<VTKFile type="UnstructuredGrid" version="0.1" byte_order="LittleEndian" header_type="UInt32" compressor="vtkZLibDataCompressor">
  <UnstructuredGrid>
    <Piece NumberOfPoints="324" NumberOfCells="580">
      <PointData>
        <DataArray type="Float64" Name="Velocity" NumberOfComponents="3" format="ascii" RangeMin="0" RangeMax="0.24953117491122184">
          -0.14376950788543585 -0.16538973976335541 0 -0.14718276278948514 -0.13358463940259993 0
          -0.153729311089608 -0.15939017709423878 0 -0.14896454576719173 -0.10016497609415914 0
          -0.159975277704756 -0.1297144857479759 0 -0.1641194795133951 -0.0979400192972425 0
          -0.1496271134028872 -0.06586330816790416 0 -0.1663247848332216 -0.12353961731741062 0
          -0.16654367902964007 -0.06488198002738188 0 -0.17229528934988134 -0.0938606388486131 0
          -0.1495535953170747 -0.031180105780002017 0 -0.16772631411601066 -0.11566338738428798 0
          -0.17612672926992218 -0.06260248829795964 0 -0.16755493403389526 -0.031155623821124745 0
          -0.17502235319976744 -0.08836348324636026 0 -0.14898300078741988 0.0035343207152210253 0
          -0.17991284718217243 -0.05929500757006041 0 -0.1780398375735665 -0.03044881980369366 0
          -0.17358330886724527 -0.08185299467654494 0 -0.1673591931793374 0.002761180077114158 0
          -0.14800894174908247 0.03800507719316731 0 -0.18253371473257124 -0.02917027994991952 0
          -0.1792143123302563 -0.0552228628092743 0 -0.17819546581637166 0.002033333799052869 0
          -0.1660507352952749 0.0364648851048815 0 -0.1690295688147234 -0.07468307565135907 0
          -0.14658515284824658 0.07196490395567036 0 -0.18299639277164634 0.0013911954119397109 0
          -0.18235498539736636 -0.027440655173139754 0 -0.17512459928377302 -0.05062587031163969 0
          -0.1766785034114725 0.0343439432120001 0 -0.16220482949142725 -0.06715036892117551 0
          -0.16361220265395576 0.06956544713875802 0 -0.14453464904262078 0.10509031964026902 0
          -0.18306897017818866 0.0008534597937628611 0 -0.1813698247242611 0.031825903556573526 0
          -0.1786146136432474 -0.025378780852762194 0 -0.16853358856555814 -0.0457115850724412 0
          -0.17349363977873086 0.0659989257972146 0 -0.1537703189904689 -0.059495075948465335 0
          -0.15992207630074565 0.10162769720635133 0 -0.1795208072174455 0.00042307039969903987 0
          -0.1814062481436991 0.02906300483760019 0 -0.14156273672039482 0.13693821200379788 0
          -0.1722259360428894 -0.023093652437892975 0 -0.17767370398978494 0.06158585904398529 0
          -0.16014735887799617 -0.04065250902088213 0 -0.16857057067753398 0.09647946374679603 0
          -0.14422885685717743 -0.05190605025721125 0 -0.15476905576835123 0.132113845675568 0
          -0.17787403427907172 0.02617643218905236 0 -0.17326775794588745 0.00009305031655612422 0
          -0.17739551186703156 0.05660477046291375 0 -0.16392030240572672 -0.0206799886744062 0
          -0.17188157922677816 0.09009713844550896 0 -0.13727670734460878 0.16687988046388622 0
          -0.15050909631448312 -0.03558723010686811 0 -0.16177787588012285 0.12518249217208546 0
          -0.13394631519644903 -0.04452803825973965 0 -0.14787527390082275 0.16032615025054253 0
          -0.17370748909395364 0.05128823368445624 0 -0.17167252580119524 0.023259674250027493 0
          -0.17104572767522885 0.08287661696289643 0 -0.16504727163655272 -0.00014872992494707567 0
          -0.1542651823406543 -0.018216596039950062 0 -0.16393319466235776 0.1167193304552301 0
          -0.13121569239507322 0.19403016833460437 0 -0.15294681446590427 0.15137302554413234 0
          -0.1400189767676417 -0.030623918214807803 0 -0.16747492882361026 0.04582438545865207 0
          -0.16352715568124712 0.020383104705195776 0 -0.16705734112883538 0.07515189510153618 0
          -0.13893093293646672 0.18534945822003035 0 -0.1231699261208297 -0.03746984705771335 0
          -0.16235656146413108 0.1072259159051373 0 -0.15543457903675986 -0.00031610232070302063 0
          -0.15375690286793792 0.1407076887112882 0 -0.14368237441820075 -0.0157667108444403 0
          -0.12895178591085552 -0.025845162650708922 0 -0.14190676214397674 0.17413956990255652 0
          -0.1593944014574395 0.04036151414604281 0 -0.1607310412582996 0.06719600564204994 0
          -0.15797127981280093 0.0971240975580411 0 -0.15400480451081394 0.017598747163482354 0
          -0.1513383087574733 0.12892101371314066 0 -0.14485952969460067 -0.0004224104183161597 0
          -0.12764073217291072 0.20599471366641886 0 -0.11204338456306336 -0.030812774006597037 0
          -0.14130318869064043 0.16118024940378503 0 -0.13246469279321546 -0.013379707696430132 0
          -0.15271892537926307 0.05922632191310847 0 -0.15000934683789896 0.03501415140754416 0
          -0.15152519280326512 0.08675805676562814 0 -0.12853084180685387 0.19235512145360323 0
          -0.11747171574101614 -0.02131347889076781 0 -0.1465255263173477 0.1165045629431802 0
          -0.14352973384701542 0.01494459641993714 0 -0.13804188818341895 0.14712852990687525 0
          -0.13362238243039487 -0.00047947409732140617 0 -0.12658652640725343 0.17709318420671652 0
          -0.1207901893879782 -0.011093633275454602 0 -0.14352729739611714 0.05141238321547471 0
          -0.14361149279277755 0.07640132317429961 0 -0.13972553867705295 0.029869516749174672 0
          -0.13998406317842682 0.1038556189376904 0 -0.13285055446154564 0.13252183085734384 0
          -0.13239862162378174 0.01244798542129047 0 -0.1127909095624146 0.20465014845526236 0
          -0.10564421291954104 -0.017076927262935953 0 -0.12259525894999886 0.16090006358110565 0
          -0.12190741013294457 -0.0004973573822808454 0 -0.1346872273619306 0.0662669278432421 0
          -0.13353203397570085 0.04388483434846959 0 -0.13223509836197395 0.09128698275776288 0
          -0.10973110944661964 0.18723030896064805 0 -0.10873360130727801 -0.008937817512648496 0
          -0.12882533134257815 0.024993054272643644 0 -0.12629804018295485 0.11778786509562539 0
          -0.11716139470682795 0.1443286067769816 0 -0.12079365904063114 0.010128073977719797 0
          -0.10979393958574421 -0.00048393933530803136 0 -0.10523942982960047 0.1691734696470507 0
          -0.12367601182345796 0.07903998809796546 0 -0.12508892801105786 0.05651936521397815 0
          -0.11882228537099476 0.10325818518127061 0 -0.12299172353319335 0.036743478210335544 0
          -0.09103935888406725 0.1902194073401216 0 -0.09627460828424425 -0.00693538006068699 0
          -0.11748019613662805 0.020432473967218062 0 -0.11074548844901429 0.1278096568247872 0
          -0.10879345572391683 0.007998974464225666 0 -0.09978429795688765 0.15101098507037738 0
          -0.11459656358155483 0.06729988091758542 0 -0.08637917503101988 0.17079797739365332 0
          -0.09726445994596962 -0.00044381046166297455 0 -0.11504441497884454 0.04728582955435531 0
          -0.11075258745768868 0.0891843051555756 0 -0.11205888303736529 0.03006253478179982 0
          -0.1036940564232032 0.11167002441733102 0 -0.10576201927107265 0.01622249453454913 0
          -0.09371097719787637 0.1331457206692223 0 -0.07113739671051701 0.18459303683063355 0
          -0.096381449529195 0.006074749393168001 0 -0.08119208179614597 0.15161788520885444 0
          -0.10518961598493769 0.056210704192919264 0 -0.10232645814919186 0.07575639045594863 0
          -0.10468122865272192 0.03866333511228664 0 -0.09626256312182098 0.09615163755732532 0
          -0.06670707403839575 0.16459620570314323 0 -0.08420803653508399 -0.00037921248226685647 0
          -0.08727107276527815 0.11587446869988016 0 -0.100791777136638 0.02389523292404457 0
          -0.0936529770131074 0.012393502760193484 0 -0.07570774743921597 0.13302128437315727 0
          -0.05113574329087091 0.16888617099857814 0 -0.06210875162942 0.1452199514597324 0
          -0.08344931018025731 0.004372516446883763 0 -0.09369976414495751 0.06312170615976992 0
          -0.09555629872345403 0.04588494524961845 0 -0.08863277963906625 0.08143261471193075 0
          -0.08064448123132228 0.09940978900527037 0 -0.09403713307948469 0.03072239999365979 0
          -0.07008557399943537 0.11524999639993244 0 -0.0891679492041115 0.018284214932720064 0
          -0.04736340127476206 0.14946048550017157 0 -0.07041746251521043 -0.0002962644608810589 0
          -0.05746536832344222 0.12671520283599744 0 -0.08104967011592036 0.00897993309582206 0
          -0.03235404616964065 0.1417122319755769 0 -0.08494992784731628 0.051396304321277834 0
          -0.08092310157756961 0.06764792063961848 0 -0.07395615996492023 0.083902183614606 0
          -0.08571135249894989 0.03640864945262501 0 -0.0436640524850424 0.13099911163221697 0
          -0.06979209163809617 0.002907352794920449 0 -0.08307897954855309 0.02351550382781518 0
          -0.06443388802899827 0.0984690421836094 0 -0.052854143082587 0.10924771191704138 0
          -0.07709142923185441 0.013275933833923094 0 -0.029658018500372214 0.12444242266895937 0
          -0.06775510020696693 0.006017053599188095 0 -0.04007664905577015 0.11363971903016333 0
          -0.07319111998485146 0.054901945997915674 0 -0.07607708894490314 0.04067223900829947 0
          -0.06728740338350533 0.06945966490820857 0 -0.07560298198450187 0.027848644626626402 0
          -0.05882399588317776 0.0827892525927744 0 -0.027120020059483486 0.10834133840337729 0
          -0.05509940676060379 0.0016885405083143699 0 -0.048322347908456006 0.09292069024452256 0
          -0.07171854834927993 0.01709396689335417 0 -0.0643796718496444 0.008921655302260176 0
          -0.03661597679361492 0.0974602109879539 0 -0.06543594544697978 0.04327520901772117 0
          -0.06068005608528482 0.05615750010255053 0 -0.0670123711536725 0.0310380414584052 0
          -0.05330045761674646 0.06828293911198063 0 -0.024733781393897817 0.09343085873141692 0
          -0.05346382890894179 0.0035351567632758564 0 -0.04389769908422952 0.07779703189604711 0
          -0.06514279982816418 0.020262126306879482 0 -0.05979436469344252 0.011514875011644913 0
          -0.033285250081145135 0.0824965258146226 0 -0.038955061292077764 0.000745366671909768 0
          -0.022482737010241588 0.0797066360923073 0 -0.05073705797378283 0.005268076927484935 0
          -0.05414107756269718 0.04404442936725903 0 -0.04788979023696099 0.0549823103320581 0
          -0.0576057399933699 0.03286023647493127 0 -0.03959164416546311 0.06391262336620357 0
          -0.05764777094073054 0.022586610721881006 0 -0.037765950310191816 0.0015960277789277154 0
          -0.03008553256353257 0.06876090021125619 0 -0.054190403505650395 0.013696523824279256 0
          -0.020349341900648795 0.06714881338666298 0 -0.04702312007085481 0.006830611495421062 0
          -0.020834670343178728 0.0001623294074149031 0 -0.0476656059863768 0.03319030544214106 0
          -0.04261456285893599 0.0428785211740776 0 -0.035766529764037186 0.002400595351790678 0
          -0.03540426257817181 0.05125976206481817 0 -0.04957089983656157 0.023838173160101103 0
          -0.04783623039761195 0.015361072006392666 0 -0.027009116312915096 0.05625497938243262 0
          -0.018326658311427227 0.05573194897005439 0 -0.04247174843835212 0.008181309547348817 0
          -0.020174450342245576 0.0003628748318281539 0 -0.03302248236545542 0.0031365271114131245 0
          -0.037523536029459285 0.03199824225274465 0 -0.041223472985592965 0.023812102418884967 0
          -0.03136298696160891 0.039756919068259663 0 -0.024016934322356746 0.04495084457524451 0
          -0.04109459076415496 0.016350622284537986 0 -0.019053992801459644 0.0005546496104831859 0
          -0.016408525801342968 0.04543047450968099 0 -0.037286410580957156 0.009306339475688027 0
          -0.029617720256027182 0.003794371676970857 0 0 0 0
          -0.02760222634302382 0.02933624340324916 0 -0.03271181060647882 0.02258239405552391 0
          -0.017502388458451285 0.0007332619640751775 0 -0.03440089659185443 0.016375747482991483 0
          -0.021079535743381797 0.03473174138151213 0 -0.014530904049695615 0.036204641093475605 0
          -0.03175539569830584 0.01020576172516228 0 0 0 0
          -0.025639441240964796 0.004402897629402971 0 -0.015551345883347122 0.0008989521024927458 0
          -0.024325268438133752 0.02026955501786614 0 -0.028075132067077093 0.015087152178970336 0
          -0.018397808967691845 0.025416243877639685 0 -0.012557511313240377 0.027964048562403695 0
          -0.02631384933311371 0.010757741191224114 0 0 0 0
          -0.0211783586989902 0.0050672916215428986 0 -0.01321504925159286 0.0010732466859433973 0
          0 0 0 -0.021403464777862726 0.01319618974978715 0
          -0.01649697738460221 0.01711302418367943 0 -0.010596122078686461 0.020564290276340942 0
          -0.02156406132954911 0.010342946403925047 0 -0.01639830882479047 0.005933580950780761 0
          -0.010470401145114563 0.0013437769976792694 0 0 0 0
          -0.015009366719816213 0.010666692598867931 0 -0.01801099624972085 0.007494577792614397 0
          -0.009490895816274105 0.013908488696385609 0 -0.011698232647694715 0.006778690968919835 0
          -0.007296426897736063 0.0019178619776825752 0 0 0 0
          -0.009366640741579852 0.008024734708287925 0 -0.010774041312081916 0.005912399652686849 0
          -0.007886444780318585 0.00563590931677361 0 -0.0038725619201690413 0.003006522364136709 0
          0 0 0 -0.0038021340900799 0.0025301853461161426 0
          -0.007489262704350206 -0.005369985893443633 0 -0.0009559442335339682 0.003983407065288204 0
          0 0 0 0.014497577354751729 -0.007333470338585371 0
          -0.0006305721848432762 0.00036095031481152604 0 0 0 0
          -0.022394370640275225 -0.0459481999456329 0 0 0 0
          0 0 0 -0.1654020189423728 -0.10662128559504616 0
          -0.15789460532283656 -0.14036009077855563 0 -0.15796548273627248 -0.15079477895644242 0
          -0.1449736494400451 -0.1858971075093905 0 -0.13812281477939423 -0.19453236460804083 0
          -0.12138055119150773 0.004286474720288749 0 -0.12089021086737878 0.03875475870687972 0
          -0.12231972312189317 -0.030436535120356854 0 -0.12362715391397952 -0.06529472351194579 0
          -0.12505093605510081 -0.1000999987624601 0 -0.12615732140816321 -0.1345143953772188 0
          -0.12632746933723557 -0.16795216836886775 0 -0.12477453100348063 -0.19946575043118595 0
          -0.09344452732614678 -0.013174877760443397 0 -0.1006189058536106 -0.02461899666764297 0
          -0.10465949673080699 -0.039252419915457304 0 -0.11526831441241592 -0.047850559559943266 0
          -0.1256025676873915 -0.05701147875825484 0 -0.13554427675060132 -0.06664250624795277 0
          -0.14488159706292403 -0.07661786703999303 0 -0.1532938729419847 -0.08676761978257787 0
          -0.16033320524432482 -0.09686623447330614 0 -0.09484578847705859 0.20941405482638664 0
          -0.11378639290977571 0.22074978202992165 0 -0.12289329817256572 0.21717054247029832 0
          -0.11730709313590783 0.19928794749218 0 -0.11961271405893391 0.1702666109979094 0
          -0.12056805216932458 0.1390254104255022 0 -0.12078586431891761 0.10637754600050763 0
          -0.12076892819066463 0.07284748441545337 0 0 0 0
          -0.021017430419625796 -0.00004150619259442834 0 -0.039295194590208374 -0.00012457085918367644 0
          -0.05558401065601459 -0.000208659062526914 0 -0.06961027333898563 -0.003480403547184359 0
          -0.08330157303718562 -0.005107454786626725 0 -0.05490299986484691 0.189056143201148 0
          -0.035196744413809426 0.1600878180193534 0 -0.0752090919645325 0.2048482764837891 0
          <InformationKey name="L2_NORM_RANGE" location="vtkDataArray" length="2">
            <Value index="0">
              0
            </Value>
            <Value index="1">
              0.24953117491
            </Value>
          </InformationKey>
        </DataArray>
        <DataArray type="Float64" Name="Pressure" format="ascii" RangeMin="67.08720053044453" RangeMax="71.36496933886127">
          70.4723701181819 70.18124019225463 70.30849533619337 69.88664087075749 70.06110126413188 69.80577190846441
          69.59213701060737 69.94670849517703 69.54668815059861 69.727178447329 69.29962963040305 69.84079778662668
          69.50132183800545 69.28674647629035 69.65305862792033 69.00989957707061 69.45746555740617 69.2725040895836
          69.58491317903949 69.02783774688352 68.72309525442712 69.2575064336484 69.4162436626455 69.0432925973783
          68.77121551597403 69.52365899134237 68.43912693774959 69.05609238605886 69.24237740949968 69.37847254451609
          68.8157036096983 69.46975956228434 68.5178467571244 68.15800292804374 69.06634354481226 68.85571131665039
          69.22768881434186 69.34468744960384 68.59147732747375 69.4233508718685 68.26872167478254 69.07431666078467
          68.89087747378305 67.88018733654687 69.21391578258245 68.6586240910908 69.31519045383479 68.37233383032226
          69.38435340272348 68.02517818421545 68.92118074843673 69.08035578964231 68.71855205651413 69.20142003263238
          68.46705601614919 67.60708077948767 69.29010777260054 68.16024737165294 69.3525661083208 67.78936179876698
          68.77100618624728 68.94681790351576 68.55190817068747 69.08481545352564 69.19045259357011 68.28341272990527
          67.34144908893043 67.95786519829159 69.26944975151935 68.81606600242037 68.96811065280211 68.62649955512413
          67.56470627437845 69.3277473448611 68.39361225807967 69.08801744514456 68.11064627202674 69.18117282372474
          69.25317849756857 67.76899820040877 68.85403338761556 68.69086281434726 68.49045436320407 68.98542812818219
          68.2467649743706 69.090227489348 67.35570921801533 69.30967762037844 67.9527278073699 69.1736956115197
          68.74532904040619 68.8853300172957 68.5740330482296 67.59838957991991 69.2412653084322 68.36600241130266
          68.99912438637084 68.11533926109388 69.09167623735887 67.8144056633763 69.16814217451926 68.79040288664854
          68.64479291101617 68.91040045187106 68.46866005753094 68.25700707356566 69.0095306423583 67.45037432046922
          69.233695080572 68.0039278112418 69.09260262430519 68.70337673774894 68.82662853148138 68.55541522241947
          67.69950628176296 69.16461120070305 68.92968286867846 68.37842581820388 68.16780258469616 69.0169896840438
          69.09319505593974 67.91582952520459 68.62712929263759 68.7504353209464 68.4806582938506 68.85455680380527
          67.61188379647079 69.16311028757383 68.94364490677027 68.3073425107633 69.02176563496515 68.10117502929793
          68.68457011261641 67.85325462479888 69.09344700432959 68.78659880989846 68.56489061231613 68.87484071749367
          68.42417550251932 68.95264771911502 68.25771366786672 67.56833325058065 69.02381226668027 68.05804714491104
          68.72837100135588 68.63203392391104 68.81275693651617 68.51994675462097 67.83037853933291 69.09340326871703
          68.38781780448822 68.88806062841164 68.95657790115567 68.22947836128628 67.60951869804325 68.05033795360292
          69.02305532028402 68.68265891401126 68.75961874484855 68.59577938051036 68.4937396936675 68.82999075442095
          68.370790917054 68.89406703267154 67.88986279767126 69.09395571536862 68.2326502558523 68.95515006286244
          67.74139377718507 68.71797699868853 68.65218288268557 68.5769738438431 68.7802275334593 68.12104007922964
          69.02061551356397 68.83839535283829 68.48494274027209 68.38154214390248 68.89217842070848 68.05110410637407
          68.9496552108224 68.30943993692743 68.69056056703191 68.74086176769327 68.63813513857072 68.79124073463322
          68.57400875073479 68.29851548544033 69.01856277411154 68.50072515139479 68.83666939808666 68.8836645875903
          68.46080131496645 68.71491869127144 68.67901124295328 68.75395089841957 68.63916542158663 68.49386139545005
          68.94302082833843 68.5929171855118 68.79086696860811 68.82547443644904 68.57996494898538 69.01498817722266
          68.64576921617831 68.8725002461287 68.70525767303774 68.68299119563805 68.72890592187406 68.6602611644496
          68.7557852845854 68.93272272852678 68.67037476442513 68.77810938225034 68.76129776831516 68.80979902691087
          69.00195204712855 68.72120709827949 68.7127444523285 68.85603523907935 68.70692894703166 68.73078786934467
          68.74340143128201 68.73480729451366 68.84543820452765 68.75793925051656 68.90514210807504 68.7877446541948
          68.7342427992718 68.71767371314148 68.741286102596 68.77883578896896 68.71805743903207 68.8150823127286
          68.901478510784 68.71965550570923 68.73007640505887 68.85796232359131 68.76799450240804 68.72788571899028
          68.7351341380183 68.69062130129477 68.81223605116723 68.93451169184324 68.69422715149203 68.74190406007943
          68.68451864812432 68.66751323073493 68.7621669721485 68.65593476677509 68.83541565713595 68.95398496883735
          68.66728769610587 68.63847872777953 68.65364867754431 68.61259580033216 68.55141547929188 68.65262853314864
          68.81167267005952 68.95869216897499 68.59641780602769 68.64344884309256 68.57292036767362 68.48417641485486
          68.66621990733982 68.4478270706568 68.90016812613857 68.64659635322842 68.57001681255636 68.44644601795586
          68.68461140055432 68.37500040303918 68.57566412047309 68.66779788423351 68.47722035661438 68.29927773346498
          68.26379318631507 68.94071533458246 68.68557224878776 68.0768097156411 69.2852106546935 69.25538001767251
          69.23667554422799 70.2745013439393 71.36496933886127 69.74496961085191 70.01660994593621 70.15564805546235
          70.54243677246694 70.75434715834162 68.99008151300627 68.67285878109952 69.31070020210878 69.63603459824802
          69.96690257766564 70.30306352529864 70.64238834235215 70.979814218838 69.23046510625136 69.29819756267854
          69.37116598864411 69.39507643800764 69.42805061479501 69.47054392551878 69.52305916216912 69.5860821650703
          69.6599966685804 67.33086595145349 67.16714464950181 67.08720053044453 67.10226207260077 67.41432510974094
          67.72848412301745 68.04302382134793 68.35758822306437 68.98225370915256 69.10186266311929 69.0998274139444
          69.09644530574293 69.16716020028443 69.16375272039045 67.27289707902996 67.35712922535798 67.25963720707139
        </DataArray>
      </PointData>
      <CellData>
        <DataArray type="UInt8" Name="vtkGhostType" format="ascii" RangeMin="0" RangeMax="1">
          0 0 1 0 1 0
          0 0 0 0 0 1
          1 0 0 0 0 0
          0 0 0 1 0 1
          0 0 0 0 0 0
          0 0 0 0 1 1
          1 1 1 1 1 1
          1 1 1 1 1 1
          1 1 1 0 1 0
          0 0 0 1 0 1
          0 0 0 0 0 0
          0 0 0 0 1 1
          0 0 0 0 0 0
          0 0 0 0 0 0
          1 1 0 0 0 0
          0 0 0 0 0 0
          0 0 0 0 1 1
          0 0 0 0 0 0
          0 0 0 0 0 0
          0 0 0 0 1 1
          0 0 0 0 0 0
          0 0 0 0 0 0
          0 0 0 0 0 0
          1 1 0 0 0 0
          0 0 0 0 0 0
          0 0 0 0 0 0
          0 0 0 0 1 1
          0 0 0 0 0 0
          0 0 0 0 0 0
          0 0 0 0 0 0
          0 0 1 1 0 0
          0 0 0 0 0 0
          0 0 0 0 0 0
          0 0 0 0 0 0
          0 1 0 0 0 0
          0 0 0 0 0 0
          0 0 0 0 0 0
          0 0 1 0 1 0
          0 0 0 0 0 0
          0 0 0 0 0 0
          0 1 0 1 0 0
          0 0 0 0 0 0
          0 0 0 0 1 1
          1 1 1 1 1 1
          1 1 1 0 0 0
          0 0 0 0 0 0
          0 0 0 0 0 0
          0 0 0 0 0 1
          0 1 0 0 0 0
          0 0 0 0 0 0
          0 0 0 0 0 0
          0 0 0 0 0 0
          1 1 0 0 0 0
          0 0 0 0 0 0
          0 0 0 0 0 0
          0 0 0 0 0 0
          1 1 0 0 0 0
          0 0 0 0 0 0
          0 0 0 0 0 0
          0 0 0 0 0 0
          1 0 1 0 0 0
          0 0 0 0 0 0
          0 0 0 0 0 0
          0 0 0 0 0 0
          0 0 0 1 1 0
          0 0 0 0 0 0
          0 0 0 0 0 0
          0 0 0 0 0 0
          0 0 0 0 0 1
          0 1 0 0 0 0
          0 0 0 0 0 0
          0 0 0 0 0 0
          0 0 0 0 0 0
          0 0 0 0 0 0
          0 0 0 0 0 0
          0 0 0 0 0 0
          0 0 0 0 0 0
          0 0 0 0 0 0
          0 0 0 0 0 0
          0 0 0 0 0 0
          0 0 0 0 0 0
          0 0 0 0 0 0
          0 0 0 0 0 0
          0 0 0 0 0 0
          0 0 0 0 0 0
          0 0 0 0 0 0
          0 0 0 0 0 0
          0 0 0 0 0 0
          0 0 0 0 0 0
          0 0 0 0 0 0
          0 0 0 0 0 0
          0 0 0 0 0 0
          0 0 0 0 0 0
          0 0 0 0 0 0
          0 0 0 0 0 0
          0 0 0 0 1 1
          1 1 1 1
        </DataArray>
      </CellData>
      <Points>
        <DataArray type="Float32" Name="Points" NumberOfComponents="3" format="ascii" RangeMin="0.10000000149011612" RangeMax="0.9666666717364872">
          0.6666666865348816 0.6333333253860474 0 0.6333333253860474 0.6333333253860474 0
          0.6666666865348816 0.6000000238418579 0 0.6000000238418579 0.6333333253860474 0
          0.6333333253860474 0.6000000238418579 0 0.6000000238418579 0.6000000238418579 0
          0.5666666626930237 0.6333333253860474 0 0.6333333253860474 0.5666666626930237 0
          0.5666666626930237 0.6000000238418579 0 0.6000000238418579 0.5666666626930237 0
          0.5333333611488342 0.6333333253860474 0 0.6333333253860474 0.5333333611488342 0
          0.5666666626930237 0.5666666626930237 0 0.5333333611488342 0.6000000238418579 0
          0.6000000238418579 0.5333333611488342 0 0.5 0.6333333253860474 0
          0.5666666626930237 0.5333333611488342 0 0.5333333611488342 0.5666666626930237 0
          0.6000000238418579 0.5 0 0.5 0.6000000238418579 0
          0.46666666865348816 0.6333333253860474 0 0.5333333611488342 0.5333333611488342 0
          0.5666666626930237 0.5 0 0.5 0.5666666626930237 0
          0.46666666865348816 0.6000000238418579 0 0.6000000238418579 0.46666666865348816 0
          0.4333333373069763 0.6333333253860474 0 0.5 0.5333333611488342 0
          0.5333333611488342 0.5 0 0.5666666626930237 0.46666666865348816 0
          0.46666666865348816 0.5666666626930237 0 0.6000000238418579 0.4333333373069763 0
          0.4333333373069763 0.6000000238418579 0 0.4000000059604645 0.6333333253860474 0
          0.5 0.5 0 0.46666666865348816 0.5333333611488342 0
          0.5333333611488342 0.46666666865348816 0 0.5666666626930237 0.4333333373069763 0
          0.4333333373069763 0.5666666626930237 0 0.6000000238418579 0.4000000059604645 0
          0.4000000059604645 0.6000000238418579 0 0.5 0.46666666865348816 0
          0.46666666865348816 0.5 0 0.36666667461395264 0.6333333253860474 0
          0.5333333611488342 0.4333333373069763 0 0.4333333373069763 0.5333333611488342 0
          0.5666666626930237 0.4000000059604645 0 0.4000000059604645 0.5666666626930237 0
          0.6000000238418579 0.36666667461395264 0 0.36666667461395264 0.6000000238418579 0
          0.46666666865348816 0.46666666865348816 0 0.5 0.4333333373069763 0
          0.4333333373069763 0.5 0 0.5333333611488342 0.4000000059604645 0
          0.4000000059604645 0.5333333611488342 0 0.3333333432674408 0.6333333253860474 0
          0.5666666626930237 0.36666667461395264 0 0.36666667461395264 0.5666666626930237 0
          0.6000000238418579 0.3333333432674408 0 0.3333333432674408 0.6000000238418579 0
          0.4333333373069763 0.46666666865348816 0 0.46666666865348816 0.4333333373069763 0
          0.4000000059604645 0.5 0 0.5 0.4000000059604645 0
          0.5333333611488342 0.36666667461395264 0 0.36666667461395264 0.5333333611488342 0
          0.30000001192092896 0.6333333253860474 0 0.3333333432674408 0.5666666626930237 0
          0.5666666626930237 0.3333333432674408 0 0.4333333373069763 0.4333333373069763 0
          0.46666666865348816 0.4000000059604645 0 0.4000000059604645 0.46666666865348816 0
          0.30000001192092896 0.6000000238418579 0 0.6000000238418579 0.30000001192092896 0
          0.36666667461395264 0.5 0 0.5 0.36666667461395264 0
          0.3333333432674408 0.5333333611488342 0 0.5333333611488342 0.3333333432674408 0
          0.5666666626930237 0.30000001192092896 0 0.30000001192092896 0.5666666626930237 0
          0.4333333373069763 0.4000000059604645 0 0.4000000059604645 0.4333333373069763 0
          0.36666667461395264 0.46666666865348816 0 0.46666666865348816 0.36666667461395264 0
          0.3333333432674408 0.5 0 0.5 0.3333333432674408 0
          0.2666666805744171 0.6000000238418579 0 0.6000000238418579 0.2666666805744171 0
          0.30000001192092896 0.5333333611488342 0 0.5333333611488342 0.30000001192092896 0
          0.4000000059604645 0.4000000059604645 0 0.4333333373069763 0.36666667461395264 0
          0.36666667461395264 0.4333333373069763 0 0.2666666805744171 0.5666666626930237 0
          0.5666666626930237 0.2666666805744171 0 0.3333333432674408 0.46666666865348816 0
          0.46666666865348816 0.3333333432674408 0 0.30000001192092896 0.5 0
          0.5 0.30000001192092896 0 0.2666666805744171 0.5333333611488342 0
          0.5333333611488342 0.2666666805744171 0 0.4000000059604645 0.36666667461395264 0
          0.36666667461395264 0.4000000059604645 0 0.4333333373069763 0.3333333432674408 0
          0.3333333432674408 0.4333333373069763 0 0.30000001192092896 0.46666666865348816 0
          0.46666666865348816 0.30000001192092896 0 0.23333333432674408 0.5666666626930237 0
          0.5666666626930237 0.23333333432674408 0 0.2666666805744171 0.5 0
          0.5 0.2666666805744171 0 0.36666667461395264 0.36666667461395264 0
          0.4000000059604645 0.3333333432674408 0 0.3333333432674408 0.4000000059604645 0
          0.23333333432674408 0.5333333611488342 0 0.5333333611488342 0.23333333432674408 0
          0.4333333373069763 0.30000001192092896 0 0.30000001192092896 0.4333333373069763 0
          0.2666666805744171 0.46666666865348816 0 0.46666666865348816 0.2666666805744171 0