<?xml version="1.0"?>
<VTKFile type="UnstructuredGrid" version="0.1" byte_order="LittleEndian" header_type="UInt32" compressor="vtkZLibDataCompressor">
  <UnstructuredGrid>
    <Piece NumberOfPoints="57" NumberOfCells="72">
      <PointData>
        <DataArray type="Float64" Name="nsi_SBC" NumberOfComponents="3" format="ascii" RangeMin="0" RangeMax="0">
          0 0 0 0 0 0
          0 0 0 0 0 0
          0 0 0 0 0 0
          0 0 0 0 0 0
          0 0 0 0 0 0
          0 0 0 0 0 0
          0 0 0 0 0 0
          0 0 0 0 0 0
          0 0 0 0 0 0
          0 0 0 0 0 0
          0 0 0 0 0 0
          0 0 0 0 0 0
          0 0 0 0 0 0
          0 0 0 0 0 0
          0 0 0 0 0 0
          0 0 0 0 0 0
          0 0 0 0 0 0
          0 0 0 0 0 0
          0 0 0 0 0 0
          0 0 0 0 0 0
          0 0 0 0 0 0
          0 0 0 0 0 0
          0 0 0 0 0 0
          0 0 0 0 0 0
          0 0 0 0 0 0
          0 0 0 0 0 0
          0 0 0 0 0 0
          0 0 0 0 0 0
          0 0 0
          <InformationKey name="L2_NORM_RANGE" location="vtkDataArray" length="2">
            <Value index="0">
              0
            </Value>
            <Value index="1">
              0
            </Value>
          </InformationKey>
        </DataArray>
        <DataArray type="Float64" Name="nsi_SFIXNO" NumberOfComponents="3" format="ascii" RangeMin="0" RangeMax="1.7320508075688772">
          0 0 0 0 0 0
          0 0 0 -1 -1 -1
          0 0 0 0 0 0
          0 0 0 -1 -1 -1
          0 0 0 0 0 0
          -1 -1 -1 0 0 0
          0 0 0 0 0 0
          -1 -1 -1 0 0 0
          0 0 0 -1 -1 -1
          0 0 0 0 0 0
          -1 -1 -1 0 0 0
          0 0 0 -1 -1 -1
          0 0 0 0 0 0
          -1 -1 -1 0 0 0
          0 0 0 -1 -1 -1
          0 0 0 0 0 0
          -1 -1 -1 0 0 0
          0 0 0 -1 -1 -1
          0 0 0 0 0 0
          -1 -1 -1 0 0 0
          0 0 0 -1 -1 -1
          0 0 0 0 0 0
          -1 -1 -1 0 0 0
          -1 -1 -1 0 0 0
          0 0 0 -1 -1 -1
          0 0 0 0 0 0
          -1 -1 -1 0 0 0
          0 0 0 -1 -1 -1
          0 0 0
          <InformationKey name="L2_NORM_RANGE" location="vtkDataArray" length="2">
            <Value index="0">
              0
            </Value>
            <Value index="1">
              1.7320508076
            </Value>
          </InformationKey>
        </DataArray>
        <DataArray type="Float64" Name="nsi_UBC" NumberOfComponents="3" format="ascii" RangeMin="0" RangeMax="0">
          0 0 0 0 0 0
          0 0 0 0 0 0
          0 0 0 0 0 0
          0 0 0 0 0 0
          0 0 0 0 0 0
          0 0 0 0 0 0
          0 0 0 0 0 0
          0 0 0 0 0 0
          0 0 0 0 0 0
          0 0 0 0 0 0
          0 0 0 0 0 0
          0 0 0 0 0 0
          0 0 0 0 0 0
          0 0 0 0 0 0
          0 0 0 0 0 0
          0 0 0 0 0 0
          0 0 0 0 0 0
          0 0 0 0 0 0
          0 0 0 0 0 0
          0 0 0 0 0 0
          0 0 0 0 0 0
          0 0 0 0 0 0
          0 0 0 0 0 0
          0 0 0 0 0 0
          0 0 0 0 0 0
          0 0 0 0 0 0
          0 0 0 0 0 0
          0 0 0 0 0 0
          0 0 0
          <InformationKey name="L2_NORM_RANGE" location="vtkDataArray" length="2">
            <Value index="0">
              0
            </Value>
            <Value index="1">
              0
            </Value>
          </InformationKey>
        </DataArray>
        <DataArray type="Float64" Name="nsi_UFIXNO" NumberOfComponents="3" format="ascii" RangeMin="1" RangeMax="1.4142135623730951">
          1 1 0 1 1 0
          0 1 0 -1 -1 0
          0 1 0 1 1 0
          0 1 0 -1 -1 0
          0 1 0 1 1 0
          -1 -1 0 0 1 0
          1 1 0 0 1 0
          -1 -1 0 1 1 0
          0 1 0 -1 -1 0
          1 1 0 0 1 0
          -1 -1 0 1 1 0
          0 1 0 -1 -1 0
          1 1 0 0 1 0
          -1 -1 0 1 1 0
          0 1 0 -1 -1 0
          1 1 0 0 1 0
          -1 -1 0 1 1 0
          0 1 0 -1 -1 0
          1 1 0 0 1 0
          -1 -1 0 1 1 0
          0 1 0 -1 -1 0
          0 1 0 1 1 0
          -1 -1 0 0 1 0
          -1 -1 0 1 1 0
          0 1 0 -1 -1 0
          1 1 0 0 1 0
          -1 -1 0 0 1 0
          0 1 0 -1 -1 0
          1 1 0
          <InformationKey name="L2_NORM_RANGE" location="vtkDataArray" length="2">
            <Value index="0">
              1
            </Value>
            <Value index="1">
              1.4142135624
            </Value>
          </InformationKey>
        </DataArray>
        <DataArray type="Float64" Name="Velocity" NumberOfComponents="3" format="ascii" RangeMin="0" RangeMax="1.5124839600822018">
          0 0 0 0 0 0
          1.143929820031385 0 0 1.0780071285358062 -0.00981404894729381 0
          1.4621415079763107 0 0 0 0 0
          1.433359750257138 0 0 1.0216788999198 -0.005168302128467592 0
          1.4498809781480786 0 0 0 0 0
          1.0340023634057294 0.0017671354981239598 0 1.4668950767588729 0 0
          0 0 0 1.4729228372214438 0 0
          1.0354397909702122 0.00033701920055211277 0 0 0 0
          1.474544348070943 0 0 1.0331579176773475 -0.0007699889346065525 0
          0 0 0 1.4756207825998715 0 0
          1.0255594704833202 0.01694312373540188 0 0 0 0
          1.487592314931488 0 0 1.220841514745185 0.014101546420262389 0
          0 0 0 1.479465931691815 0 0
          1.2391999308447235 -0.0007789907752668472 0 0 0 0
          1.475975062469852 0 0 1.2408282403638546 -0.00204567873577771 0
          0 0 0 1.4743923718424459 0 0
          1.2299182968302937 -0.001243845900536425 0 0 0 0
          1.473618989029789 0 0 1.2306520420131581 -0.007872119131948777 0
          0 0 0 1.4727977204314207 0 0
          1.1567154747023416 -0.005585282060859103 0 0 0 0
          1.4720627166008393 0 0 1.176004650219827 0.012529412945193056 0
          1.4793807696325096 0 0 0 0 0
          1.2913267050175279 0.015231465512729542 0 1.4897909289627984 0 0
          1.3060682402822577 -0.009485404907973645 0 0 0 0
          1.4965456639401333 0 0 1.1775100736297492 -0.0037074213394178417 0
          0 0 0 1.5019673078955371 0 0
          1.2220335175200958 0.009287655768855298 0 1.5124839600822018 0 0
          1.4223532270925223 0 0 1.4308102718593314 -0.06497716007851614 0
          0 0 0
          <InformationKey name="L2_NORM_RANGE" location="vtkDataArray" length="2">
            <Value index="0">
              0
            </Value>
            <Value index="1">
              1.5124839601
            </Value>
          </InformationKey>
        </DataArray>
        <DataArray type="Float64" Name="Pressure" format="ascii" RangeMin="0.28964117543751605" RangeMax="12.510646496930477">
          0.4167271528204954 0.7931900934781995 0.28964117543751605 0.9880095893650049 0.2943452307337222 1.4225345709214285
          0.733459183474895 1.7864016194340953 1.4233386039439568 2.1745114228922104 2.563179806963361 2.236001044639852
          2.938363755714829 3.0075326604366173 3.311924130074995 3.6880646399017287 3.7610440386391213 4.055068152730443
          4.442105946806982 4.519318525282396 4.801054328962165 5.158076421906943 5.300268705115828 5.67817755746753
          5.9208292820640676 6.0262900602450955 6.416555045780191 6.657939122117642 6.788892272147096 7.14953749187619
          7.389109231910819 7.5279709140612905 7.878924889295662 8.116867110906162 8.22882542973446 8.556766851824312
          8.86089087647102 8.87445240611548 9.205405337705018 9.581133659117864 9.520548409044546 9.848831981485842
          10.136058048541956 10.299455331841274 10.390139078046309 10.688265681445486 10.963399592192928 11.05547350418124
          11.216347355922217 11.47140086596299 11.74122761376943 11.77767320801549 12.037289989192645 12.27232998626235
          12.454636349835782 12.510646496930477 12.49327181889061
        </DataArray>
        <DataArray type="Float64" Name="Sigma" NumberOfComponents="6" format="ascii" RangeMin="0.04341800788069316" RangeMax="0.6024431594246035">
          0.1482115634143799 -0.019347129455060674 0 -0.5058109146264811 0 0
          0.1340711446198295 0.006738453175891834 0 -0.539948564778181 0 0
          0.09784174346139096 0.008624087358022337 0 -0.2947224394049819 0 0
          0.036829275407157525 -0.005056905168387971 0 -0.29289093854395487 0 0
          0.038985348719711155 -0.009753110280619204 0 -0.0874656693189424 0 0
          0.11086782986780008 0.008493155782662853 0 -0.5346898356296537 0 0
          -0.0021276974793149606 -0.005935699173731379 0 -0.05966244745247984 0 0
          0.03685394361507832 0.00411318443127584 0 -0.3161267174994209 0 0
          -0.01914203031105899 -0.005552896901184212 0 -0.08213977926574412 0 0
          0.13993461181271982 0.00009723473626266355 0 -0.5545830212506098 0 0
          0.04562208051939187 0.00023719087338669453 0 -0.3146814541201137 0 0
          -0.017153389524238172 -0.0024671211091842338 0 -0.08301505846941559 0 0
          0.147136188758612 -0.0016467626418048553 0 -0.560409821942276 0 0
          -0.010082083220286364 0.0010517670530063583 0 -0.08076269238238565 0 0
          0.05170343703020386 -0.00025508869128110234 0 -0.3151219701676977 0 0
          0.14617517596327012 0.0008331153895646537 0 -0.5600260904624066 0 0
          -0.008743438835834283 0.00006841081257036308 0 -0.08157428242877574 0 0
          0.05695507675640421 0.000021372312364320578 0 -0.3192651456266904 0 0
          0.14697256456019936 -0.007821729581802828 0 -0.5550894647251003 0 0
          -0.015349108781315124 0.010286695760086673 0 -0.0849466818194089 0 0
          0.059437516568783266 -0.0011663028602892922 0 -0.32772769667205326 0 0
          0.15545680549133856 -0.01922345180593865 0 -0.5340167028387022 0 0
          -0.036370527738416314 0.018798660972541015 0 -0.07097778015635603 0 0
          0.04245948611014683 0.0003145619018596335 0 -0.2808682895898973 0 0
          0.12597257638935488 -0.0069560719553329875 0 -0.5200471881169899 0 0
          -0.01385757524219322 0.0049360424549949045 0 -0.05168245460296372 0 0
          0.04344889270058161 -0.00020099353115199392 0 -0.2845264820323101 0 0
          0.12053244848808653 0.0015923203071643854 0 -0.5207279798521425 0 0
          -0.009966995843879722 -0.002480357693901425 0 -0.04446101946392611 0 0
          0.04578237754149228 -0.00005491894738973713 0 -0.2866227608328553 0 0
          0.11877043844732427 0.0017821485112090585 0 -0.5222019492855945 0 0
          -0.01072264896184727 -0.002286112330329715 0 -0.04285232902734304 0 0
          0.04684900193385744 -0.0007156166410560161 0 -0.28883704715393366 0 0
          0.11869914539897053 0.004814289368937352 0 -0.5214347377121564 0 0
          -0.011249958999148824 -0.0058336805711656226 0 -0.04308976308448065 0 0
          0.04793903405442279 -0.0007140780666770041 0 -0.28654225690377677 0 0
          0.11123517372979563 0.006805308471857785 0 -0.5254662230841922 0 0
          -0.00304329284772642 -0.008379563295912718 0 -0.050749643762282304 0 0
          0.05492986992683413 0.0014250819160288586 0 -0.31065964171639315 0 0
          0.12809767185784082 -0.002172868556638008 0 -0.5282974301842325 0 0
          -0.024326921406303548 0.006612132234629087 0 -0.053761259009244 0 0
          0.05517750063410709 -0.0025658523146177004 0 -0.30765518087261245 0 0
          -0.04307372904566176 0.020359435129124748 0 -0.049136457647924736 0 0
          0.1341081811985223 -0.015513300867464608 0 -0.5122616283997905 0 0
          0.04619070281686177 0.0036832415135634733 0 -0.27433236331897426 0 0
          -0.025208580063385 -0.003296262490848356 0 -0.035196385511970796 0 0
          0.03137617468640386 -0.002094435721300414 0 -0.25832622951060813 0 0
          0.10871918220245469 0.00333588215806202 0 -0.5200826567022809 0 0
          0.010221843060653768 -0.005974897156146852 0 -0.05691977419763905 0 0
          0.03276064293822323 0.00037724928292348636 0 -0.31357380462737616 0 0
          0.13223263194661605 -0.02420559944116274 0 -0.5313444570333448 0 0
          -0.010125515466308244 0.003226361313224402 0 -0.05372865198038923 0 0
          0.012801687823582597 0.02159545405433505 0 -0.29325518669448547 0 0
          0.004404902760102303 -0.09057717645943875 0 0.027666471128284797 0 0
          0.3212867224524629 -0.20858665296386025 0 0.04763628870044223 0 0
          -0.06664605850814631 -0.09479998513683974 0 -0.11816530919550594 0 0
          0.12726865246293073 0.10456935801927969 0 -0.579487445766691 0 0
          <InformationKey name="L2_NORM_RANGE" location="vtkDataArray" length="2">
            <Value index="0">
              0.043418007881
            </Value>
            <Value index="1">
              0.60244315942
            </Value>
          </InformationKey>
        </DataArray>
      </PointData>
      <CellData>
        <DataArray type="UInt8" Name="vtkGhostType" format="ascii" RangeMin="0" RangeMax="0">
          0 0 0 0 0 0
          0 0 0 0 0 0
          0 0 0 0 0 0
          0 0 0 0 0 0
          0 0 0 0 0 0
          0 0 0 0 0 0
          0 0 0 0 0 0
          0 0 0 0 0 0
          0 0 0 0 0 0
          0 0 0 0 0 0
          0 0 0 0 0 0
          0 0 0 0 0 0
        </DataArray>
      </CellData>
      <Points>
        <DataArray type="Float32" Name="Points" NumberOfComponents="3" format="ascii" RangeMin="2.730867624282837" RangeMax="20.09975124224178">
          20 2 0 19 2 0
          20 1 0 18.572433471679688 1.0223290920257568 0
          20 0 0 18 2 0
          18.978199005126953 0 0 17.5 1.133974552154541 0
          17.95639991760254 0 0 17 2 0
          16.5 1.133974552154541 0 16.934598922729492 0 0
          16 2 0 15.912799835205078 0 0
          15.5 1.133974552154541 0 15 2 0
          14.890999794006348 0 0 14.5 1.133974552154541 0
          14 2 0 13.869199752807617 0 0
          13.5 1.133974552154541 0 13 2 0
          12.84739875793457 0 0 12.315021514892578 0.8696439862251282 0
          12 2 0 11.82559871673584 0 0
          11.317283630371094 0.8513965606689453 0 11 2 0
          10.80379867553711 0 0 10.323029518127441 0.850311279296875 0
          10 2 0 9.802289009094238 0 0
          9.326057434082031 0.8660253882408142 0 9 2 0
          8.849825859069824 0 0 8.396916389465332 0.8660253882408142 0
          8 2 0 7.944006443023682 0 0
          7.507600784301758 0.9674035906791687 0 7 2 0
          7.082547187805176 0 0 6.622133731842041 0.9383963346481323 0
          6.263276100158691 0 0 6 2 0
          5.873701572418213 0.7742907404899597 0 5.484126567840576 0 0
          5.104737758636475 0.7423688769340515 0 5 2 0
          4.743134498596191 0 0 4.422727108001709 0.9375537633895874 0
          4 2 0 4.038430690765381 0 0
          3.641167402267456 0.8889509439468384 0 3.3682384490966797 0 0
          2.730867624282837 0 0 3.0495529174804688 0.6333962678909302 0
          3 2 0
          <InformationKey name="L2_NORM_RANGE" location="vtkDataArray" length="2">
            <Value index="0">
              2.7308676243
            </Value>
            <Value index="1">
              20.099751242
            </Value>
          </InformationKey>
        </DataArray>
      </Points>
      <Cells>
        <DataArray type="Int64" Name="connectivity" format="ascii" RangeMin="0" RangeMax="56">
          54 53 55 53 51 52
          51 48 49 55 53 52
          55 52 56 48 45 46
          52 51 49 52 49 50
          45 42 44 49 48 46
          49 46 47 42 40 41
          46 45 44 46 44 47
          40 37 38 44 42 41
          44 41 43 37 34 35
          41 40 38 41 38 39
          34 31 32 38 37 35
          38 35 36 35 34 32
          35 32 33 32 31 29
          29 31 28 29 28 26
          32 29 30 26 28 25
          29 26 27 26 25 23
          23 25 22 26 23 24
          0 1 2 24 27 26
          50 56 52 12 15 14
          14 15 17 12 14 10
          17 15 18 10 14 13
          12 10 9 17 18 20
          9 10 7 20 18 21
          7 10 11 9 7 5
          5 7 3 3 7 8
          5 3 1 1 3 2
          36 39 38 14 17 16
          30 33 32 43 47 44
          20 21 23 27 30 29
          4 2 6 39 43 41
          21 24 23 33 36 35
          47 50 49 17 20 19
          23 22 20 16 13 14
          22 19 20 11 8 7
          19 16 17 13 11 10
          8 6 3 3 6 2
        </DataArray>
        <DataArray type="Int64" Name="offsets" format="ascii" RangeMin="3" RangeMax="216">
          3 6 9 12 15 18
          21 24 27 30 33 36
          39 42 45 48 51 54
          57 60 63 66 69 72
          75 78 81 84 87 90
          93 96 99 102 105 108
          111 114 117 120 123 126
          129 132 135 138 141 144
          147 150 153 156 159 162
          165 168 171 174 177 180
          183 186 189 192 195 198
          201 204 207 210 213 216
        </DataArray>
        <DataArray type="UInt8" Name="types" format="ascii" RangeMin="5" RangeMax="5">
          5 5 5 5 5 5
          5 5 5 5 5 5
          5 5 5 5 5 5
          5 5 5 5 5 5
          5 5 5 5 5 5
          5 5 5 5 5 5
          5 5 5 5 5 5
          5 5 5 5 5 5
          5 5 5 5 5 5
          5 5 5 5 5 5
          5 5 5 5 5 5
          5 5 5 5 5 5
        </DataArray>
      </Cells>
    </Piece>
  </UnstructuredGrid>
</VTKFile>
