<?xml version="1.0"?>
<VTKFile type="UnstructuredGrid" version="0.1" byte_order="LittleEndian" header_type="UInt32" compressor="vtkZLibDataCompressor">
  <UnstructuredGrid>
    <Piece NumberOfPoints="13" NumberOfCells="14">
      <PointData>
        <DataArray type="Float64" Name="Disp" NumberOfComponents="3" format="ascii" RangeMin="0" RangeMax="2.0089016350342397">
          0.6094956037013514 -0.19416268062954808 0 1.3804671728471596 -0.020947574913013994 0
          0.15476463620058362 -0.09219824406887961 0 0.3805502332421349 -0.03219899774158934 0
          0 0 0 0.6165312757627999 0.07090283837582362 0
          0.06723822913682047 -0.0024469531809607863 0 0.1651189328555391 0.07488831460708224 0
          0 0 0 0.9918242069148212 -0.11508270108755886 0
          1.6790059290252468 -0.2180827438861741 0 2.00575083316592 -0.11246943805967585 0
          1.3671682194729895 -0.32169002396510465 0
          <InformationKey name="L2_NORM_RANGE" location="vtkDataArray" length="2">
            <Value index="0">
              0
            </Value>
            <Value index="1">
              2.008901635
            </Value>
          </InformationKey>
        </DataArray>
        <DataArray type="Float64" Name="Sld_traction" NumberOfComponents="3" format="ascii" RangeMin="0" RangeMax="171.5168531944165">
          68.34638471592505 25.646569102541505 0 19.821121681202538 -31.504204481046514 0
          146.42157827512554 40.6101680901424 0 0 0 0
          -46.3524633637862 47.822133561948036 0 54.311084557787744 -56.22831284500035 0
          0 0 0 152.53659764459013 -78.42587142472469 0
          -5.64575839632615 -40.20069594055356 0 0 0 0
          0 0 0 4.329446196921274 -9.9238098545643 0
          22.5713237492662 17.76661680175335 0
          <InformationKey name="L2_NORM_RANGE" location="vtkDataArray" length="2">
            <Value index="0">
              0
            </Value>
            <Value index="1">
              171.51685319
            </Value>
          </InformationKey>
        </DataArray>
        <DataArray type="Float64" Name="Fld_traction" NumberOfComponents="3" format="ascii" RangeMin="0" RangeMax="5.864304866415171">
          3.0208003741943505 -0.7767634444903966 0 4.2831847078071394 -1.1341112968219438 0
          3.0872077727190685 -0.5201250731316814 0 0 0 0
          1.5082739858805583 1.4815313614676175 0 5.37644024438786 -1.315909446119442 0
          0 0 0 5.7890511072193265 -0.936460807649391 0
          2.9526698811772687 -3.250314807256607 0 0 0 0
          0 0 0 2.6340436263380056 -0.5572705208982317 0
          3.0047577271846997 -0.8865018201464024 0
          <InformationKey name="L2_NORM_RANGE" location="vtkDataArray" length="2">
            <Value index="0">
              0
            </Value>
            <Value index="1">
              5.8643048664
            </Value>
          </InformationKey>
        </DataArray>
        <DataArray type="Float64" Name="Velocity" NumberOfComponents="3" format="ascii" RangeMin="0" RangeMax="0.010171671783752417">
          0.0025230415070384704 0.003719897275912168 0 -0.004165581701925936 0.003989015815382184 0
          0.0034650988507941016 0.00022860576569459085 0 0.0030378791172024078 0.001654784227417605 0
          0 0 0 0.001041950865423913 0.001975745980804855 0
          0.0017982666825198355 0.00040349058198626024 0 0.002986441811677551 0.0009637004000449291 0
          0 0 0 -0.0006202677874692641 0.004056085863802905 0
          -0.005943157054880244 0.005573793286058393 0 -0.009324213385115243 0.004064720362487784 0
          -0.003180549411527789 0.00644185485198227 0
          <InformationKey name="L2_NORM_RANGE" location="vtkDataArray" length="2">
            <Value index="0">
              0
            </Value>
            <Value index="1">
              0.010171671784
            </Value>
          </InformationKey>
        </DataArray>
      </PointData>
      <CellData>
        <DataArray type="UInt8" Name="vtkGhostType" format="ascii" RangeMin="0" RangeMax="1">
          0 0 1 1 1 1
          1 1 0 0 0 0
          0 0
        </DataArray>
        <DataArray type="Float64" Name="Gauss Stress" NumberOfComponents="6" format="ascii" RangeMin="28.492337223476245" RangeMax="607.5967364849944">
          112.9966533097872 -269.9464465094342 0 -33.01642888725853 0 0
          -42.576103463994464 56.91489097019219 0 -149.82209614155948 0 0
          35.50879823139228 -55.73179772058815 0 106.86065643897076 0 0
          -1.3272145060972282 17.451328251395957 0 22.48339219008387 0 0
          14.365511777539343 -15.508268624016647 0 30.6705202204282 0 0
          -15.219707623723945 28.138724107824764 0 -45.85370645954916 0 0
          32.546896148316364 -79.70854841137405 0 0.40615409948291414 0 0
          -12.395156704995296 48.96062136854745 0 59.679049808868044 0 0
          27.416553790822356 -35.699456497649535 0 407.92420786185846 0 0
          184.03920486579247 -579.0521561478394 0 -1.402041411949225 0 0
          -216.1746630798375 529.9600278237891 0 135.82234835156012 0 0
          -66.95580513119967 61.43034349143099 0 -266.0939423440099 0 0
          85.99190186502477 -95.45756555808029 0 248.1794635032336 0 0
          -61.67264951089412 219.78036002628636 0 125.63962741897043 0 0
          <InformationKey name="L2_NORM_RANGE" location="vtkDataArray" length="2">
            <Value index="0">
              28.492337223
            </Value>
            <Value index="1">
              607.59673648
            </Value>
          </InformationKey>
        </DataArray>
        <DataArray type="Float64" Name="Gauss Strain" NumberOfComponents="6" format="ascii" RangeMin="0.0047513697170420265" RangeMax="0.08207640100462928">
          0.013125477690330565 -0.025619989048517363 0 -0.00668108106865334 0 0
          -0.004886307295971282 0.005056638578736727 0 -0.029945886082307686 0 0
          0.0036159824810986785 -0.005523469451913177 0 0.021408186188702032 0 0
          -0.00037208789442222384 0.001503712637743737 0 0.004491760577984788 0 0
          0.001433142568429191 -0.0015546780149575667 0 0.006135012735984414 0 0
          -0.0017487170142501673 0.0025834998384964836 0 -0.00916307126211932 0 0
          0.0038944868403559263 -0.00736992331437647 0 0.00008151206171864184 0 0
          -0.0018307626651495874 0.004289483558176265 0 0.011905984755554875 0 0
          0 -0.006330713035431089 0 0.08183188666000395 0 0
          0.02272736799711661 -0.05588754030471109 0 -0.0002888811554342427 0 0
          -0.0279838074936396 0.04512427290530652 0 0.026616403939706608 0 0
          -0.007910943063053063 0.004947109825771956 0 -0.05329936322199379 0 0
          0.007552789676077197 -0.010623413634919365 0 0.049721395717631206 0 0
          -0.008872075084933595 0.018970577209716843 0 0.024857722903074617 0 0
          <InformationKey name="L2_NORM_RANGE" location="vtkDataArray" length="2">
            <Value index="0">
              0.004751369717
            </Value>
            <Value index="1">
              0.082076401005
            </Value>
          </InformationKey>
        </DataArray>
        <DataArray type="Float64" Name="Btraction" NumberOfComponents="3" format="ascii" RangeMin="0" RangeMax="3.796802293200563">
          2.0360027156378058 -0.43229617254069264 0 0 0 0
          0 0 0 2.3057427780483812 -0.5637939392400584 0
          0 0 0 0 0 0
          2.0085193671263504 -0.554421754878933 0 3.219874984064999 -0.8166735809804617 0
          0 0 0 1.5318272528665418 0.3204687627786453 0
          2.913906996132198 -1.3955918716353322 0 0 0 0
          0 0 0 3.7218304505357276 -0.7507900845896109 0
          <InformationKey name="L2_NORM_RANGE" location="vtkDataArray" length="2">
            <Value index="0">
              0
            </Value>
            <Value index="1">
              3.7968022932
            </Value>
          </InformationKey>
        </DataArray>
      </CellData>
      <Points>
        <DataArray type="Float32" Name="Points" NumberOfComponents="3" format="ascii" RangeMin="10" RangeMax="13.021927811442218">
          11 3.7184319496154785 0 10 6.2815680503845215 0
          11 1.6591010093688965 0 10.5 2.6568450927734375 0
          11 0 0 10 3.61250901222229 0
          10.5 0.8241099119186401 0 10 1.6373380422592163 0
          10 0 0 10.5 5 0
          10.5 7.3431549072265625 0 10 8.340899467468262 0
          11 6.387491226196289 0
          <InformationKey name="L2_NORM_RANGE" location="vtkDataArray" length="2">
            <Value index="0">
              10
            </Value>
            <Value index="1">
              13.021927811
            </Value>
          </InformationKey>
        </DataArray>
      </Points>
      <Cells>
        <DataArray type="Int64" Name="connectivity" format="ascii" RangeMin="0" RangeMax="12">
          3 2 0 5 3 0
          5 0 9 10 11 1
          12 10 1 12 1 9
          9 0 12 5 9 1
          8 4 6 6 4 2
          8 6 7 6 2 7
          7 2 3 7 3 5
        </DataArray>
        <DataArray type="Int64" Name="offsets" format="ascii" RangeMin="3" RangeMax="42">
          3 6 9 12 15 18
          21 24 27 30 33 36
          39 42
        </DataArray>
        <DataArray type="UInt8" Name="types" format="ascii" RangeMin="5" RangeMax="5">
          5 5 5 5 5 5
          5 5 5 5 5 5
          5 5
        </DataArray>
      </Cells>
    </Piece>
  </UnstructuredGrid>
</VTKFile>
