<?xml version="1.0"?>
<VTKFile type="UnstructuredGrid" version="0.1" byte_order="LittleEndian" header_type="UInt32" compressor="vtkZLibDataCompressor">
  <UnstructuredGrid>
    <Piece NumberOfPoints="13" NumberOfCells="14">
      <PointData>
        <DataArray type="Float64" Name="Disp" NumberOfComponents="3" format="ascii" RangeMin="0" RangeMax="1.964972975348994">
          0.5965973284532627 -0.18844165598153778 0 1.3492240556030284 -0.016866595738489115 0
          0.15169827915630715 -0.09002621418184097 0 0.3723524871500939 -0.030781463112841995 0
          0 0 0 0.6026832441663414 0.07054033399618016 0
          0.06585697370038245 -0.002342926383663157 0 0.16155930752533454 0.07342318977714211 0
          0 0 0 0.9698522033421993 -0.1100896946820808 0
          1.64229190165415 -0.20907743099908888 0 1.962184468318404 -0.10464657730618981 0
          1.3372026415494953 -0.31112981071979307 0
          <InformationKey name="L2_NORM_RANGE" location="vtkDataArray" length="2">
            <Value index="0">
              0
            </Value>
            <Value index="1">
              1.9649729753
            </Value>
          </InformationKey>
        </DataArray>
        <DataArray type="Float64" Name="Sld_traction" NumberOfComponents="3" format="ascii" RangeMin="0" RangeMax="167.33404595183015">
          66.53188504921513 24.802797608777464 0 20.407982906116906 -30.705166563096615 0
          143.09277135337183 40.411231910025265 0 0 0 0
          -45.057212908401524 46.95122213040869 0 53.38267540441859 -54.36072963336029 0
          0 0 0 148.8140879266407 -76.51829957056844 0
          -6.187588580405994 -39.631276197061545 0 0 0 0
          0 0 0 5.20243530093846 -10.39385651610458 0
          22.354227259060252 16.901622429715452 0
          <InformationKey name="L2_NORM_RANGE" location="vtkDataArray" length="2">
            <Value index="0">
              0
            </Value>
            <Value index="1">
              167.33404595
            </Value>
          </InformationKey>
        </DataArray>
        <DataArray type="Float64" Name="Fld_traction" NumberOfComponents="3" format="ascii" RangeMin="0" RangeMax="5.899109313767925">
          2.7506426022824217 -0.6897618338494832 0 4.372029283033462 -1.1325932432090398 0
          2.817853162267425 -0.46340416363324716 0 0 0 0
          1.3779010823809867 1.355628133299051 0 5.425633963020765 -1.2963449194749426 0
          0 0 0 5.826678961969905 -0.9215763505650433 0
          2.968847300665026 -3.2667200897610607 0 0 0 0
          0 0 0 2.7741863387338177 -0.5876904601903311 0
          2.713076325913873 -0.7801379236419582 0
          <InformationKey name="L2_NORM_RANGE" location="vtkDataArray" length="2">
            <Value index="0">
              0
            </Value>
            <Value index="1">
              5.8991093138
            </Value>
          </InformationKey>
        </DataArray>
        <DataArray type="Float64" Name="Velocity" NumberOfComponents="3" format="ascii" RangeMin="0" RangeMax="0.009812048284323967">
          0.007811134202928838 0.0009347897402313537 0 -0.008300622486287823 -0.0015064318617803926 0
          0.004703403317783295 -0.0011711697834221393 0 0.006910652064081174 -0.0003395627774188392 0
          0 0 0 0.008635001819820354 -0.002201836934851459 0
          0.002258437627463337 0.00011597979947225402 0 0.00591289580826683 0.0015417894183592205 0
          0 0 0 -0.00006577247856431878 0.00006608444331812624 0
          -0.009781445398848065 -0.0007743496905526226 0 -0.009512055095164396 -0.00042715439882994727 0
          -0.007781622588271642 0.0024317950355637434 0
          <InformationKey name="L2_NORM_RANGE" location="vtkDataArray" length="2">
            <Value index="0">
              0
            </Value>
            <Value index="1">
              0.0098120482843
            </Value>
          </InformationKey>
        </DataArray>
      </PointData>
      <CellData>
        <DataArray type="UInt8" Name="vtkGhostType" format="ascii" RangeMin="0" RangeMax="1">
          0 0 1 1 1 1
          1 1 0 0 0 0
          0 0
        </DataArray>
        <DataArray type="Float64" Name="Gauss Stress" NumberOfComponents="6" format="ascii" RangeMin="28.209063226494905" RangeMax="594.2065413282843">
          110.37429974631195 -263.5142887217681 0 -30.119703798435538 0 0
          -39.843340799888416 53.61331993830895 0 -146.4176243920783 0 0
          32.99905752333919 -54.44659655321314 0 104.66820764604509 0 0
          -2.823266678892453 16.728980428261117 0 22.537116656908424 0 0
          14.097778237711626 -18.48140419013063 0 31.5756700851531 0 0
          -14.989473837268878 26.162437503479772 0 -47.144137166471374 0 0
          31.405151216947175 -79.50431385382267 0 -0.5536885902130051 0 0
          -13.517917916058945 48.131571785632374 0 57.198338855333034 0 0
          26.30976424492922 -34.17888418635341 0 399.54433919194855 0 0
          180.71021744764346 -566.0608542752344 0 0.5833734132024663 0 0
          -211.2533796711955 518.9931227079715 0 131.9644380247088 0 0
          -64.08729589591647 58.52945224087658 0 -260.06206053960113 0 0
          81.4929513374551 -91.00292871994634 0 242.9487108227384 0 0
          -60.96771937587708 215.35495599046328 0 121.28984884946948 0 0
          <InformationKey name="L2_NORM_RANGE" location="vtkDataArray" length="2">
            <Value index="0">
              28.209063226
            </Value>
            <Value index="1">
              594.20654133
            </Value>
          </InformationKey>
        </DataArray>
        <DataArray type="Float64" Name="Gauss Strain" NumberOfComponents="6" format="ascii" RangeMin="0.004760242898027721" RangeMax="0.08036996851555916">
          0.012830236219347535 -0.024987960923040897 0 -0.006093113998406117 0 0
          -0.004582941393725726 0.004757150668303178 0 -0.029266059380327024 0 0
          0.0033933959778651985 -0.0053666070659301734 0 0.020970597732971084 0 0
          -0.0004903120230106417 0.0014630845461911512 0 0.004503208875791928 0 0
          0.0014513749579698199 -0.0018077847006096048 0 0.00631754037180478 0 0
          -0.0017023799294426656 0.0024098871552121204 0 -0.009422127779137162 0 0
          0.0037951535771221234 -0.007334922802064048 0 -0.00011112841082449348 0 0
          -0.0019107856488472796 0.004239593769070238 0 0.011412632537176021 0 0
          5.5511151231257815e-17 -0.0060664132251888585 0 0.08014069172257765 0 0
          0.022308026075197274 -0.05456792192463876 0 0.00012011012712201643 0 0
          -0.027318582256501737 0.044257239913702784 0 0.0258692458452698 0 0
          -0.007562291436522648 0.004717357973262837 0 -0.05208865798088231 0 0
          0.007159994240483967 -0.010118535670392004 0 0.04867126757302901 0 0
          -0.008724512303815879 0.018617281644036143 0 0.024002967189078336 0 0
          <InformationKey name="L2_NORM_RANGE" location="vtkDataArray" length="2">
            <Value index="0">
              0.004760242898
            </Value>
            <Value index="1">
              0.080369968516
            </Value>
          </InformationKey>
        </DataArray>
        <DataArray type="Float64" Name="Btraction" NumberOfComponents="3" format="ascii" RangeMin="0" RangeMax="3.822938383001103">
          1.8561652548499485 -0.3843886658275767 0 0 0 0
          0 0 0 2.382071873922426 -0.5734279011331235 0
          0 0 0 0 0 0
          1.8212396427320978 -0.4899665858304804 0 3.265887748684742 -0.8096460542279938 0
          0 0 0 1.398584748216137 0.2974079898886012 0
          2.931842087544976 -1.3960988134420345 0 0 0 0
          0 0 0 3.750770974996889 -0.7393070900133285 0
          <InformationKey name="L2_NORM_RANGE" location="vtkDataArray" length="2">
            <Value index="0">
              0
            </Value>
            <Value index="1">
              3.822938383
            </Value>
          </InformationKey>
        </DataArray>
      </CellData>
      <Points>
        <DataArray type="Float32" Name="Points" NumberOfComponents="3" format="ascii" RangeMin="10" RangeMax="13.021927811442218">
          11 3.7184319496154785 0 10 6.2815680503845215 0
          11 1.6591010093688965 0 10.5 2.6568450927734375 0
          11 0 0 10 3.61250901222229 0
          10.5 0.8241099119186401 0 10 1.6373380422592163 0
          10 0 0 10.5 5 0
          10.5 7.3431549072265625 0 10 8.340899467468262 0
          11 6.387491226196289 0
          <InformationKey name="L2_NORM_RANGE" location="vtkDataArray" length="2">
            <Value index="0">
              10
            </Value>
            <Value index="1">
              13.021927811
            </Value>
          </InformationKey>
        </DataArray>
      </Points>
      <Cells>
        <DataArray type="Int64" Name="connectivity" format="ascii" RangeMin="0" RangeMax="12">
          3 2 0 5 3 0
          5 0 9 10 11 1
          12 10 1 12 1 9
          9 0 12 5 9 1
          8 4 6 6 4 2
          8 6 7 6 2 7
          7 2 3 7 3 5
        </DataArray>
        <DataArray type="Int64" Name="offsets" format="ascii" RangeMin="3" RangeMax="42">
          3 6 9 12 15 18
          21 24 27 30 33 36
          39 42
        </DataArray>
        <DataArray type="UInt8" Name="types" format="ascii" RangeMin="5" RangeMax="5">
          5 5 5 5 5 5
          5 5 5 5 5 5
          5 5
        </DataArray>
      </Cells>
    </Piece>
  </UnstructuredGrid>
</VTKFile>
