<?xml version="1.0"?>
<VTKFile type="UnstructuredGrid" version="0.1" byte_order="LittleEndian" header_type="UInt32" compressor="vtkZLibDataCompressor">
  <UnstructuredGrid>
    <Piece NumberOfPoints="13" NumberOfCells="14">
      <PointData>
        <DataArray type="Float64" Name="Disp" NumberOfComponents="3" format="ascii" RangeMin="0" RangeMax="2.04620385809118">
          0.6187877863928721 -0.19629644366597582 0 1.4045135386902703 -0.021048009502908166 0
          0.15694020750009413 -0.09274680503643774 0 0.38651420472490317 -0.031716983681840394 0
          0 0 0 0.6266252960886626 0.0731749499879164 0
          0.0682706466633435 -0.0020584940858241526 0 0.1677922682022529 0.0768432517926128 0
          0 0 0 1.0083476528491118 -0.11645760508235226 0
          1.7087690529801445 -0.22283943103264758 0 2.042923721818415 -0.11581405656838387 0
          1.3900029368709688 -0.3275759072304357 0
          <InformationKey name="L2_NORM_RANGE" location="vtkDataArray" length="2">
            <Value index="0">
              0
            </Value>
            <Value index="1">
              2.0462038581
            </Value>
          </InformationKey>
        </DataArray>
        <DataArray type="Float64" Name="Sld_traction" NumberOfComponents="3" format="ascii" RangeMin="0" RangeMax="174.21553232696206">
          69.5337333274996 25.09062722831139 0 20.788628658678498 -32.70323518467612 0
          148.32900193893926 40.333101114087704 0 0 0 0
          -47.40296004024331 45.77137306195274 0 55.657172422263045 -57.267834292448796 0
          0 0 0 154.97826247511452 -79.57882798936708 0
          -5.736707102242239 -43.133065939573584 0 0 0 0
          0 0 0 4.804218557660067 -11.023568502039511 0
          23.40696235425677 17.64621887539355 0
          <InformationKey name="L2_NORM_RANGE" location="vtkDataArray" length="2">
            <Value index="0">
              0
            </Value>
            <Value index="1">
              174.21553233
            </Value>
          </InformationKey>
        </DataArray>
        <DataArray type="Float64" Name="Fld_traction" NumberOfComponents="3" format="ascii" RangeMin="0" RangeMax="5.8609445969229315">
          2.47727438563059 -0.6453545384725025 0 4.1838032319135605 -1.1316504666010683 0
          2.486672517629414 -0.42456010021314505 0 0 0 0
          1.2117296549402763 1.1945425952573119 0 5.32235327828319 -1.3264134058599655 0
          0 0 0 5.783389242189566 -0.9503054464360967 0
          2.961568068800989 -3.2657058575128857 0 0 0 0
          0 0 0 2.545529835632263 -0.551889613398633 0
          2.5713637841875476 -0.7693528457633134 0
          <InformationKey name="L2_NORM_RANGE" location="vtkDataArray" length="2">
            <Value index="0">
              0
            </Value>
            <Value index="1">
              5.8609445969
            </Value>
          </InformationKey>
        </DataArray>
        <DataArray type="Float64" Name="Velocity" NumberOfComponents="3" format="ascii" RangeMin="0" RangeMax="0.022894351494965822">
          0.005599194801898688 0.014311313405931461 0 -0.009784033470071618 0.018000511309647124 0
          0.00758091876839545 0.0036924869836638743 0 0.006971207089503245 0.007933234943075268 0
          0 0 0 0.003806576183111088 0.009127576762210377 0
          0.003961088359698075 0.002338893594983377 0 0.007580511655929753 0.005090928191608144 0
          0 0 0 -0.0020643073905447507 0.015961831440605145 0
          -0.008269245771961531 0.019343383064903186 0 -0.006322245110220948 0.01997958108664666 0
          -0.008673829574416647 0.021187638162122244 0
          <InformationKey name="L2_NORM_RANGE" location="vtkDataArray" length="2">
            <Value index="0">
              0
            </Value>
            <Value index="1">
              0.022894351495
            </Value>
          </InformationKey>
        </DataArray>
      </PointData>
      <CellData>
        <DataArray type="UInt8" Name="vtkGhostType" format="ascii" RangeMin="0" RangeMax="1">
          0 0 1 1 1 1
          1 1 0 0 0 0
          0 0
        </DataArray>
        <DataArray type="Float64" Name="Gauss Stress" NumberOfComponents="6" format="ascii" RangeMin="32.88184862335765" RangeMax="610.2378737813997">
          114.26634190431886 -268.95794101009506 0 -34.50024066584753 0 0
          -44.64736688933871 65.30184213166757 0 -151.82429554637676 0 0
          37.71959982683711 -54.32378104396293 0 110.96372523874837 0 0
          -1.23237064240915 20.99205050019624 0 25.27906341790269 0 0
          15.898053114977795 -15.181708092645838 0 33.95112513268699 0 0
          -16.38601758776101 34.11400445120144 0 -47.17277991395416 0 0
          33.381941103307014 -78.23595086029292 0 -0.04262534146942042 0 0
          -12.207412466579013 54.6307378571581 0 62.82145448095288 0 0
          29.38373048545828 -30.022616015039667 0 414.18772947889306 0 0
          186.30712127593455 -581.0982869973147 0 -2.1679501618280863 0 0
          -218.87973966459464 544.1877756646165 0 139.28366494561888 0 0
          -69.46036746119645 70.26011457208106 0 -269.3320479256901 0 0
          88.77594525290172 -92.63953417750017 0 253.16915224413486 0 0
          -62.13869814284047 229.3047053435351 0 129.8060067858639 0 0
          <InformationKey name="L2_NORM_RANGE" location="vtkDataArray" length="2">
            <Value index="0">
              32.881848623
            </Value>
            <Value index="1">
              610.23787378
            </Value>
          </InformationKey>
        </DataArray>
        <DataArray type="Float64" Name="Gauss Strain" NumberOfComponents="6" format="ascii" RangeMin="0.005377282229300875" RangeMax="0.08326240532276699">
          0.01321445815644029 -0.025553380547358562 0 -0.006980245381133763 0 0
          -0.005200489182393797 0.005782850372123838 0 -0.030332874705678116 0 0
          0.003768329406348969 -0.005449280324550054 0 0.022224744546774353 0 0
          -0.00041690332742660974 0.0018025361442376986 0 0.005048982000151347 0 0
          0.0015557004876226572 -0.001552333516419146 0 0.006790351488414065 0 0
          -0.001937796086596499 0.003106268091306096 0 -0.009423462395817534 0 0
          0.003944539254043644 -0.007254050939180301 0 -0.000008553175885420663 0 0
          -0.001903017947807339 0.004761350024390598 0 0.01252773415128665 0 0
          5.5511151231257815e-17 -0.005955807604243634 0 0.08304912098218722 0 0
          0.022929062582675352 -0.05613087263242156 0 -0.0004466947912951318 0 0
          -0.028494877609735347 0.04621716151543637 0 0.027274563301059526 0 0
          -0.008292172628877492 0.0056952155399778714 0 -0.05392554972365682 0 0
          0.007705235565940825 -0.010460952568777548 0 0.050702602269819326 0 0
          -0.009075022642818564 0.01973804858079581 0 0.025666113379360887 0 0
          <InformationKey name="L2_NORM_RANGE" location="vtkDataArray" length="2">
            <Value index="0">
              0.0053772822293
            </Value>
            <Value index="1">
              0.083262405323
            </Value>
          </InformationKey>
        </DataArray>
        <DataArray type="Float64" Name="Btraction" NumberOfComponents="3" format="ascii" RangeMin="0" RangeMax="3.77890292226956">
          1.6546489677533343 -0.3566382128952158 0 0 0 0
          0 0 0 2.243111022515274 -0.561180026666567 0
          0 0 0 0 0 0
          1.6828793899393788 -0.4715691280786052 0 3.16871883673225 -0.8193546241536778 0
          0 0 0 1.2328007241898964 0.25666083168138887 0
          2.9149857703301842 -1.4053371013163272 0 0 0 0
          0 0 0 3.7019141734909176 -0.7589062840986873 0
          <InformationKey name="L2_NORM_RANGE" location="vtkDataArray" length="2">
            <Value index="0">
              0
            </Value>
            <Value index="1">
              3.7789029223
            </Value>
          </InformationKey>
        </DataArray>
      </CellData>
      <Points>
        <DataArray type="Float32" Name="Points" NumberOfComponents="3" format="ascii" RangeMin="10" RangeMax="13.021927811442218">
          11 3.7184319496154785 0 10 6.2815680503845215 0
          11 1.6591010093688965 0 10.5 2.6568450927734375 0
          11 0 0 10 3.61250901222229 0
          10.5 0.8241099119186401 0 10 1.6373380422592163 0
          10 0 0 10.5 5 0
          10.5 7.3431549072265625 0 10 8.340899467468262 0
          11 6.387491226196289 0
          <InformationKey name="L2_NORM_RANGE" location="vtkDataArray" length="2">
            <Value index="0">
              10
            </Value>
            <Value index="1">
              13.021927811
            </Value>
          </InformationKey>
        </DataArray>
      </Points>
      <Cells>
        <DataArray type="Int64" Name="connectivity" format="ascii" RangeMin="0" RangeMax="12">
          3 2 0 5 3 0
          5 0 9 10 11 1
          12 10 1 12 1 9
          9 0 12 5 9 1
          8 4 6 6 4 2
          8 6 7 6 2 7
          7 2 3 7 3 5
        </DataArray>
        <DataArray type="Int64" Name="offsets" format="ascii" RangeMin="3" RangeMax="42">
          3 6 9 12 15 18
          21 24 27 30 33 36
          39 42
        </DataArray>
        <DataArray type="UInt8" Name="types" format="ascii" RangeMin="5" RangeMax="5">
          5 5 5 5 5 5
          5 5 5 5 5 5
          5 5
        </DataArray>
      </Cells>
    </Piece>
  </UnstructuredGrid>
</VTKFile>
