<?xml version="1.0"?>
<VTKFile type="UnstructuredGrid" version="0.1" byte_order="LittleEndian" header_type="UInt32" compressor="vtkZLibDataCompressor">
  <UnstructuredGrid>
    <Piece NumberOfPoints="11" NumberOfCells="12">
      <PointData>
        <DataArray type="Float64" Name="Disp" NumberOfComponents="3" format="ascii" RangeMin="0.6117016386960571" RangeMax="2.4921135205766487">
          2.438252422970587 -0.48647647132058774 0 1.9414028935548866 -0.4090190357119236 0
          1.3494435001768752 -0.31389086058531923 0 2.211560525067273 -0.2959524600747497 0
          1.6580440578775917 -0.21089118132506723 0 2.4853941936347685 -0.1828811135342199 0
          1.981561917719957 -0.10558906082359498 0 0.9783853256876084 -0.11061718102969736 0
          0.6074629919976732 0.07188607748845696 0 0.6009674918242783 -0.18954556401799713 0
          1.3621026706509207 -0.01654125909028817 0
          <InformationKey name="L2_NORM_RANGE" location="vtkDataArray" length="2">
            <Value index="0">
              0.6117016387
            </Value>
            <Value index="1">
              2.4921135206
            </Value>
          </InformationKey>
        </DataArray>
        <DataArray type="Float64" Name="Sld_traction" NumberOfComponents="3" format="ascii" RangeMin="0" RangeMax="77.25016191608076">
          2.4880958359838172 2.004451405677134 0 7.985828396685734 6.490088935217392 0
          22.961647980962294 17.261321659014875 0 0 0 0
          0 0 0 0.1727617895398627 -0.7508441029056611 0
          4.806122007512851 -10.531836262188339 0 0 0 0
          54.211101263842814 -55.03402598231455 0 67.85831677820767 24.78857215192372 0
          20.448783111889476 -31.375738657422605 0
          <InformationKey name="L2_NORM_RANGE" location="vtkDataArray" length="2">
            <Value index="0">
              0
            </Value>
            <Value index="1">
              77.250161916
            </Value>
          </InformationKey>
        </DataArray>
        <DataArray type="Float64" Name="Fld_traction" NumberOfComponents="3" format="ascii" RangeMin="0" RangeMax="4.378341553610961">
          2.0653953793654978 0.38308749987998847 0 2.9875563397960594 -0.9041483660095451 0
          3.0649871508328945 -0.8939256103077139 0 0 0 0
          0 0 0 0.7470911418694086 0.6586599780040574 0
          2.618642483981854 -0.5460470815592966 0 0 0 0
          0 0 0 3.1447250022555826 -0.7980769411243364 0
          4.23648497642451 -1.1054726611752415 0
          <InformationKey name="L2_NORM_RANGE" location="vtkDataArray" length="2">
            <Value index="0">
              0
            </Value>
            <Value index="1">
              4.3783415536
            </Value>
          </InformationKey>
        </DataArray>
        <DataArray type="Float64" Name="Velocity" NumberOfComponents="3" format="ascii" RangeMin="0.01072541715345936" RangeMax="0.04376040067103834">
          -0.03763934808404934 0.0012525435478248914 0 -0.01520337060845467 -0.006781915932885574 0
          -0.002972027603391325 -0.013513035233145686 0 -0.027638127756876685 -0.009238231617307455 0
          -0.009137287630759827 -0.013784591297151982 0 -0.041636090087505906 -0.01346880355172296 0
          -0.017845164294222116 -0.017635411645761212 0 -0.0038324805480890456 -0.01233933292278866 0
          -0.005679295140716412 -0.009098361381059517 0 -0.004134637386765505 -0.010283266222189544 0
          -0.004027457179706095 -0.015306931523077667 0
          <InformationKey name="L2_NORM_RANGE" location="vtkDataArray" length="2">
            <Value index="0">
              0.010725417153
            </Value>
            <Value index="1">
              0.043760400671
            </Value>
          </InformationKey>
        </DataArray>
      </PointData>
      <CellData>
        <DataArray type="UInt8" Name="vtkGhostType" format="ascii" RangeMin="0" RangeMax="0">
          0 0 0 0 0 0
          0 0 0 0 0 0
        </DataArray>
        <DataArray type="Float64" Name="Gauss Stress" NumberOfComponents="6" format="ascii" RangeMin="2.927026896990198" RangeMax="124.6463105427723">
          1.3434888765563393 2.52698108581187 0 0.6139142336047554 0 0
          1.7419010369305659 4.733190019678637 0 4.410355147966457 0 0
          3.8768021124679324 -2.3928103067244897 0 0.9634963394816971 0 0
          4.3183141680706205 -0.11864709745213675 0 4.766860126318226 0 0
          -2.799203854947784 8.560008359749453 0 -6.5139659171600615 0 0
          34.81581451882509 -52.42919339176557 0 107.5906198123463 0 0
          -1.8286575691834135 20.246230185248734 0 23.948962927756632 0 0
          13.057122535283455 -28.02230602371312 0 2.2005996351121633 0 0
          14.882695729699066 -14.660078901118187 0 32.75913240312125 0 0
          -15.031908149809954 30.65931568439045 0 -46.508383062012555 0 0
          32.72386603798701 -77.32960804813034 0 0.4730440282419769 0 0
          -13.071852600771397 52.36269164384335 0 59.68811269516577 0 0
          <InformationKey name="L2_NORM_RANGE" location="vtkDataArray" length="2">
            <Value index="0">
              2.927026897
            </Value>
            <Value index="1">
              124.64631054
            </Value>
          </InformationKey>
        </DataArray>
        <DataArray type="Float64" Name="Gauss Strain" NumberOfComponents="6" format="ascii" RangeMin="0.00024552905991523675" RangeMax="0.022451563160799767">
          0.00007906981669186797 0.00019739221816089667 0 0.00012275502254773652 0 0
          0.00008140564010716833 0.0003804111788246467 0 0.0008817072670401745 0 0
          0.00036628186038678557 -0.00026064428394900746 0 0.00019268848050121707 0 0
          0.0003713208486136876 -0.0000722644663334604 0 0.0009531339238287113 0 0
          -0.00036327061697261076 0.0007722409837235266 0 -0.0013023233875152005 0 0
          0.0035086143932269165 -0.005228976262641072 0 0.021550408827856568 0 0
          -0.0004563453724366616 0.0017483705685747415 0 0.004783776110201583 0 0
          0.0015145461174735364 -0.002598017591397328 0 0.00044061499950610796 0 0
          0.0014630277048366391 -0.001491404636688176 0 0.006552169961119055 0 0
          -0.0017699813639230344 0.0027944426702852243 0 -0.009292111859849825 0 0
          0.0038763004310980453 -0.00716512359175292 0 0.00009491894264437399 0 0
          -0.001938369966149267 0.004587470964619478 0 0.011905489169461417 0 0
          <InformationKey name="L2_NORM_RANGE" location="vtkDataArray" length="2">
            <Value index="0">
              0.00024552905992
            </Value>
            <Value index="1">
              0.022451563161
            </Value>
          </InformationKey>
        </DataArray>
        <DataArray type="Float64" Name="Btraction" NumberOfComponents="3" format="ascii" RangeMin="0" RangeMax="2.350420528781542">
          0.9374955070783019 0.3472491592946818 0 1.1219112086170873 0.03753763214825359 0
          1.6843172397205186 -0.17368695537651882 0 0 0 0
          0 0 0 0 0 0
          2.2850424868021206 -0.5505065809115126 0 2.0175144968763172 -0.5993579921057529 0
          0 0 0 0 0 0
          2.069904051029492 -0.5640008504773499 0 0 0 0
          <InformationKey name="L2_NORM_RANGE" location="vtkDataArray" length="2">
            <Value index="0">
              0
            </Value>
            <Value index="1">
              2.3504205288
            </Value>
          </InformationKey>
        </DataArray>
      </CellData>
      <Points>
        <DataArray type="Float32" Name="Points" NumberOfComponents="3" format="ascii" RangeMin="10.632507764558053" RangeMax="14.866068747318506">
          11 10 0 11 8.362662315368652 0
          11 6.387491226196289 0 10.5 9.17588996887207 0
          10.5 7.3431549072265625 0 10 10 0
          10 8.340899467468262 0 10.5 5 0
          10 3.61250901222229 0 11 3.7184319496154785 0
          10 6.2815680503845215 0
          <InformationKey name="L2_NORM_RANGE" location="vtkDataArray" length="2">
            <Value index="0">
              10.632507765
            </Value>
            <Value index="1">
              14.866068747
            </Value>
          </InformationKey>
        </DataArray>
      </Points>
      <Cells>
        <DataArray type="Int64" Name="connectivity" format="ascii" RangeMin="0" RangeMax="10">
          0 5 3 3 5 6
          0 3 1 3 6 1
          1 6 4 8 9 7
          4 6 10 1 4 2
          2 4 10 2 10 7
          7 9 2 8 7 10
        </DataArray>
        <DataArray type="Int64" Name="offsets" format="ascii" RangeMin="3" RangeMax="36">
          3 6 9 12 15 18
          21 24 27 30 33 36
        </DataArray>
        <DataArray type="UInt8" Name="types" format="ascii" RangeMin="5" RangeMax="5">
          5 5 5 5 5 5
          5 5 5 5 5 5
        </DataArray>
      </Cells>
    </Piece>
  </UnstructuredGrid>
</VTKFile>
