<?xml version="1.0"?>
<VTKFile type="UnstructuredGrid" version="0.1" byte_order="LittleEndian" header_type="UInt32" compressor="vtkZLibDataCompressor">
  <UnstructuredGrid>
    <Piece NumberOfPoints="11" NumberOfCells="12">
      <PointData>
        <DataArray type="Float64" Name="Disp" NumberOfComponents="3" format="ascii" RangeMin="0.6308833767059789" RangeMax="2.56972720096944">
          2.511950465144467 -0.5108532805828465 0 1.9999870746363615 -0.4285025976031458 0
          1.3900029368709688 -0.3275759072304357 0 2.2791487583658445 -0.313256849508467 0
          1.7087690529801445 -0.22283943103264758 0 2.5620852086083556 -0.1980335103776913 0
          2.042923721818415 -0.11581405656838387 0 1.0083476528491118 -0.11645760508235226 0
          0.6266252960886626 0.0731749499879164 0 0.6187877863928721 -0.19629644366597582 0
          1.4045135386902703 -0.021048009502908166 0
          <InformationKey name="L2_NORM_RANGE" location="vtkDataArray" length="2">
            <Value index="0">
              0.63088337671
            </Value>
            <Value index="1">
              2.569727201
            </Value>
          </InformationKey>
        </DataArray>
        <DataArray type="Float64" Name="Sld_traction" NumberOfComponents="3" format="ascii" RangeMin="0" RangeMax="79.85815979966539">
          2.432847631047844 2.067240178903089 0 7.995319977471795 6.70103673380403 0
          23.40696235425677 17.64621887539355 0 0 0 0
          0 0 0 0.14230533831258738 -0.8198541950041998 0
          4.804218557660067 -11.023568502039511 0 0 0 0
          55.657172422263045 -57.267834292448796 0 69.5337333274996 25.09062722831139 0
          20.788628658678498 -32.70323518467612 0
          <InformationKey name="L2_NORM_RANGE" location="vtkDataArray" length="2">
            <Value index="0">
              0
            </Value>
            <Value index="1">
              79.8581598
            </Value>
          </InformationKey>
        </DataArray>
        <DataArray type="Float64" Name="Fld_traction" NumberOfComponents="3" format="ascii" RangeMin="0" RangeMax="4.334148389468082">
          1.9616934730788789 0.37113761199177997 0 2.6710039488295405 -0.8332294332955403 0
          2.5713637841875476 -0.7693528457633134 0 0 0 0
          0 0 0 0.724404020310598 0.6495699951366031 0
          2.545529835632263 -0.551889613398633 0 0 0 0
          0 0 0 2.47727438563059 -0.6453545384725025 0
          4.1838032319135605 -1.1316504666010683 0
          <InformationKey name="L2_NORM_RANGE" location="vtkDataArray" length="2">
            <Value index="0">
              0
            </Value>
            <Value index="1">
              4.3341483895
            </Value>
          </InformationKey>
        </DataArray>
        <DataArray type="Float64" Name="Velocity" NumberOfComponents="3" format="ascii" RangeMin="0.009889523739183372" RangeMax="0.022894351494965822">
          0.0006152071178486818 0.011046302400229191 0 -0.007638711876544413 0.016590642409183287 0
          -0.008673829574416647 0.021187638162122244 0 -0.0024890865946680663 0.016060660463852752 0
          -0.008269245771961531 0.019343383064903186 0 0.0031787014107731437 0.01654084821699582 0
          -0.006322245110220948 0.01997958108664666 0 -0.0020643073905447507 0.015961831440605145 0
          0.003806576183111088 0.009127576762210377 0 0.005599194801898688 0.014311313405931461 0
          -0.009784033470071618 0.018000511309647124 0
          <InformationKey name="L2_NORM_RANGE" location="vtkDataArray" length="2">
            <Value index="0">
              0.0098895237392
            </Value>
            <Value index="1">
              0.022894351495
            </Value>
          </InformationKey>
        </DataArray>
      </PointData>
      <CellData>
        <DataArray type="UInt8" Name="vtkGhostType" format="ascii" RangeMin="0" RangeMax="0">
          0 0 0 0 0 0
          0 0 0 0 0 0
        </DataArray>
        <DataArray type="Float64" Name="Gauss Stress" NumberOfComponents="6" format="ascii" RangeMin="2.950140670491036" RangeMax="129.17735760135983">
          1.3249106966983972 2.5527611297242685 0 0.656774113396944 0 0
          1.9418427268627578 4.7874983234471955 0 4.627290214996586 0 0
          3.786841656993732 -2.4792453440234135 0 0.9981470679590849 0 0
          4.446187226661357 -0.1746147298174196 0 4.975826798663668 0 0
          -3.0402592559830603 9.439542028611918 0 -6.43774114233267 0 0
          37.71959982683711 -54.32378104396293 0 110.96372523874837 0 0
          -1.23237064240915 20.99205050019624 0 25.27906341790269 0 0
          13.214906795572766 -28.47620984520929 0 2.127059896190433 0 0
          15.898053114977795 -15.181708092645838 0 33.95112513268699 0 0
          -16.38601758776101 34.11400445120144 0 -47.17277991395416 0 0
          33.381941103307014 -78.23595086029292 0 -0.04262534146942042 0 0
          -12.207412466579013 54.6307378571581 0 62.82145448095288 0 0
          <InformationKey name="L2_NORM_RANGE" location="vtkDataArray" length="2">
            <Value index="0">
              2.9501406705
            </Value>
            <Value index="1">
              129.1773576
            </Value>
          </InformationKey>
        </DataArray>
        <DataArray type="Float64" Name="Gauss Strain" NumberOfComponents="6" format="ascii" RangeMin="0.0002512730338427603" RangeMax="0.023191253367156744">
          0.00007710829033585886 0.000199865445935643 0 0.00013132498855500578 0 0
          0.00009773896502729415 0.0003821820089715543 0 0.0009250596000070891 0 0
          0.0003598082354115961 -0.00026677328343494006 0 0.00019962075399608564 0 0
          0.00038303577612591727 -0.00007892665901532148 0 0.0009949117432002164 0 0
          -0.0003965422054160727 0.0008509310669526647 0 -0.001287025302141964 0 0
          0.003768329406348969 -0.005449280324550054 0 0.022224744546774353 0 0
          -0.00041690332742660974 0.0018025361442376986 0 0.005048982000151347 0 0
          0.001534424674230872 -0.0026394655478710893 0 0.0004258995785135637 0 0
          0.0015557004876226572 -0.001552333516419146 0 0.006790351488414065 0 0
          -0.001937796086596499 0.003106268091306096 0 -0.009423462395817534 0 0
          0.003944539254043644 -0.007254050939180301 0 -0.000008553175885420663 0 0
          -0.001903017947807339 0.004761350024390598 0 0.01252773415128665 0 0
          <InformationKey name="L2_NORM_RANGE" location="vtkDataArray" length="2">
            <Value index="0">
              0.00025127303384
            </Value>
            <Value index="1">
              0.023191253367
            </Value>
          </InformationKey>
        </DataArray>
        <DataArray type="Float64" Name="Btraction" NumberOfComponents="3" format="ascii" RangeMin="0" RangeMax="2.3122435169460434">
          0.8953658311298254 0.34023586904279424 0 1.0899779519809534 0.03256012724599003 0
          1.544232473969473 -0.15403060710125338 0 0 0 0
          0 0 0 0 0 0
          2.243111022515274 -0.561180026666567 0 1.7474559110056958 -0.5341940930196177 0
          0 0 0 0 0 0
          1.6828793899393788 -0.4715691280786052 0 0 0 0
          <InformationKey name="L2_NORM_RANGE" location="vtkDataArray" length="2">
            <Value index="0">
              0
            </Value>
            <Value index="1">
              2.3122435169
            </Value>
          </InformationKey>
        </DataArray>
      </CellData>
      <Points>
        <DataArray type="Float32" Name="Points" NumberOfComponents="3" format="ascii" RangeMin="10.632507764558053" RangeMax="14.866068747318506">
          11 10 0 11 8.362662315368652 0
          11 6.387491226196289 0 10.5 9.17588996887207 0
          10.5 7.3431549072265625 0 10 10 0
          10 8.340899467468262 0 10.5 5 0
          10 3.61250901222229 0 11 3.7184319496154785 0
          10 6.2815680503845215 0
          <InformationKey name="L2_NORM_RANGE" location="vtkDataArray" length="2">
            <Value index="0">
              10.632507765
            </Value>
            <Value index="1">
              14.866068747
            </Value>
          </InformationKey>
        </DataArray>
      </Points>
      <Cells>
        <DataArray type="Int64" Name="connectivity" format="ascii" RangeMin="0" RangeMax="10">
          0 5 3 3 5 6
          0 3 1 3 6 1
          1 6 4 8 9 7
          4 6 10 1 4 2
          2 4 10 2 10 7
          7 9 2 8 7 10
        </DataArray>
        <DataArray type="Int64" Name="offsets" format="ascii" RangeMin="3" RangeMax="36">
          3 6 9 12 15 18
          21 24 27 30 33 36
        </DataArray>
        <DataArray type="UInt8" Name="types" format="ascii" RangeMin="5" RangeMax="5">
          5 5 5 5 5 5
          5 5 5 5 5 5
        </DataArray>
      </Cells>
    </Piece>
  </UnstructuredGrid>
</VTKFile>
