<?xml version="1.0"?>
<VTKFile type="UnstructuredGrid" version="0.1" byte_order="LittleEndian" header_type="UInt32" compressor="vtkZLibDataCompressor">
  <UnstructuredGrid>
    <Piece NumberOfPoints="11" NumberOfCells="12">
      <PointData>
        <DataArray type="Float64" Name="Disp" NumberOfComponents="3" format="ascii" RangeMin="0.6109545003502225" RangeMax="2.476347641858626">
          2.423240598182567 -0.48155195074215906 0 1.9296354444237314 -0.4047353223113424 0
          1.3425752188734361 -0.3104213603174652 0 2.197839388441412 -0.29237647302747455 0
          1.6484056479954683 -0.2081794991037244 0 2.469809348571124 -0.1798316575285263 0
          1.9691456924512982 -0.10345145753047777 0 0.9745710451165651 -0.10923313561152248 0
          0.6067425821116342 0.07161592386262097 0 0.6004757417858639 -0.18804829812986695 0
          1.3547384321700076 -0.015661666929068035 0
          <InformationKey name="L2_NORM_RANGE" location="vtkDataArray" length="2">
            <Value index="0">
              0.61095450035
            </Value>
            <Value index="1">
              2.4763476419
            </Value>
          </InformationKey>
        </DataArray>
        <DataArray type="Float64" Name="Sld_traction" NumberOfComponents="3" format="ascii" RangeMin="0" RangeMax="76.11052422673743">
          2.4215918717929736 2.0209476521470098 0 8.14217603431416 6.6507668824861375 0
          22.222755894326742 16.35819516713348 0 0 0 0
          0 0 0 0.2919310357724839 -1.483692388437899 0
          5.689538553348323 -10.760577697679862 0 0 0 0
          53.23018881743592 -54.399989857801486 0 65.90660055635438 24.66315111950407 0
          20.782671739610144 -30.554191886139243 0
          <InformationKey name="L2_NORM_RANGE" location="vtkDataArray" length="2">
            <Value index="0">
              0
            </Value>
            <Value index="1">
              76.110524227
            </Value>
          </InformationKey>
        </DataArray>
        <DataArray type="Float64" Name="Fld_traction" NumberOfComponents="3" format="ascii" RangeMin="0" RangeMax="4.826256385367679">
          1.850693723795086 0.32378450512467183 0 2.66323728315608 -0.7963077270085014 0
          2.6425599405631286 -0.7612475688678554 0 0 0 0
          0 0 0 0.902746691731757 0.47434257549936965 0
          2.9889680564240217 -0.6568329923456478 0 0 0 0
          0 0 0 2.5734469790433208 -0.6476224742252105 0
          4.668582944468011 -1.2235538353193494 0
          <InformationKey name="L2_NORM_RANGE" location="vtkDataArray" length="2">
            <Value index="0">
              0
            </Value>
            <Value index="1">
              4.8262563854
            </Value>
          </InformationKey>
        </DataArray>
        <DataArray type="Float64" Name="Velocity" NumberOfComponents="3" format="ascii" RangeMin="0.00955012900080845" RangeMax="0.023111922917225355">
          0.007615698508009361 0.008596497609032472 0 -0.008331527653855808 0.015349342734047977 0
          -0.010764535003486841 0.02045203576885375 0 0.0001958545051543581 0.016390205711857717 0
          -0.01013953213348695 0.019207955739837634 0 0.010466399960217032 0.01956771556311014 0
          -0.006987286243095525 0.021910618231995638 0 -0.0037960805939974973 0.015107423759138427 0
          0.004238475368638528 0.008558054129387538 0 0.0031511373099367135 0.0132777979984499 0
          -0.010701019782120236 0.017066115845517933 0
          <InformationKey name="L2_NORM_RANGE" location="vtkDataArray" length="2">
            <Value index="0">
              0.0095501290008
            </Value>
            <Value index="1">
              0.023111922917
            </Value>
          </InformationKey>
        </DataArray>
      </PointData>
      <CellData>
        <DataArray type="UInt8" Name="vtkGhostType" format="ascii" RangeMin="0" RangeMax="0">
          0 0 0 0 0 0
          0 0 0 0 0 0
        </DataArray>
        <DataArray type="Float64" Name="Gauss Stress" NumberOfComponents="6" format="ascii" RangeMin="1.5870872001791534" RangeMax="120.89353250304346">
          0.7615103111950623 1.3561334384555905 0 0.3159903859593199 0 0
          1.2988616934324995 3.8744422387579966 0 4.5963981700925185 0 0
          4.024880772715177 -5.24939433329275 0 0.8646494878782661 0 0
          4.616625017336313 -2.649517732208341 0 5.15827339200371 0 0
          -3.8588453329986425 6.385248479590157 0 -8.255066504541166 0 0
          32.61952982496887 -51.39979608494936 0 104.44746735794035 0 0
          -3.320556249180304 18.65933077357228 0 23.440252122030753 0 0
          12.762071373797273 -31.48708992464573 0 0.8318261405889985 0 0
          14.199303597218588 -17.455997486736063 0 32.6236108525916 0 0
          -15.017420309914062 28.697944400487856 0 -46.55340037658436 0 0
          30.993488544812422 -76.22258167099862 0 -0.38911192436375963 0 0
          -13.513044728769195 50.46864402830987 0 57.412222739385754 0 0
          <InformationKey name="L2_NORM_RANGE" location="vtkDataArray" length="2">
            <Value index="0">
              1.5870872002
            </Value>
            <Value index="1">
              120.8935325
            </Value>
          </InformationKey>
        </DataArray>
        <DataArray type="Float64" Name="Gauss Strain" NumberOfComponents="6" format="ascii" RangeMin="0.00013115340147431276" RangeMax="0.021788269865269744">
          0.00004590420218342217 0.00010536048551995636 0 0.00006319166900141848 0 0
          0.00005565142531754885 0.0003131272222070547 0 0.0009189860389449197 0 0
          0.00041966182099884 -0.0005078933669908634 0 0.0001729537045444419 0 0
          0.0004328507564542172 -0.0002936980663331701 0 0.0010315617487175735 0 0
          -0.0004235209333468547 0.0006007560388773259 0 -0.001650799900795473 0 0
          0.0033195217990669157 -0.005095620235910037 0 0.020922335748159795 0 0
          -0.0005614134113630653 0.001634297181943467 0 0.004683191486911794 0 0
          0.001538476915066922 -0.0028926086913960702 0 0.00016659718423966117 0 0
          0.001444385170298157 -0.0017220987072261713 0 0.006526688058811081 0 0
          -0.0017404666373380668 0.0026271803169723995 0 -0.00930239602092135 0 0
          0.0037145949783550236 -0.007042611917291053 0 -0.00007808078523151609 0 0
          -0.0019445509452326033 0.004437434985653244 0 0.011453401899871131 0 0
          <InformationKey name="L2_NORM_RANGE" location="vtkDataArray" length="2">
            <Value index="0">
              0.00013115340147
            </Value>
            <Value index="1">
              0.021788269865
            </Value>
          </InformationKey>
        </DataArray>
        <DataArray type="Float64" Name="Btraction" NumberOfComponents="3" format="ascii" RangeMin="0" RangeMax="2.628348487652752">
          0.9178134718422809 0.26604236020801375 0 1.2972382493852594 -0.06083013894875933 0
          1.5046436689837217 -0.15750774062794315 0 0 0 0
          0 0 0 0 0 0
          2.5525170002973434 -0.6267956092216656 0 1.768599074573069 -0.5191850986254521 0
          0 0 0 0 0 0
          1.7386689732021492 -0.46962334769768854 0 0 0 0
          <InformationKey name="L2_NORM_RANGE" location="vtkDataArray" length="2">
            <Value index="0">
              0
            </Value>
            <Value index="1">
              2.6283484877
            </Value>
          </InformationKey>
        </DataArray>
      </CellData>
      <Points>
        <DataArray type="Float32" Name="Points" NumberOfComponents="3" format="ascii" RangeMin="10.632507764558053" RangeMax="14.866068747318506">
          11 10 0 11 8.362662315368652 0
          11 6.387491226196289 0 10.5 9.17588996887207 0
          10.5 7.3431549072265625 0 10 10 0
          10 8.340899467468262 0 10.5 5 0
          10 3.61250901222229 0 11 3.7184319496154785 0
          10 6.2815680503845215 0
          <InformationKey name="L2_NORM_RANGE" location="vtkDataArray" length="2">
            <Value index="0">
              10.632507765
            </Value>
            <Value index="1">
              14.866068747
            </Value>
          </InformationKey>
        </DataArray>
      </Points>
      <Cells>
        <DataArray type="Int64" Name="connectivity" format="ascii" RangeMin="0" RangeMax="10">
          0 5 3 3 5 6
          0 3 1 3 6 1
          1 6 4 8 9 7
          4 6 10 1 4 2
          2 4 10 2 10 7
          7 9 2 8 7 10
        </DataArray>
        <DataArray type="Int64" Name="offsets" format="ascii" RangeMin="3" RangeMax="36">
          3 6 9 12 15 18
          21 24 27 30 33 36
        </DataArray>
        <DataArray type="UInt8" Name="types" format="ascii" RangeMin="5" RangeMax="5">
          5 5 5 5 5 5
          5 5 5 5 5 5
        </DataArray>
      </Cells>
    </Piece>
  </UnstructuredGrid>
</VTKFile>
