<?xml version="1.0"?>
<VTKFile type="UnstructuredGrid" version="0.1" byte_order="LittleEndian" header_type="UInt32" compressor="vtkZLibDataCompressor">
  <UnstructuredGrid>
    <Piece NumberOfPoints="11" NumberOfCells="12">
      <PointData>
        <DataArray type="Float64" Name="Disp" NumberOfComponents="3" format="ascii" RangeMin="0.607371080885124" RangeMax="2.4667369231373">
          2.414180303742532 -0.47514999990837653 0 1.9214218170214366 -0.3987732852179495 0
          1.3358135549859507 -0.3054720318133145 0 2.189135495640218 -0.28646168979342584 0
          1.6408332059368667 -0.2031575463535355 0 2.4605941494883217 -0.1739755140033111 0
          1.9608012526061827 -0.0981936274092041 0 0.9692692836794146 -0.10587072954621868 0
          0.6029445782425003 0.07319470925918983 0 0.5968093170040062 -0.1849587162734479 0
          1.3478537929382974 -0.01187631285285412 0
          <InformationKey name="L2_NORM_RANGE" location="vtkDataArray" length="2">
            <Value index="0">
              0.60737108089
            </Value>
            <Value index="1">
              2.4667369231
            </Value>
          </InformationKey>
        </DataArray>
        <DataArray type="Float64" Name="Sld_traction" NumberOfComponents="3" format="ascii" RangeMin="0" RangeMax="76.28614221632482">
          2.4198816516109907 2.3514038175807572 0 8.10575511721465 6.616379122342984 0
          22.227565461983257 16.242524542968393 0 0 0 0
          0 0 0 0.5108164926526297 -1.527774642435252 0
          6.2352910062651095 -11.382953389233798 0 0 0 0
          53.95425350815062 -53.93064085125961 0 65.47861383767733 24.211867518348274 0
          21.673878807091963 -30.7856328047244 0
          <InformationKey name="L2_NORM_RANGE" location="vtkDataArray" length="2">
            <Value index="0">
              0
            </Value>
            <Value index="1">
              76.286142216
            </Value>
          </InformationKey>
        </DataArray>
        <DataArray type="Float64" Name="Fld_traction" NumberOfComponents="3" format="ascii" RangeMin="0" RangeMax="5.160079375418822">
          1.660148651492712 0.26253343000892154 0 2.4186914937907633 -0.7221457707361273 0
          2.4129428044185497 -0.6924443711469752 0 0 0 0
          0 0 0 1.02361635771952 0.31470449418581503 0
          3.268409521273446 -0.7441297479997021 0 0 0 0
          0 0 0 2.354266803510106 -0.5889934390615553 0
          4.98991670758812 -1.3142109465210066 0
          <InformationKey name="L2_NORM_RANGE" location="vtkDataArray" length="2">
            <Value index="0">
              0
            </Value>
            <Value index="1">
              5.1600793754
            </Value>
          </InformationKey>
        </DataArray>
        <DataArray type="Float64" Name="Velocity" NumberOfComponents="3" format="ascii" RangeMin="0.008443811322055987" RangeMax="0.02420304790710737">
          -0.003135200958461981 0.023999125878743865 0 0.006909942845842121 0.017608688307415132 0
          0.005003449461182363 0.008883762777393379 0 0.0019503255286421606 0.018146570771935447 0
          0.006864053964281469 0.012614118981659372 0 -0.004855260159957631 0.016377141507817453 0
          0.006745623670721734 0.013333054192801362 0 -0.0011000668470052544 0.00837184582840611 0
          -0.008112333667502747 0.007510587460870799 0 -0.0073871571014419435 0.006031089675948412 0
          0.005560097156825927 0.011486997633050382 0
          <InformationKey name="L2_NORM_RANGE" location="vtkDataArray" length="2">
            <Value index="0">
              0.0084438113221
            </Value>
            <Value index="1">
              0.024203047907
            </Value>
          </InformationKey>
        </DataArray>
      </PointData>
      <CellData>
        <DataArray type="UInt8" Name="vtkGhostType" format="ascii" RangeMin="0" RangeMax="0">
          0 0 0 0 0 0
          0 0 0 0 0 0
        </DataArray>
        <DataArray type="Float64" Name="Gauss Stress" NumberOfComponents="6" format="ascii" RangeMin="2.5306945015048834" RangeMax="120.75197748590645">
          0.7959429555930739 2.334564148326956 0 0.5663035482276689 0 0
          1.462209746575448 5.418251960194857 0 5.7911106398000936 0 0
          3.9450936949205504 -4.139160965464889 0 1.13011272968178 0 0
          4.666164633267549 -0.9616486045803907 0 6.363629829313962 0 0
          -3.993668447072247 10.431661373188465 0 -7.648869887359421 0 0
          32.405197458765564 -47.02197825034475 0 106.39490968011287 0 0
          -3.571415882019526 23.31165525408809 0 25.465935503716217 0 0
          13.112557945237402 -28.594115823689513 0 1.7651401533642965 0 0
          14.465987290720339 -13.8733349809166 0 34.974141220326665 0 0
          -15.223072902412088 33.41115075872367 0 -46.116664402162804 0 0
          31.23509017257178 -72.35254728100492 0 0.6185972148387939 0 0
          -14.174118822983683 55.63142873153199 0 58.77653654939898 0 0
          <InformationKey name="L2_NORM_RANGE" location="vtkDataArray" length="2">
            <Value index="0">
              2.5306945015
            </Value>
            <Value index="1">
              120.75197749
            </Value>
          </InformationKey>
        </DataArray>
        <DataArray type="Float64" Name="Gauss Strain" NumberOfComponents="6" format="ascii" RangeMin="0.00022283065393661344" RangeMax="0.02206086911080928">
          0.000034879682086097485 0.00018871506833040283 0 0.00011324103097571544 0 0
          0.00004740362616817427 0.00044283333359068633 0 0.0011577111983607897 0 0
          0.00039700527111863327 -0.00041147192808310695 0 0.00022603700968317858 0 0
          0.0004128162887602205 -0.00014984455732014457 0 0.001272453506390016 0 0
          -0.0004929114268343857 0.0009490323150683766 0 -0.001529149101494531 0 0
          0.0032332438369972456 -0.004719625081645695 0 0.021306177960945485 0 0
          -0.0006513612841240191 0.002033320074336764 0 0.005086317852335312 0 0
          0.001527390560830177 -0.002648122693484911 0 0.00035343821216390436 0 0
          0.001413760189694857 -0.0014202510646897926 0 0.00699502330230692 0 0
          -0.001825611042266972 0.003031922721971003 0 -0.009212165325733334 0 0
          0.003681044999611638 -0.0067090457545843085 0 0.0001240935957314081 0 0
          -0.0020790270416645162 0.004881660410558486 0 0.011721850620110521 0 0
          <InformationKey name="L2_NORM_RANGE" location="vtkDataArray" length="2">
            <Value index="0">
              0.00022283065394
            </Value>
            <Value index="1">
              0.022060869111
            </Value>
          </InformationKey>
        </DataArray>
        <DataArray type="Float64" Name="Btraction" NumberOfComponents="3" format="ascii" RangeMin="0" RangeMax="2.836992118365718">
          0.8945883364040772 0.1924126413982455 0 1.4306752929976552 -0.14314175127129564 0
          1.359613381761158 -0.1532041135757352 0 0 0 0
          0 0 0 0 0 0
          2.7527754096205213 -0.6861135648402361 0 1.6105447660697705 -0.4715300472943674 0
          0 0 0 0 0 0
          1.5890698693095513 -0.42714593673617673 0 0 0 0
          <InformationKey name="L2_NORM_RANGE" location="vtkDataArray" length="2">
            <Value index="0">
              0
            </Value>
            <Value index="1">
              2.8369921184
            </Value>
          </InformationKey>
        </DataArray>
      </CellData>
      <Points>
        <DataArray type="Float32" Name="Points" NumberOfComponents="3" format="ascii" RangeMin="10.632507764558053" RangeMax="14.866068747318506">
          11 10 0 11 8.362662315368652 0
          11 6.387491226196289 0 10.5 9.17588996887207 0
          10.5 7.3431549072265625 0 10 10 0
          10 8.340899467468262 0 10.5 5 0
          10 3.61250901222229 0 11 3.7184319496154785 0
          10 6.2815680503845215 0
          <InformationKey name="L2_NORM_RANGE" location="vtkDataArray" length="2">
            <Value index="0">
              10.632507765
            </Value>
            <Value index="1">
              14.866068747
            </Value>
          </InformationKey>
        </DataArray>
      </Points>
      <Cells>
        <DataArray type="Int64" Name="connectivity" format="ascii" RangeMin="0" RangeMax="10">
          0 5 3 3 5 6
          0 3 1 3 6 1
          1 6 4 8 9 7
          4 6 10 1 4 2
          2 4 10 2 10 7
          7 9 2 8 7 10
        </DataArray>
        <DataArray type="Int64" Name="offsets" format="ascii" RangeMin="3" RangeMax="36">
          3 6 9 12 15 18
          21 24 27 30 33 36
        </DataArray>
        <DataArray type="UInt8" Name="types" format="ascii" RangeMin="5" RangeMax="5">
          5 5 5 5 5 5
          5 5 5 5 5 5
        </DataArray>
      </Cells>
    </Piece>
  </UnstructuredGrid>
</VTKFile>
