<?xml version="1.0"?>
<VTKFile type="UnstructuredGrid" version="0.1" byte_order="LittleEndian" header_type="UInt32" compressor="vtkZLibDataCompressor">
  <UnstructuredGrid>
    <Piece NumberOfPoints="11" NumberOfCells="12">
      <PointData>
        <DataArray type="Float64" Name="Disp" NumberOfComponents="3" format="ascii" RangeMin="0.6067973562229475" RangeMax="2.4677996426576625">
          2.4149307064482324 -0.4813696807167381 0 1.9229322382506169 -0.4051001036839639 0
          1.3372026415494953 -0.31112981071979307 0 2.190198233232813 -0.2929428328928843 0
          1.64229190165415 -0.20907743099908888 0 2.4611780405211405 -0.18065915187945844 0
          1.962184468318404 -0.10464657730618981 0 0.9698522033421993 -0.1100896946820808 0
          0.6026832441663414 0.07054033399618016 0 0.5965973284532627 -0.18844165598153778 0
          1.3492240556030284 -0.016866595738489115 0
          <InformationKey name="L2_NORM_RANGE" location="vtkDataArray" length="2">
            <Value index="0">
              0.60679735622
            </Value>
            <Value index="1">
              2.4677996427
            </Value>
          </InformationKey>
        </DataArray>
        <DataArray type="Float64" Name="Sld_traction" NumberOfComponents="3" format="ascii" RangeMin="0" RangeMax="76.18923125747374">
          2.2677414916051872 1.8092014469744466 0 7.878588470260532 6.73299336057305 0
          22.354227259060252 16.901622429715452 0 0 0 0
          0 0 0 0.1890281833643107 -1.2775495215551507 0
          5.20243530093846 -10.39385651610458 0 0 0 0
          53.38267540441859 -54.36072963336029 0 66.53188504921513 24.802797608777464 0
          20.407982906116906 -30.705166563096615 0
          <InformationKey name="L2_NORM_RANGE" location="vtkDataArray" length="2">
            <Value index="0">
              0
            </Value>
            <Value index="1">
              76.189231257
            </Value>
          </InformationKey>
        </DataArray>
        <DataArray type="Float64" Name="Fld_traction" NumberOfComponents="3" format="ascii" RangeMin="0" RangeMax="4.516348913255579">
          1.8372124911597107 0.33542717298431024 0 2.6590966735975736 -0.7924572928878746 0
          2.713076325913873 -0.7801379236419582 0 0 0 0
          0 0 0 0.8275799076322423 0.5187334306223186 0
          2.7741863387338177 -0.5876904601903311 0 0 0 0
          0 0 0 2.7506426022824217 -0.6897618338494832 0
          4.372029283033462 -1.1325932432090398 0
          <InformationKey name="L2_NORM_RANGE" location="vtkDataArray" length="2">
            <Value index="0">
              0
            </Value>
            <Value index="1">
              4.5163489133
            </Value>
          </InformationKey>
        </DataArray>
        <DataArray type="Float64" Name="Velocity" NumberOfComponents="3" format="ascii" RangeMin="0.00009323718456260042" RangeMax="0.011674733341611968">
          0.0016343955470612404 -0.011559764262020766 0 -0.009930785304202772 -0.004955051375386432 0
          -0.007781622588271642 0.0024317950355637434 0 -0.0040758007138324 -0.005184284573018519 0
          -0.009781445398848065 -0.0007743496905526226 0 0.003687478094319907 -0.00300986575552277 0
          -0.009512055095164396 -0.00042715439882994727 0 -0.00006577247856431878 0.00006608444331812624 0
          0.008635001819820354 -0.002201836934851459 0 0.007811134202928838 0.0009347897402313537 0
          -0.008300622486287823 -0.0015064318617803926 0
          <InformationKey name="L2_NORM_RANGE" location="vtkDataArray" length="2">
            <Value index="0">
              9.3237184563e-05
            </Value>
            <Value index="1">
              0.011674733342
            </Value>
          </InformationKey>
        </DataArray>
      </PointData>
      <CellData>
        <DataArray type="UInt8" Name="vtkGhostType" format="ascii" RangeMin="0" RangeMax="0">
          0 0 0 0 0 0
          0 0 0 0 0 0
        </DataArray>
        <DataArray type="Float64" Name="Gauss Stress" NumberOfComponents="6" format="ascii" RangeMin="1.3650754032152772" RangeMax="122.510421456677">
          0.7568333313370619 1.0976759984657722 0 0.2928166105820621 0 0
          1.2248121640874987 3.217542223437476 0 3.8776459621385344 0 0
          3.7532286768969074 -4.897878786484822 0 0.7852240910692501 0 0
          4.270154646268536 -2.7085093793965824 0 4.383198312023049 0 0
          -3.5478696706751256 4.844922590952319 0 -7.942212307524935 0 0
          32.99905752333919 -54.44659655321314 0 104.66820764604509 0 0
          -2.823266678892453 16.728980428261117 0 22.537116656908424 0 0
          12.508060395063275 -32.051373499941185 0 0.9978816265803703 0 0
          14.097778237711626 -18.48140419013063 0 31.5756700851531 0 0
          -14.989473837268878 26.162437503479772 0 -47.144137166471374 0 0
          31.405151216947175 -79.50431385382267 0 -0.5536885902130051 0 0
          -13.517917916058945 48.131571785632374 0 57.198338855333034 0 0
          <InformationKey name="L2_NORM_RANGE" location="vtkDataArray" length="2">
            <Value index="0">
              1.3650754032
            </Value>
            <Value index="1">
              122.51042146
            </Value>
          </InformationKey>
        </DataArray>
        <DataArray type="Float64" Name="Gauss Strain" NumberOfComponents="6" format="ascii" RangeMin="0.0001130665448790629" RangeMax="0.021910763951555303">
          0.00004919436618328053 0.00008327581748146518 0 0.000058558484692725345 0 0
          0.00005878604182146807 0.00025800579191320727 0 0.0007753219317356777 0 0
          0.0003913991321181086 -0.0004738257410006329 0 0.00015706553581513254 0 0
          0.0004041504697652742 -0.0002936732003009368 0 0.0008765859830692443 0 0
          -0.00037467919350853135 0.0004645650961841996 0 -0.001588376339801206 0 0
          0.0033933959778651985 -0.0053666070659301734 0 0.020970597732971084 0 0
          -0.0004903120230106417 0.0014630845461911512 0 0.004503208875791928 0 0
          0.001524804092806531 -0.002937612863197491 0 0.00019986626854504795 0 0
          0.0014513749579698199 -0.0018077847006096048 0 0.00631754037180478 0 0
          -0.0017023799294426656 0.0024098871552121204 0 -0.009422127779137162 0 0
          0.0037951535771221234 -0.007334922802064048 0 -0.00011112841082449348 0 0
          -0.0019107856488472796 0.004239593769070238 0 0.011412632537176021 0 0
          <InformationKey name="L2_NORM_RANGE" location="vtkDataArray" length="2">
            <Value index="0">
              0.00011306654488
            </Value>
            <Value index="1">
              0.021910763952
            </Value>
          </InformationKey>
        </DataArray>
        <DataArray type="Float64" Name="Btraction" NumberOfComponents="3" format="ascii" RangeMin="0" RangeMax="2.450119582863301">
          0.8882641329306509 0.28472020120220953 0 1.2005887487886864 -0.022985676522670834 0
          1.4987697215857612 -0.15234337330118813 0 0 0 0
          0 0 0 0 0 0
          2.382071873922426 -0.5734279011331235 0 1.7907243331704819 -0.5241984055099441 0
          0 0 0 0 0 0
          1.8212396427320978 -0.4899665858304804 0 0 0 0
          <InformationKey name="L2_NORM_RANGE" location="vtkDataArray" length="2">
            <Value index="0">
              0
            </Value>
            <Value index="1">
              2.4501195829
            </Value>
          </InformationKey>
        </DataArray>
      </CellData>
      <Points>
        <DataArray type="Float32" Name="Points" NumberOfComponents="3" format="ascii" RangeMin="10.632507764558053" RangeMax="14.866068747318506">
          11 10 0 11 8.362662315368652 0
          11 6.387491226196289 0 10.5 9.17588996887207 0
          10.5 7.3431549072265625 0 10 10 0
          10 8.340899467468262 0 10.5 5 0
          10 3.61250901222229 0 11 3.7184319496154785 0
          10 6.2815680503845215 0
          <InformationKey name="L2_NORM_RANGE" location="vtkDataArray" length="2">
            <Value index="0">
              10.632507765
            </Value>
            <Value index="1">
              14.866068747
            </Value>
          </InformationKey>
        </DataArray>
      </Points>
      <Cells>
        <DataArray type="Int64" Name="connectivity" format="ascii" RangeMin="0" RangeMax="10">
          0 5 3 3 5 6
          0 3 1 3 6 1
          1 6 4 8 9 7
          4 6 10 1 4 2
          2 4 10 2 10 7
          7 9 2 8 7 10
        </DataArray>
        <DataArray type="Int64" Name="offsets" format="ascii" RangeMin="3" RangeMax="36">
          3 6 9 12 15 18
          21 24 27 30 33 36
        </DataArray>
        <DataArray type="UInt8" Name="types" format="ascii" RangeMin="5" RangeMax="5">
          5 5 5 5 5 5
          5 5 5 5 5 5
        </DataArray>
      </Cells>
    </Piece>
  </UnstructuredGrid>
</VTKFile>
