<?xml version="1.0"?>
<VTKFile type="UnstructuredGrid" version="0.1" byte_order="LittleEndian" header_type="UInt32" compressor="vtkZLibDataCompressor">
  <UnstructuredGrid>
    <Piece NumberOfPoints="13" NumberOfCells="14">
      <PointData>
        <DataArray type="Float64" Name="Disp" NumberOfComponents="3" format="ascii" RangeMin="0" RangeMax="1.99847392751907">
          0.6068959674862658 -0.18835333144924718 0 1.3712503906184852 -0.013920430167036119 0
          0.15496600191382304 -0.08997194392952622 0 0.3794345913169622 -0.02906661264622752 0
          0 0 0 0.6136774453817716 0.07416298477260638 0
          0.0674465852312143 -0.0015758070499400333 0 0.16542196290560227 0.0762421217451757 0
          0 0 0 0.9859078194913697 -0.10875108636198022 0
          1.6693235260953891 -0.20964736645981807 0 1.9957866131702153 -0.10360421643957317 0
          1.3582537293728982 -0.31280171975392995 0
          <InformationKey name="L2_NORM_RANGE" location="vtkDataArray" length="2">
            <Value index="0">
              0
            </Value>
            <Value index="1">
              1.9984739275
            </Value>
          </InformationKey>
        </DataArray>
        <DataArray type="Float64" Name="Sld_traction" NumberOfComponents="3" format="ascii" RangeMin="0" RangeMax="169.6792301779438">
          67.22200553649779 23.710383270975598 0 21.752446372906313 -31.401497968182976 0
          144.72648475059148 41.47185701085724 0 0 0 0
          -46.857446467246334 44.252204146106486 0 54.07580924048838 -54.78121975827305 0
          0 0 0 150.2528763400658 -78.83599625371981 0
          -7.782751142461307 -46.17611089426685 0 0 0 0
          0 0 0 6.169699887597247 -11.964163950994994 0
          23.60207490958388 15.782609432553981 0
          <InformationKey name="L2_NORM_RANGE" location="vtkDataArray" length="2">
            <Value index="0">
              0
            </Value>
            <Value index="1">
              169.67923018
            </Value>
          </InformationKey>
        </DataArray>
        <DataArray type="Float64" Name="Fld_traction" NumberOfComponents="3" format="ascii" RangeMin="0" RangeMax="6.159053585237211">
          2.7811313686853527 -0.7099444282052005 0 4.462513867090815 -1.1822627881578094 0
          2.786212508460268 -0.4671989935218551 0 0 0 0
          1.3562708170105435 1.333140918062071 0 5.625846296992952 -1.3685342827131781 0
          0 0 0 6.080716996202193 -0.9791945046420127 0
          3.107381837992409 -3.421523848027664 0 0 0 0
          0 0 0 2.741681327462097 -0.5956900654096855 0
          2.8500833914805774 -0.8358067216955238 0
          <InformationKey name="L2_NORM_RANGE" location="vtkDataArray" length="2">
            <Value index="0">
              0
            </Value>
            <Value index="1">
              6.1590535852
            </Value>
          </InformationKey>
        </DataArray>
        <DataArray type="Float64" Name="Velocity" NumberOfComponents="3" format="ascii" RangeMin="0" RangeMax="0.018521694389848856">
          -0.007722313937209513 0.007898801084689641 0 -0.014267982755422848 0.010065273676573568 0
          -0.00306236742431526 0.00422399451301219 0 -0.00526916296754773 0.004609985963306029 0
          0 0 0 -0.006749611627480445 0.004544546812760675 0
          -0.0013815544937321698 0.001338801680055245 0 -0.0023803817115512355 0.0017439138761419747 0
          0 0 0 -0.011212507059433663 0.008607143587354371 0
          -0.013421648804835096 0.011296961566653663 0 -0.010604226606294453 0.013665722877717584 0
          -0.014648430788654743 0.011334753570367128 0
          <InformationKey name="L2_NORM_RANGE" location="vtkDataArray" length="2">
            <Value index="0">
              0
            </Value>
            <Value index="1">
              0.01852169439
            </Value>
          </InformationKey>
        </DataArray>
      </PointData>
      <CellData>
        <DataArray type="UInt8" Name="vtkGhostType" format="ascii" RangeMin="0" RangeMax="1">
          0 0 1 1 1 1
          1 1 0 0 0 0
          0 0
        </DataArray>
        <DataArray type="Float64" Name="Gauss Stress" NumberOfComponents="6" format="ascii" RangeMin="35.95315159071267" RangeMax="596.3069217714004">
          111.06580854655716 -254.5967023888383 0 -29.203338142218257 0 0
          -40.53414625214588 65.67920149528098 0 -144.79124198677727 0 0
          34.58970860056957 -48.04191138024944 0 108.16439489100847 0 0
          -3.3393967607438975 23.82564259247776 0 26.717340691667047 0 0
          16.16997719166799 -16.181847947580486 0 36.57211685634873 0 0
          -15.648024636096967 35.6827932950752 0 -47.930580119508605 0 0
          32.23172040844876 -73.10471078008842 0 -0.8248223312562272 0 0
          -13.426948406065247 57.47756879250706 0 60.112914709542835 0 0
          29.717774119131114 -22.973745485345805 0 409.18827290119555 0 0
          184.06285843744394 -563.355016018028 0 2.3916495972789753 0 0
          -213.03014399496055 539.3799117274846 0 138.8143131194346 0 0
          -66.02356037596817 72.86613617625538 0 -260.68489445832347 0 0
          83.91516542109954 -82.09864638842446 0 247.00998111814152 0 0
          -59.92685318067356 227.1587605103141 0 125.9014676713127 0 0
          <InformationKey name="L2_NORM_RANGE" location="vtkDataArray" length="2">
            <Value index="0">
              35.953151591
            </Value>
            <Value index="1">
              596.30692177
            </Value>
          </InformationKey>
        </DataArray>
        <DataArray type="Float64" Name="Gauss Strain" NumberOfComponents="6" format="ascii" RangeMin="0.005760092922279888" RangeMax="0.08216831441950886">
          0.012770785999353936 -0.024189515996637427 0 -0.005903608736188657 0 0
          -0.004812298345524546 0.0057940929788573015 0 -0.028917506234845694 0 0
          0.003426209836914107 -0.00484688597511207 0 0.02165888560797587 0 0
          -0.0006398979701699448 0.00207280003848781 0 0.005335981733619053 0 0
          0.0015898691406180943 -0.0016455513982978065 0 0.007314961521915176 0 0
          -0.0018980397403604017 0.003228166997337133 0 -0.009573276743021403 0 0
          0.0037758153739909095 -0.006789513603627227 0 -0.00016546068970592294 0 0
          -0.0020438427063184097 0.00502513429546092 0 0.011986170370545574 0 0
          0 -0.005279509893241663 0 0.081998528461372 0 0
          0.022536341312062502 -0.05437436835983134 0 0.0004922105132881285 0 0
          -0.027859884567248187 0.045798554113093526 0 0.027178917913434828 0 0
          -0.007951502258931376 0.0059458026249930565 0 -0.05216826801200143 0 0
          0.007209037326431578 -0.009407111750306063 0 0.04944594217751381 0 0
          -0.008829080422791846 0.019552359740839853 0 0.02489337536135092 0 0
          <InformationKey name="L2_NORM_RANGE" location="vtkDataArray" length="2">
            <Value index="0">
              0.0057600929223
            </Value>
            <Value index="1">
              0.08216831442
            </Value>
          </InformationKey>
        </DataArray>
        <DataArray type="Float64" Name="Btraction" NumberOfComponents="3" format="ascii" RangeMin="0" RangeMax="3.979886299277073">
          1.8557812923818733 -0.3923811405756852 0 0 0 0
          0 0 0 2.4013983981843037 -0.5926509511891648 0
          0 0 0 0 0 0
          1.8770715867219763 -0.5152503833002413 0 3.362786721361255 -0.850265690290329 0
          0 0 0 1.3808277751569369 0.2886473081800719 0
          3.062699611398201 -1.4669061175565585 0 0 0 0
          0 0 0 3.902187764398381 -0.7825762624517301 0
          <InformationKey name="L2_NORM_RANGE" location="vtkDataArray" length="2">
            <Value index="0">
              0
            </Value>
            <Value index="1">
              3.9798862993
            </Value>
          </InformationKey>
        </DataArray>
      </CellData>
      <Points>
        <DataArray type="Float32" Name="Points" NumberOfComponents="3" format="ascii" RangeMin="10" RangeMax="13.021927811442218">
          11 3.7184319496154785 0 10 6.2815680503845215 0
          11 1.6591010093688965 0 10.5 2.6568450927734375 0
          11 0 0 10 3.61250901222229 0
          10.5 0.8241099119186401 0 10 1.6373380422592163 0
          10 0 0 10.5 5 0
          10.5 7.3431549072265625 0 10 8.340899467468262 0
          11 6.387491226196289 0
          <InformationKey name="L2_NORM_RANGE" location="vtkDataArray" length="2">
            <Value index="0">
              10
            </Value>
            <Value index="1">
              13.021927811
            </Value>
          </InformationKey>
        </DataArray>
      </Points>
      <Cells>
        <DataArray type="Int64" Name="connectivity" format="ascii" RangeMin="0" RangeMax="12">
          3 2 0 5 3 0
          5 0 9 10 11 1
          12 10 1 12 1 9
          9 0 12 5 9 1
          8 4 6 6 4 2
          8 6 7 6 2 7
          7 2 3 7 3 5
        </DataArray>
        <DataArray type="Int64" Name="offsets" format="ascii" RangeMin="3" RangeMax="42">
          3 6 9 12 15 18
          21 24 27 30 33 36
          39 42
        </DataArray>
        <DataArray type="UInt8" Name="types" format="ascii" RangeMin="5" RangeMax="5">
          5 5 5 5 5 5
          5 5 5 5 5 5
          5 5
        </DataArray>
      </Cells>
    </Piece>
  </UnstructuredGrid>
</VTKFile>
