<?xml version="1.0"?>
<VTKFile type="UnstructuredGrid" version="0.1" byte_order="LittleEndian" header_type="UInt32" compressor="vtkZLibDataCompressor">
  <UnstructuredGrid>
    <Piece NumberOfPoints="36" NumberOfCells="50">
      <PointData>
        <DataArray type="Float64" Name="Velocity" NumberOfComponents="3" format="ascii" RangeMin="0" RangeMax="0.011804687863677351">
          0 0 0 -0.00929029283071836 0.0004820141118709635 0
          -0.011615516051104221 0.001583054732996756 0 -0.008945116335315596 0.0026713350408985883 0
          -0.003291904956937985 0.0033430865520428657 0 0 0 0
          -0.007590159738271078 0.0014017794498893687 0 -0.009448946722097543 0.004364437701650216 0
          -0.00726073939418609 0.007267332658754305 0 -0.002649722224146861 0.009018233970065475 0
          0 0 0 -0.004666107543698836 0.0018627025733119465 0
          -0.005757827314992195 0.005693311174207673 0 -0.004402317157410197 0.009432655673149215 0
          -0.0015838333568828442 0.011668474077622714 0 0 0 0
          -0.00162217944330895 0.0015382273441800795 0 -0.0019394212815948635 0.00458318010822701 0
          -0.0014543250817691785 0.00754349265650352 0 -0.0004958970850607551 0.009305488157080422 0
          0 0 0 0 0 0
          0 0 0 0 0 0
          0 0 0 0.0033551160671415167 0.0033483410276436785 0
          0.0027599904674762113 0.009021935923389736 0 0.0017085733057408794 0.011680386672442014 0
          0.0006058796158309115 0.009307535203150459 0 0 0 0
          0 0 0 -0.009281936447584746 -0.0005789922147105889 0
          -0.011630421693877064 -0.0016887175401331283 0 -0.008976140376799977 -0.0027565378371543054 0
          -0.0033174315917308315 -0.003333520064425676 0 0.0033615721649279426 -0.0033158271126492124 0
          <InformationKey name="L2_NORM_RANGE" location="vtkDataArray" length="2">
            <Value index="0">
              0
            </Value>
            <Value index="1">
              0.011804687864
            </Value>
          </InformationKey>
        </DataArray>
        <DataArray type="Float64" Name="Pressure" format="ascii" RangeMin="10" RangeMax="10.021947807470132">
          10 10.012115768033881 10.018494901402333 10.02034533843021 10.018793139273008 10
          10.013005760430879 10.019914078497436 10.021947807470132 10.020300936548823 10 10.01179094296881
          10.018065035070466 10.019916613344233 10.018403932318813 10 10.007677162148276 10.011772705976531
          10.012990602517164 10.011991737170822 10 10 10 10
          10 10.015049572564536 10.016302120486062 10.014802088909324 10.009676054878208 10
          10 10.00956892441964 10.014684252134067 10.016206055257532 10.015059016232453 10.012062285706774
        </DataArray>
        <DataArray type="Float64" Name="Temperature" format="ascii" RangeMin="0.030561404862717745" RangeMax="0.03424657534246575">
          0.03424657534246575 0.032693341794250465 0.03161164340504782 0.03092275354845048 0.030582043883792882 0.03424657534246575
          0.03284917457201382 0.03186684636870232 0.031236639328012808 0.03092270867232566 0.03424657534246575 0.033155023992217626
          0.032374197819668674 0.03186684701746536 0.031611548382233845 0.03424657534246575 0.033617095367151587 0.03315501992155239
          0.03284916685460567 0.032693212048025534 0.03424657534246575 0.03424657534246575 0.03424657534246575 0.03424657534246575
          0.03424657534246575 0.030570574690988835 0.030910225525095796 0.031599988174124606 0.03268542766958106 0.03424657534246575
          0.03424657534246575 0.03268535883189516 0.03159989945933977 0.030910144932778858 0.030570582242025926 0.030561404862717745
        </DataArray>
        <DataArray type="Float64" Name="Density" format="ascii" RangeMin="1" RangeMax="1.1219341746268978">
          1 1.048778308272425 1.0853568606439394 1.10974112008622 1.1219307492607604 1
          1.0438958075716345 1.076817387086394 1.0987654179525974 1.1097378131198836 1 1.0341405662136702
          1.0597464713112503 1.0768176375781622 1.0853502679806613 1 1.0195070876690815 1.0341388094416009
          1.0438944725455868 1.048769478054001 1 1 1 1
          1 1.121932293430061 1.109742939091876 1.0853569703502515 1.04877662496088 1
          1 1.0487676090042952 1.0853472467943113 1.1097351890876457 1.1219330742322038 1.1219341746268978
        </DataArray>
        <DataArray type="Float64" Name="Momentum" NumberOfComponents="3" format="ascii" RangeMin="0" RangeMax="0.012812300255651232">
          0 0 0 -0.00974345759835624 0.0005055259448114645 0
          -0.012606980035985765 0.0017181793152328889 0 -0.009926763421254672 0.0029644903404123677 0
          -0.0036932893948326447 0.0037507116001770247 0 0 0 0
          -0.007923335929580192 0.0014633116908795841 0 -0.010174790120007623 0.004699702401992332 0
          -0.007977849355097768 0.007985093806196735 0 -0.0029404969463998915 0.010007875244143906 0
          0 0 0 -0.004825411097254592 0.001926296293852477 0
          -0.006101837179482509 0.006033466426943492 0 -0.004740492761312259 0.010157249998048786 0
          -0.0017190139583295053 0.01266438146707321 0 0 0 0
          -0.0016538234399245595 0.0015682336798379787 0 -0.002005630815154216 0.004739644420578308 0
          -0.0015181619141432538 0.007874610287812249 0 -0.0005200817270676686 0.009759311957538921 0
          0 0 0 0 0 0
          0 0 0 0 0 0
          0 0 0 0.0037642130639321284 0.0037566119283302395 0
          0.003062879933242612 0.010012029687921104 0 0.0018544119467402346 0.01267738909132112 0
          0.000635432378623738 0.009761525357064718 0 0 0 0
          0 0 0 -0.009734594295063277 -0.0006072282806541258 0
          -0.012623046164506302 -0.0018328449327967527 0 -0.009961138838325374 -0.003059027037941683 0
          -0.0037219362242656047 -0.003739986413895833 0 0.0037714626923071853 -0.0037201397548355837 0
          <InformationKey name="L2_NORM_RANGE" location="vtkDataArray" length="2">
            <Value index="0">
              0
            </Value>
            <Value index="1">
              0.012812300256
            </Value>
          </InformationKey>
        </DataArray>
        <DataArray type="Float64" Name="Energy" format="ascii" RangeMin="24.58904109589041" RangeMax="24.643066627584236">
          24.58904109589041 24.618877989322208 24.63459286323048 24.639116689767718 24.635263971736478 24.58904109589041
          24.621052108975036 24.638066231650487 24.643066627584236 24.63900817462912 24.58904109589041 24.61804694601444
          24.633496026728356 24.638072477788857 24.63436984902099 24.58904109589041 24.607921048995948 24.618001857200642
          24.621014546788814 24.618573164235283 24.58904109589041 24.58904109589041 24.58904109589041 24.58904109589041
          24.58904109589041 24.626059155611696 24.629175837653467 24.625513635742713 24.612879207363253 24.58904109589041
          24.58904109589041 24.612615517203228 24.625223217062782 24.628939154215537 24.62608218008504 24.618713606477968
        </DataArray>
      </PointData>
      <CellData>
        <DataArray type="UInt8" Name="vtkGhostType" format="ascii" RangeMin="0" RangeMax="1">
          0 0 0 0 0 0
          0 0 0 0 0 0
          0 0 0 0 0 0
          0 0 0 0 0 0
          0 0 0 0 0 0
          0 0 0 0 0 0
          0 0 0 0 1 1
          1 1 1 1 1 1
          1 1
        </DataArray>
      </CellData>
      <Points>
        <DataArray type="Float32" Name="Points" NumberOfComponents="3" format="ascii" RangeMin="0.6285393657376921" RangeMax="1.4142135623730951">
          0.5555555820465088 1 0 0.5555555820465088 0.8888888955116272 0
          0.5555555820465088 0.7777777910232544 0 0.5555555820465088 0.6666666865348816 0
          0.5555555820465088 0.5555555820465088 0 0.6666666865348816 1 0
          0.6666666865348816 0.8888888955116272 0 0.6666666865348816 0.7777777910232544 0
          0.6666666865348816 0.6666666865348816 0 0.6666666865348816 0.5555555820465088 0
          0.7777777910232544 1 0 0.7777777910232544 0.8888888955116272 0
          0.7777777910232544 0.7777777910232544 0 0.7777777910232544 0.6666666865348816 0
          0.7777777910232544 0.5555555820465088 0 0.8888888955116272 1 0
          0.8888888955116272 0.8888888955116272 0 0.8888888955116272 0.7777777910232544 0
          0.8888888955116272 0.6666666865348816 0 0.8888888955116272 0.5555555820465088 0
          1 1 0 1 0.8888888955116272 0
          1 0.7777777910232544 0 1 0.6666666865348816 0
          1 0.5555555820465088 0 0.5555555820465088 0.4444444477558136 0
          0.6666666865348816 0.4444444477558136 0 0.7777777910232544 0.4444444477558136 0
          0.8888888955116272 0.4444444477558136 0 1 0.4444444477558136 0
          0.4444444477558136 1 0 0.4444444477558136 0.8888888955116272 0
          0.4444444477558136 0.7777777910232544 0 0.4444444477558136 0.6666666865348816 0
          0.4444444477558136 0.5555555820465088 0 0.4444444477558136 0.4444444477558136 0
          <InformationKey name="L2_NORM_RANGE" location="vtkDataArray" length="2">
            <Value index="0">
              0.62853936574
            </Value>
            <Value index="1">
              1.4142135624
            </Value>
          </InformationKey>
        </DataArray>
      </Points>
      <Cells>
        <DataArray type="Int64" Name="connectivity" format="ascii" RangeMin="0" RangeMax="35">
          0 1 5 1 6 5
          1 2 6 2 7 6
          2 3 7 3 8 7
          3 4 8 4 9 8
          5 6 10 6 11 10
          6 7 11 7 12 11
          7 8 12 8 13 12
          8 9 13 9 14 13
          10 11 15 11 16 15
          11 12 16 12 17 16
          12 13 17 13 18 17
          13 14 18 14 19 18
          15 16 20 16 21 20
          16 17 21 17 22 21
          17 18 22 18 23 22
          18 19 23 19 24 23
          25 9 4 25 26 9
          26 14 9 26 27 14
          27 19 14 27 28 19
          28 24 19 28 29 24
          31 0 30 31 1 0
          32 1 31 32 2 1
          33 2 32 33 3 2
          34 3 33 34 4 3
          35 4 34 35 25 4
        </DataArray>
        <DataArray type="Int64" Name="offsets" format="ascii" RangeMin="3" RangeMax="150">
          3 6 9 12 15 18
          21 24 27 30 33 36
          39 42 45 48 51 54
          57 60 63 66 69 72
          75 78 81 84 87 90
          93 96 99 102 105 108
          111 114 117 120 123 126
          129 132 135 138 141 144
          147 150
        </DataArray>
        <DataArray type="UInt8" Name="types" format="ascii" RangeMin="5" RangeMax="5">
          5 5 5 5 5 5
          5 5 5 5 5 5
          5 5 5 5 5 5
          5 5 5 5 5 5
          5 5 5 5 5 5
          5 5 5 5 5 5
          5 5 5 5 5 5
          5 5 5 5 5 5
          5 5
        </DataArray>
      </Cells>
    </Piece>
  </UnstructuredGrid>
</VTKFile>
