<?xml version="1.0"?>
<VTKFile type="UnstructuredGrid" version="0.1" byte_order="LittleEndian" header_type="UInt32" compressor="vtkZLibDataCompressor">
  <UnstructuredGrid>
    <Piece NumberOfPoints="36" NumberOfCells="49">
      <PointData>
        <DataArray type="Float64" Name="Velocity" NumberOfComponents="3" format="ascii" RangeMin="0" RangeMax="0.011816733459551223">
          0.003348036999111318 0.0033451420624654184 0 0.009012576013797697 0.0027270523715910047 0
          0.011685723964731859 0.0016678869271318153 0 0.009340074641746042 0.0005698807115690113 0
          0 0 0 0.0027310079658964892 0.009028159220714966 0
          0.007320849012778687 0.0073124624463910765 0 0.009462243022430372 0.004445411633310521 0
          0.007561920046322555 0.0014794911133313824 0 0 0 0
          0.0016672481420153661 0.011697574996577581 0 0.004451047315024433 0.009475120851661006 0
          0.005738305622005925 0.005726616484146839 0 0.004553599692550923 0.0018822799626923184 0
          0 0 0 0.000565685290299252 0.009341426527910398 0
          0.00148148770786897 0.00756903734847553 0 0.001899272052141818 0.004573269289792813 0
          0.0014785101018693683 0.0014821076243189668 0 0 0 0
          0 0 0 0 0 0
          0 0 0 0 0 0
          0 0 0 -0.0033237959339812084 0.0033452246567649687 0
          -0.002685216351192341 0.009027672788725672 0 -0.0016167582840948872 0.011692267380436503 0
          -0.0005185013689188035 0.009340107530718816 0 0 0 0
          0.003352874310751803 -0.003333540658123411 0 0.009040242306364582 -0.0026945335664858524 0
          0.011705544248546694 -0.0016172271019843842 0 0.009350098071300364 -0.0005057029995970577 0
          0 0 0 -0.0033341771874204483 -0.003339793355652232 0
          <InformationKey name="L2_NORM_RANGE" location="vtkDataArray" length="2">
            <Value index="0">
              0
            </Value>
            <Value index="1">
              0.01181673346
            </Value>
          </InformationKey>
        </DataArray>
        <DataArray type="Float64" Name="Pressure" format="ascii" RangeMin="10" RangeMax="10.020311375941047">
          10.015049157935595 10.010135623342297 10.005230673537499 10.001475527522707 10 10.016280369123816
          10.010978324864803 10.005695483468845 10.001636012277272 10 10.01477454474899 10.009961105137169
          10.005165693992256 10.001487149213993 10 10.00964686756335 10.006494471252429 10.003364683200779
          10.000967176943089 10 10 10 10 10
          10 10.018803582158252 10.020311375941047 10.018422597015654 10.01201901535509 10
          10.012054336537638 10.008137530674277 10.00423213287157 10.001233360608149 10 10.015056609571504
        </DataArray>
        <DataArray type="Float64" Name="Temperature" format="ascii" RangeMin="0.03056139759138064" RangeMax="0.03424657534246575">
          0.0305705737803668 0.030891351958225375 0.03156999500072456 0.03265883457842719 0.03424657534246575 0.030910207563045463
          0.031202439805635848 0.031821612165191866 0.03281185877529002 0.03424657534246575 0.0315999688358696 0.03183517743208852
          0.03233249166722728 0.033120859711412674 0.03424657534246575 0.03268540932618184 0.0328278284185767 0.03312711434304126
          0.03359447662208073 0.03424657534246575 0.03424657534246575 0.03424657534246575 0.03424657534246575 0.03424657534246575
          0.03424657534246575 0.03058205308321622 0.03092272001795156 0.03161156990003236 0.03269324238926252 0.03424657534246575
          0.03056139759138064 0.030885111272764693 0.031566720751926854 0.03265790602786854 0.03424657534246575 0.030570580026764976
        </DataArray>
        <DataArray type="Float64" Name="Density" format="ascii" RangeMin="1" RangeMax="1.121933550793504">
          1.1219322804010003 1.1097373280285077 1.085349826859926 1.0487706913319654 1 1.1097411740533218
          1.0987657554661778 1.0768178634368666 1.043896304650436 1 1.0853546494490276 1.0768178939587028
          1.0597471555230227 1.034141885738059 1 1.0487741554054708 1.0438953270201452 1.034140730622858
          1.0195094859658964 1 1 1 1 1
          1 1.1219315811927975 1.109738562105521 1.0853515512401262 1.0487713621582222 1
          1.121933550793504 1.1097400069406158 1.0853540732798161 1.0487751159225291 1 1.1219328859264859
        </DataArray>
        <DataArray type="Float64" Name="Momentum" NumberOfComponents="3" format="ascii" RangeMin="0" RangeMax="0.012825339793185812">
          0.003756270785279883 0.0037530228624071326 0 0.010001592024205674 0.0030263118122432066 0
          0.01268309848185461 0.0018102407875844498 0 0.009795596539116156 0.0005976741878489844 0
          0 0 0 0.0030307119864229444 0.01001892001313655 0
          0.008043898196179596 0.008034683324226946 0 0.010189112314733873 0.004786898657078827 0
          0.007893860392418168 0.0015444353059697893 0 0 0 0
          0.0018095555227216303 0.01269601740981417 0 0.0047929673956751484 0.010202979680489794 0
          0.006081153060442548 0.006068765529845866 0 0.004709068172950858 0.0019465445501055977 0
          0 0 0 0.0005932761125588966 0.009797046717091487 0
          0.0015465180952822038 0.007901282718114556 0 0.0019641145876535147 0.004729404044681419 0
          0.001507355073952225 0.0015110227822155659 0 0 0 0
          0 0 0 0 0 0
          0 0 0 0 0 0
          0 0 0 -0.003729071627773728 0.0037531131886094546 0
          -0.002979888132514422 0.010018356619719565 0 -0.0017547511116227103 0.012690220538871085 0
          -0.0005437893869618764 0.009795637297696242 0 0 0 0
          0.0037617021808260924 -0.0037400111072829127 0 0.01003231855980988 -0.0029902316987737323 0
          0.01270466013011728 -0.001755264022557264 0 0.009806150188615055 -0.0005303687220247748 0
          0 0 0 -0.0037407230340728774 -0.0037470239979050107 0
          <InformationKey name="L2_NORM_RANGE" location="vtkDataArray" length="2">
            <Value index="0">
              0
            </Value>
            <Value index="1">
              0.012825339793
            </Value>
          </InformationKey>
        </DataArray>
        <DataArray type="Float64" Name="Energy" format="ascii" RangeMin="24.58904109589041" RangeMax="24.63903404370815">
          24.626058097448205 24.61401281828962 24.6019784357801 24.59271519268272 24.58904109589041 24.62912232708642
          24.616094564759003 24.603104589393993 24.59309488206206 24.58904109589041 24.62544604948796 24.61359350234333
          24.601777866580605 24.592710406780867 24.58904109589041 24.612807745186426 24.60504142606839 24.59732720885338
          24.591421525319515 24.58904109589041 24.58904109589041 24.58904109589041 24.58904109589041 24.58904109589041
          24.58904109589041 24.635289776174282 24.63903404370815 24.634416102631533 24.61864058927087 24.58904109589041
          24.61869409353803 24.609099879442482 24.599523281611575 24.592119789695907 24.58904109589041 24.62607634830189
        </DataArray>
      </PointData>
      <CellData>
        <DataArray type="UInt8" Name="vtkGhostType" format="ascii" RangeMin="0" RangeMax="1">
          0 0 0 0 0 0
          0 0 0 0 0 0
          0 0 0 0 0 0
          0 0 0 0 0 0
          0 0 0 0 0 0
          0 0 1 1 1 1
          1 1 1 1 1 1
          1 1 1 1 1 1
          1
        </DataArray>
      </CellData>
      <Points>
        <DataArray type="Float32" Name="Points" NumberOfComponents="3" format="ascii" RangeMin="0.4444444477558136" RangeMax="1.1439589174192555">
          0.5555555820465088 0.4444444477558136 0 0.5555555820465088 0.3333333432674408 0
          0.5555555820465088 0.2222222238779068 0 0.5555555820465088 0.1111111119389534 0
          0.5555555820465088 0 0 0.6666666865348816 0.4444444477558136 0
          0.6666666865348816 0.3333333432674408 0 0.6666666865348816 0.2222222238779068 0
          0.6666666865348816 0.1111111119389534 0 0.6666666865348816 0 0
          0.7777777910232544 0.4444444477558136 0 0.7777777910232544 0.3333333432674408 0
          0.7777777910232544 0.2222222238779068 0 0.7777777910232544 0.1111111119389534 0
          0.7777777910232544 0 0 0.8888888955116272 0.4444444477558136 0
          0.8888888955116272 0.3333333432674408 0 0.8888888955116272 0.2222222238779068 0
          0.8888888955116272 0.1111111119389534 0 0.8888888955116272 0 0
          1 0.4444444477558136 0 1 0.3333333432674408 0
          1 0.2222222238779068 0 1 0.1111111119389534 0
          1 0 0 0.5555555820465088 0.5555555820465088 0
          0.6666666865348816 0.5555555820465088 0 0.7777777910232544 0.5555555820465088 0
          0.8888888955116272 0.5555555820465088 0 1 0.5555555820465088 0
          0.4444444477558136 0.4444444477558136 0 0.4444444477558136 0.3333333432674408 0
          0.4444444477558136 0.2222222238779068 0 0.4444444477558136 0.1111111119389534 0
          0.4444444477558136 0 0 0.4444444477558136 0.5555555820465088 0
          <InformationKey name="L2_NORM_RANGE" location="vtkDataArray" length="2">
            <Value index="0">
              0.44444444776
            </Value>
            <Value index="1">
              1.1439589174
            </Value>
          </InformationKey>
        </DataArray>
      </Points>
      <Cells>
        <DataArray type="Int64" Name="connectivity" format="ascii" RangeMin="0" RangeMax="34">
          0 1 5 1 6 5
          1 2 6 2 7 6
          2 3 7 3 8 7
          3 4 8 4 9 8
          5 6 10 6 11 10
          6 7 11 7 12 11
          7 8 12 8 13 12
          8 9 13 9 14 13
          10 11 15 11 16 15
          11 12 16 12 17 16
          12 13 17 13 18 17
          13 14 18 14 19 18
          15 16 20 16 21 20
          16 17 21 17 22 21
          17 18 22 18 23 22
          18 19 23 19 24 23
          0 26 25 0 5 26
          5 27 26 5 10 27
          10 28 27 10 15 28
          15 29 28 15 20 29
          31 0 30 31 1 0
          32 1 31 32 2 1
          33 2 32 33 3 2
          34 3 33 34 4 3
          30 0 25
        </DataArray>
        <DataArray type="Int64" Name="offsets" format="ascii" RangeMin="3" RangeMax="147">
          3 6 9 12 15 18
          21 24 27 30 33 36
          39 42 45 48 51 54
          57 60 63 66 69 72
          75 78 81 84 87 90
          93 96 99 102 105 108
          111 114 117 120 123 126
          129 132 135 138 141 144
          147
        </DataArray>
        <DataArray type="UInt8" Name="types" format="ascii" RangeMin="5" RangeMax="5">
          5 5 5 5 5 5
          5 5 5 5 5 5
          5 5 5 5 5 5
          5 5 5 5 5 5
          5 5 5 5 5 5
          5 5 5 5 5 5
          5 5 5 5 5 5
          5 5 5 5 5 5
          5
        </DataArray>
      </Cells>
    </Piece>
  </UnstructuredGrid>
</VTKFile>
