<?xml version="1.0"?>
<VTKFile type="UnstructuredGrid" version="0.1" byte_order="LittleEndian" header_type="UInt32" compressor="vtkZLibDataCompressor">
  <UnstructuredGrid>
    <Piece NumberOfPoints="36" NumberOfCells="50">
      <PointData>
        <DataArray type="Float64" Name="Velocity" NumberOfComponents="3" format="ascii" RangeMin="0" RangeMax="0.011819171622407386">
          0 0 0 -0.009349076503068864 0.0005228082801975748 0
          -0.011688243210744695 0.001628133556007059 0 -0.009013680179715548 0.002701989652824215 0
          -0.0033344985941054684 0.003345373878974247 0 0 0 0
          -0.007588585472637939 0.0014357493265654726 0 -0.009477078074952742 0.004413035739386696 0
          -0.007304927757741454 0.007306067475994626 0 -0.0026973245686091403 0.009030060396841061 0
          0 0 0 -0.0046058895109347625 0.001871388650214351 0
          -0.00574103781381082 0.0057275927112396385 0 -0.004420994515527606 0.009473357792229277 0
          -0.0016279153947414723 0.01170021796472128 0 0 0 0
          -0.0015282795769257244 0.0015099700498935622 0 -0.0018885999566334525 0.00458786459272507 0
          -0.001447781547528725 0.00757761344722955 0 -0.0005266784671829907 0.00935297202872443 0
          0 0 0 0 0 0
          0 0 0 0 0 0
          0 0 0 0.003346408769060015 0.003344870807164288 0
          0.0027205616339198682 0.009030157545550217 0 0.00165321120995173 0.011702978703527149 0
          0.0005508667368048044 0.009353711694162357 0 0 0 0
          0 0 0 -0.009349850591464072 -0.0005440486202052728 0
          -0.011692705894626412 -0.0016484105660610627 0 -0.009019883105584305 -0.0027211405772721844 0
          -0.0033397451600800285 -0.003342325890238426 0 0.0033492179927059394 -0.0033393819403164924 0
          <InformationKey name="L2_NORM_RANGE" location="vtkDataArray" length="2">
            <Value index="0">
              0
            </Value>
            <Value index="1">
              0.011819171622
            </Value>
          </InformationKey>
        </DataArray>
        <DataArray type="Float64" Name="Pressure" format="ascii" RangeMin="10" RangeMax="10.021941879571054">
          10 10.012058948119847 10.01844907634184 10.02032264522393 10.01880956910989 10
          10.013000447558436 10.01990907329471 10.021941879571054 10.020316424759843 10 10.01179433403567
          10.018067201874256 10.01991223574458 10.018430953630306 10 10.00770385586326 10.01180241235735
          10.013005406789688 10.012030347143059 10 10 10 10
          10 10.015050693452132 10.016270044983779 10.014763829125084 10.009639793310502 10
          10 10.009621359154387 10.014739802825423 10.016248086343035 10.01505510308129 10.012049290429301
        </DataArray>
        <DataArray type="Float64" Name="Temperature" format="ascii" RangeMin="0.03056139305585406" RangeMax="0.03424657534246575">
          0.03424657534246575 0.03269328325273808 0.03161159707948998 0.030922731438548165 0.030582058347828133 0.03424657534246575
          0.032849171526220036 0.03186684034823197 0.03123663375350414 0.030922725080194068 0.03424657534246575 0.03315503291427471
          0.03237419904394748 0.03186684313129472 0.03161157877988217 0.03424657534246575 0.03361712245075791 0.033155043451228466
          0.03284917783818975 0.032693254331842544 0.03424657534246575 0.03424657534246575 0.03424657534246575 0.03424657534246575
          0.03424657534246575 0.030570574954775193 0.030910198654610213 0.031599960574049825 0.032685405233247804 0.03424657534246575
          0.03424657534246575 0.03268539339680539 0.03159994159688522 0.03091017977802277 0.030570578679510567 0.03056139305585406
        </DataArray>
        <DataArray type="Float64" Name="Density" format="ascii" RangeMin="1" RangeMax="1.1219331518380808">
          1 1.0487742342955981 1.0853534867120125 1.10973940030955 1.1219320584897963 1
          1.0438953504740403 1.0768170526271892 1.0987649641281871 1.1097389395854997 1 1.0341406381961507
          1.059746660447537 1.0768172984456508 1.0853521516778548 1 1.019508985657335 1.0341411439651491
          1.043895666909139 1.0487721660689269 1 1 1 1
          1 1.121932409316194 1.109740350034465 1.0853537719056023 1.0487735455207308 1
          1 1.0487719938513556 1.08535181984785 1.109738594861441 1.1219327666064012 1.1219331518380808
        </DataArray>
        <DataArray type="Float64" Name="Momentum" NumberOfComponents="3" format="ascii" RangeMin="0" RangeMax="0.012827982501179513">
          0 0 0 -0.009805070550877017 0.0005483078537476101 0
          -0.012685875522319763 0.001767100431845089 0 -0.010002836037219609 0.0029985043769677534 0
          -0.00374108087171608 0.0037532822024555716 0 0 0 0
          -0.007921689091561592 0.0014987720464479312 0 -0.010205079280188368 0.004752032138024831 0
          -0.008026398685693787 0.00802765096817935 0 -0.0029933261064862228 0.010021009649183416 0
          0 0 0 -0.004763137518299032 0.0019352790530457018 0
          -0.006084045650689045 0.006069797248139861 0 -0.004760603370653475 0.010201075545037385 0
          -0.0017668614764321613 0.012698856743110132 0 0 0 0
          -0.0015580947612723662 0.001539428033939941 0 -0.0019530789196454497 0.004744499538277907 0
          -0.001511332884096244 0.007910237843075351 0 -0.0005523657168493674 0.009809136733747406 0
          0 0 0 0 0 0
          0 0 0 0 0 0
          0 0 0 0.0037544444528283412 0.003752718963533232 0
          0.0030191170199165705 0.010021130195465262 0 0.0017943190224777347 0.012701872078404126 0
          0.0005777344606682098 0.009809925377265376 0 0 0 0
          0 0 0 -0.00980586144702205 -0.0005705829561647629 0
          -0.01269069962167846 -0.001789105407730799 0 -0.010009712403405579 -0.0030197547206424844 0
          -0.0037469695272089247 -0.0037498649329354003 0 0.003757598698749385 -0.003746563305490448 0
          <InformationKey name="L2_NORM_RANGE" location="vtkDataArray" length="2">
            <Value index="0">
              0
            </Value>
            <Value index="1">
              0.012827982501
            </Value>
          </InformationKey>
        </DataArray>
        <DataArray type="Float64" Name="Energy" format="ascii" RangeMin="24.58904109589041" RangeMax="24.643052715150887">
          24.58904109589041 24.61873887048692 24.63448118186246 24.639061663895617 24.6353045380549 24.58904109589041
          24.6210390829562 24.63805444064326 24.643052715150887 24.639046518371753 24.58904109589041 24.61805501239278
          24.633501459859104 24.638062216713813 24.63443677136201 24.58904109589041 24.607986491579577 24.618074823992064
          24.62105120849471 24.618668583670576 24.58904109589041 24.58904109589041 24.58904109589041 24.58904109589041
          24.58904109589041 24.626061866004996 24.629096929403417 24.625419744062725 24.6127904620114 24.58904109589041
          24.58904109589041 24.61274509233713 24.625360526531644 24.62904283397871 24.626072674324277 24.61868169375616
        </DataArray>
      </PointData>
      <CellData>
        <DataArray type="UInt8" Name="vtkGhostType" format="ascii" RangeMin="0" RangeMax="1">
          0 0 0 0 0 0
          0 0 0 0 0 0
          0 0 0 0 0 0
          0 0 0 0 0 0
          0 0 0 0 0 0
          0 0 0 0 0 0
          0 0 0 0 1 1
          1 1 1 1 1 1
          1 1
        </DataArray>
      </CellData>
      <Points>
        <DataArray type="Float32" Name="Points" NumberOfComponents="3" format="ascii" RangeMin="0.6285393657376921" RangeMax="1.4142135623730951">
          0.5555555820465088 1 0 0.5555555820465088 0.8888888955116272 0
          0.5555555820465088 0.7777777910232544 0 0.5555555820465088 0.6666666865348816 0
          0.5555555820465088 0.5555555820465088 0 0.6666666865348816 1 0
          0.6666666865348816 0.8888888955116272 0 0.6666666865348816 0.7777777910232544 0
          0.6666666865348816 0.6666666865348816 0 0.6666666865348816 0.5555555820465088 0
          0.7777777910232544 1 0 0.7777777910232544 0.8888888955116272 0
          0.7777777910232544 0.7777777910232544 0 0.7777777910232544 0.6666666865348816 0
          0.7777777910232544 0.5555555820465088 0 0.8888888955116272 1 0
          0.8888888955116272 0.8888888955116272 0 0.8888888955116272 0.7777777910232544 0
          0.8888888955116272 0.6666666865348816 0 0.8888888955116272 0.5555555820465088 0
          1 1 0 1 0.8888888955116272 0
          1 0.7777777910232544 0 1 0.6666666865348816 0
          1 0.5555555820465088 0 0.5555555820465088 0.4444444477558136 0
          0.6666666865348816 0.4444444477558136 0 0.7777777910232544 0.4444444477558136 0
          0.8888888955116272 0.4444444477558136 0 1 0.4444444477558136 0
          0.4444444477558136 1 0 0.4444444477558136 0.8888888955116272 0
          0.4444444477558136 0.7777777910232544 0 0.4444444477558136 0.6666666865348816 0
          0.4444444477558136 0.5555555820465088 0 0.4444444477558136 0.4444444477558136 0
          <InformationKey name="L2_NORM_RANGE" location="vtkDataArray" length="2">
            <Value index="0">
              0.62853936574
            </Value>
            <Value index="1">
              1.4142135624
            </Value>
          </InformationKey>
        </DataArray>
      </Points>
      <Cells>
        <DataArray type="Int64" Name="connectivity" format="ascii" RangeMin="0" RangeMax="35">
          0 1 5 1 6 5
          1 2 6 2 7 6
          2 3 7 3 8 7
          3 4 8 4 9 8
          5 6 10 6 11 10
          6 7 11 7 12 11
          7 8 12 8 13 12
          8 9 13 9 14 13
          10 11 15 11 16 15
          11 12 16 12 17 16
          12 13 17 13 18 17
          13 14 18 14 19 18
          15 16 20 16 21 20
          16 17 21 17 22 21
          17 18 22 18 23 22
          18 19 23 19 24 23
          25 9 4 25 26 9
          26 14 9 26 27 14
          27 19 14 27 28 19
          28 24 19 28 29 24
          31 0 30 31 1 0
          32 1 31 32 2 1
          33 2 32 33 3 2
          34 3 33 34 4 3
          35 4 34 35 25 4
        </DataArray>
        <DataArray type="Int64" Name="offsets" format="ascii" RangeMin="3" RangeMax="150">
          3 6 9 12 15 18
          21 24 27 30 33 36
          39 42 45 48 51 54
          57 60 63 66 69 72
          75 78 81 84 87 90
          93 96 99 102 105 108
          111 114 117 120 123 126
          129 132 135 138 141 144
          147 150
        </DataArray>
        <DataArray type="UInt8" Name="types" format="ascii" RangeMin="5" RangeMax="5">
          5 5 5 5 5 5
          5 5 5 5 5 5
          5 5 5 5 5 5
          5 5 5 5 5 5
          5 5 5 5 5 5
          5 5 5 5 5 5
          5 5 5 5 5 5
          5 5 5 5 5 5
          5 5
        </DataArray>
      </Cells>
    </Piece>
  </UnstructuredGrid>
</VTKFile>
