<?xml version="1.0"?>
<VTKFile type="UnstructuredGrid" version="0.1" byte_order="LittleEndian" header_type="UInt32" compressor="vtkZLibDataCompressor">
  <UnstructuredGrid>
    <Piece NumberOfPoints="36" NumberOfCells="49">
      <PointData>
        <DataArray type="Float64" Name="Velocity" NumberOfComponents="3" format="ascii" RangeMin="0" RangeMax="0.011800457709431248">
          0 0 0 0 0 0
          0 0 0 0 0 0
          0 0 0 0 0 0
          -0.001507189245731559 -0.001490775893222016 0 -0.0018853729306132932 -0.004553149535337956 0
          -0.0014601803994445813 -0.00755150267120478 0 -0.00056111094468505 -0.009337214330011596 0
          0 0 0 -0.004554651034942392 -0.001905250161479983 0
          -0.005741440653165134 -0.005731938905930053 0 -0.0044343567860613215 -0.009457909655323999 0
          -0.0016532849086368174 -0.011676827510167544 0 0 0 0
          -0.007538188989213788 -0.0014703515585894542 0 -0.00945935957263066 -0.004448548797371145 0
          -0.007320580924637911 -0.00731184114794076 0 -0.0027158354683019625 -0.009005173741610292 0
          0 0 0 -0.009332910543659534 -0.0005528559747429288 0
          -0.011677080036513415 -0.0016581639732593779 0 -0.009008334177832653 -0.002731366538540614 0
          -0.0033341771874204483 -0.003339793355652232 0 0 0 0
          0.0005053982230756898 -0.009353737048925233 0 0.001616939170885574 -0.011689153513823457 0
          0.0026984615441529784 -0.009011482296385494 0 0.003352874310751803 -0.003333540658123411 0
          0 0 0 -0.009332862957781754 0.0005114208513306263 0
          -0.011669012880243973 0.0016169354185284583 0 -0.0089957827449254 0.0026943396917439577 0
          -0.0033237959339812084 0.0033452246567649687 0 0.003348036999111318 0.0033451420624654184 0
          <InformationKey name="L2_NORM_RANGE" location="vtkDataArray" length="2">
            <Value index="0">
              0
            </Value>
            <Value index="1">
              0.011800457709
            </Value>
          </InformationKey>
        </DataArray>
        <DataArray type="Float64" Name="Pressure" format="ascii" RangeMin="10" RangeMax="10.020325479967694">
          10 10 10 10 10 10
          10.000970065625998 10.00147150258501 10.001617324778259 10.001517716335673 10 10.003383211821887
          10.005171378561908 10.005696574565958 10.005285478219216 10 10.006511315177274 10.00995638330134
          10.010982499066102 10.010179799056772 10 10.009608414213991 10.01472650826096 10.016237853233628
          10.015056609571504 10 10.001180976225555 10.004202715769635 10.008126506727193 10.012054336537638
          10 10.012074313608231 10.018458986932641 10.020325479967694 10.018803582158252 10.015049157935595
        </DataArray>
        <DataArray type="Float64" Name="Temperature" format="ascii" RangeMin="0.03056139759138064" RangeMax="0.03424657534246575">
          0.03424657534246575 0.03424657534246575 0.03424657534246575 0.03424657534246575 0.03424657534246575 0.03424657534246575
          0.03359447945053229 0.03312083586719233 0.0328118269706422 0.03265886303316653 0.03424657534246575 0.033127141135571754
          0.03233249651513716 0.031821606797823934 0.03157003833915749 0.03424657534246575 0.0328278586126807 0.03183517859980523
          0.031202442876861098 0.03089138886476298 0.03424657534246575 0.032685384611785696 0.031599931315012375 0.030910171213941785
          0.030570580026764976 0.03424657534246575 0.0326578512446633 0.03156668887185535 0.030885098921124992 0.03056139759138064
          0.03424657534246575 0.03269329874786651 0.031611606965117535 0.030922734342205146 0.03058205308321622 0.0305705737803668
        </DataArray>
        <DataArray type="Float64" Name="Density" format="ascii" RangeMin="1" RangeMax="1.121933550793504">
          1 1 1 1 1 1
          1.0195096946048339 1.034141012389362 1.0438953660397945 1.0487742015502917 1 1.0341418097058577
          1.0597475987348723 1.0768181624887554 1.0853542820304891 1 1.0438961240623879 1.0768173465112039
          1.098766105459697 1.109740899578219 1 1.0487709194107315 1.0853507321910254 1.10973776856372
          1.1219328859264859 1 1.0487713819564706 1.0853519779591894 1.109739228373101 1.121933550793504
          1 1.0487753467756933 1.08535422096697 1.1097396100492178 1.1219315811927975 1.1219322804010003
        </DataArray>
        <DataArray type="Float64" Name="Momentum" NumberOfComponents="3" format="ascii" RangeMin="0" RangeMax="0.01280765011575497">
          0 0 0 0 0 0
          0 0 0 0 0 0
          0 0 0 0 0 0
          -0.0015365940476274715 -0.001519860475623026 0 -0.0019497414711959293 -0.0047085986700345465 0
          -0.0015242755525623345 -0.0078829786451078 0 -0.0005884786829931932 -0.009792629503661852 0
          0 0 0 -0.004710155063853983 -0.001970298849935287 0
          -0.006084477945470528 -0.006074408491654365 0 -0.0047749959261860955 -0.010184448896030646 0
          -0.0017943998550053557 -0.01267349473869176 0 0 0 0
          -0.007869086268290042 -0.0015348942930206223 0 -0.010186002474695503 -0.0047902745118108036 0
          -0.008043606192266945 -0.00803400322186283 0 -0.0030138736956998534 -0.009993409608872761 0
          0 0 0 -0.00978808517165192 -0.0005798192689328576 0
          -0.012673727367483041 -0.0017996894824698457 0 -0.009996888668984301 -0.0030311006076096728 0
          -0.0037407230340728774 -0.0037470239979050107 0 0 0 0
          0.0005300471928534358 -0.009809931731258756 0 0.0017549481273603496 -0.012686845886896897 0
          0.0029945886318028126 -0.010000395410088698 0 0.0037617021808260924 -0.0037400111072829127 0
          0 0 0 -0.009788076584957582 0.0005363655807025979 0
          -0.012665012384090735 0.0017549476815308565 0 -0.009982976435440995 0.0029900154788560693 0
          -0.003729071627773728 0.0037531131886094546 0 0.003756270785279883 0.0037530228624071326 0
          <InformationKey name="L2_NORM_RANGE" location="vtkDataArray" length="2">
            <Value index="0">
              0
            </Value>
            <Value index="1">
              0.012807650116
            </Value>
          </InformationKey>
        </DataArray>
        <DataArray type="Float64" Name="Energy" format="ascii" RangeMin="24.58904109589041" RangeMax="24.639068432514616">
          24.58904109589041 24.58904109589041 24.58904109589041 24.58904109589041 24.58904109589041 24.58904109589041
          24.591428685099437 24.59267193711578 24.59304881946 24.592818897866568 24.58904109589041 24.59737269285528
          24.601791895792225 24.603107175317792 24.60211305643789 24.58904109589041 24.605082583285483 24.613581719121687
          24.61610482159031 24.614121334413337 24.58904109589041 24.612713101027754 24.625327655727727 24.629017587117808
          24.62607634830189 24.58904109589041 24.59199101688815 24.599450739034577 24.609072496262737 24.61869409353803
          24.58904109589041 24.618776487785123 24.634505287632784 24.639068432514616 24.635289776174282 24.626058097448205
        </DataArray>
      </PointData>
      <CellData>
        <DataArray type="UInt8" Name="vtkGhostType" format="ascii" RangeMin="0" RangeMax="0">
          0 0 0 0 0 0
          0 0 0 0 0 0
          0 0 0 0 0 0
          0 0 0 0 0 0
          0 0 0 0 0 0
          0 0 0 0 0 0
          0 0 0 0 0 0
          0 0 0 0 0 0
          0
        </DataArray>
      </CellData>
      <Points>
        <DataArray type="Float32" Name="Points" NumberOfComponents="3" format="ascii" RangeMin="0.4444444477558136" RangeMax="1.1439589174192555">
          0 1 0 0 0.8888888955116272 0
          0 0.7777777910232544 0 0 0.6666666865348816 0
          0 0.5555555820465088 0 0.1111111119389534 1 0
          0.1111111119389534 0.8888888955116272 0 0.1111111119389534 0.7777777910232544 0
          0.1111111119389534 0.6666666865348816 0 0.1111111119389534 0.5555555820465088 0
          0.2222222238779068 1 0 0.2222222238779068 0.8888888955116272 0
          0.2222222238779068 0.7777777910232544 0 0.2222222238779068 0.6666666865348816 0
          0.2222222238779068 0.5555555820465088 0 0.3333333432674408 1 0
          0.3333333432674408 0.8888888955116272 0 0.3333333432674408 0.7777777910232544 0
          0.3333333432674408 0.6666666865348816 0 0.3333333432674408 0.5555555820465088 0
          0.4444444477558136 1 0 0.4444444477558136 0.8888888955116272 0
          0.4444444477558136 0.7777777910232544 0 0.4444444477558136 0.6666666865348816 0
          0.4444444477558136 0.5555555820465088 0 0 0.4444444477558136 0
          0.1111111119389534 0.4444444477558136 0 0.2222222238779068 0.4444444477558136 0
          0.3333333432674408 0.4444444477558136 0 0.4444444477558136 0.4444444477558136 0
          0.5555555820465088 1 0 0.5555555820465088 0.8888888955116272 0
          0.5555555820465088 0.7777777910232544 0 0.5555555820465088 0.6666666865348816 0
          0.5555555820465088 0.5555555820465088 0 0.5555555820465088 0.4444444477558136 0
          <InformationKey name="L2_NORM_RANGE" location="vtkDataArray" length="2">
            <Value index="0">
              0.44444444776
            </Value>
            <Value index="1">
              1.1439589174
            </Value>
          </InformationKey>
        </DataArray>
      </Points>
      <Cells>
        <DataArray type="Int64" Name="connectivity" format="ascii" RangeMin="0" RangeMax="34">
          0 1 5 1 6 5
          1 2 6 2 7 6
          2 3 7 3 8 7
          3 4 8 4 9 8
          5 6 10 6 11 10
          6 7 11 7 12 11
          7 8 12 8 13 12
          8 9 13 9 14 13
          10 11 15 11 16 15
          11 12 16 12 17 16
          12 13 17 13 18 17
          13 14 18 14 19 18
          15 16 20 16 21 20
          16 17 21 17 22 21
          17 18 22 18 23 22
          18 19 23 19 24 23
          25 9 4 25 26 9
          26 14 9 26 27 14
          27 19 14 27 28 19
          28 24 19 28 29 24
          21 30 20 21 31 30
          22 31 21 22 32 31
          23 32 22 23 33 32
          24 33 23 24 34 33
          29 34 24
        </DataArray>
        <DataArray type="Int64" Name="offsets" format="ascii" RangeMin="3" RangeMax="147">
          3 6 9 12 15 18
          21 24 27 30 33 36
          39 42 45 48 51 54
          57 60 63 66 69 72
          75 78 81 84 87 90
          93 96 99 102 105 108
          111 114 117 120 123 126
          129 132 135 138 141 144
          147
        </DataArray>
        <DataArray type="UInt8" Name="types" format="ascii" RangeMin="5" RangeMax="5">
          5 5 5 5 5 5
          5 5 5 5 5 5
          5 5 5 5 5 5
          5 5 5 5 5 5
          5 5 5 5 5 5
          5 5 5 5 5 5
          5 5 5 5 5 5
          5 5 5 5 5 5
          5
        </DataArray>
      </Cells>
    </Piece>
  </UnstructuredGrid>
</VTKFile>
