<?xml version="1.0"?>
<VTKFile type="UnstructuredGrid" version="0.1" byte_order="LittleEndian" header_type="UInt32" compressor="vtkZLibDataCompressor">
  <UnstructuredGrid>
    <Piece NumberOfPoints="36" NumberOfCells="49">
      <PointData>
        <DataArray type="Float64" Name="Velocity" NumberOfComponents="3" format="ascii" RangeMin="0" RangeMax="0.011789456138905509">
          0 0 0 0 0 0
          0 0 0 0 0 0
          0 0 0 0 0 0
          -0.001508982350526098 -0.001487198039748694 0 -0.0018908150768593452 -0.004536637308837729 0
          -0.0014673086228701876 -0.0075342553452675915 0 -0.0005726530148211121 -0.009323184026229574 0
          0 0 0 -0.004539725932177878 -0.001917361803658131 0
          -0.005742217311536611 -0.005730298443236799 0 -0.004439126236822947 -0.009445364124384889 0
          -0.0016608786963957652 -0.011661814096218663 0 0 0 0
          -0.007515274151951992 -0.0014821142610370543 0 -0.009447984832581042 -0.004458554317948627 0
          -0.007321320658684714 -0.007310106030312115 0 -0.0027186728528804456 -0.008992837566135583 0
          0 0 0 -0.009315872116035268 -0.0005616353877168149 0
          -0.011661442763633722 -0.0016682198636584333 0 -0.008997254433081626 -0.002740549993128772 0
          -0.0033285685440658233 -0.0033375188580776947 0 0 0 0
          0.0004920105991879853 -0.009347498366407782 0 0.0016057265508286755 -0.01167959409804727 0
          0.002692910546896119 -0.009001192594087545 0 0.003356155850483215 -0.0033276699863045486 0
          0 0 0 -0.0093177501558664 0.0005009078443543537 0
          -0.011650494626051711 0.0016056427393438273 0 -0.00897838151816644 0.0026866767157490085 0
          -0.003313115100857191 0.00334478040753203 0 0.0033500573736782325 0.0033458767176086043 0
          <InformationKey name="L2_NORM_RANGE" location="vtkDataArray" length="2">
            <Value index="0">
              0
            </Value>
            <Value index="1">
              0.011789456139
            </Value>
          </InformationKey>
        </DataArray>
        <DataArray type="Float64" Name="Pressure" format="ascii" RangeMin="10" RangeMax="10.020330346467297">
          10 10 10 10 10 10
          10.000972191935977 10.001472500391674 10.001614855526853 10.001523644350963 10 10.003384861820006
          10.005176238380947 10.00570019202722 10.00529147709313 10 10.006513569528153 10.009956595654293
          10.010987448728937 10.010187328068943 10 10.009595364140692 10.014712684163234 10.016227292331932
          10.015057804687203 10 10.00116913526288 10.0041928835549 10.008121742341936 10.012058082208771
          10 10.012088865682227 10.01847001092958 10.020330346467297 10.018798850572502 10.015048568250371
        </DataArray>
        <DataArray type="Float64" Name="Temperature" format="ascii" RangeMin="0.030561400979970812" RangeMax="0.03424657534246575">
          0.03424657534246575 0.03424657534246575 0.03424657534246575 0.03424657534246575 0.03424657534246575 0.03424657534246575
          0.033594481623182036 0.033120834263853156 0.032811820528256534 0.032658864819830435 0.03424657534246575 0.033127145332386254
          0.03233250107168577 0.03182160818419081 0.03157004138428707 0.03424657534246575 0.03282786481239352 0.03183518052777125
          0.031202447279905076 0.030891394746807983 0.03424657534246575 0.032685375927494105 0.031599920744940446 0.0309101624209617
          0.030570581106195708 0.03424657534246575 0.03265783877459075 0.031566678475253095 0.03088509399373183 0.030561400979970812
          0.03424657534246575 0.0326933136361342 0.03161161806381995 0.030922739120130487 0.030582048919751137 0.030570573442430596
        </DataArray>
        <DataArray type="Float64" Name="Density" format="ascii" RangeMin="1" RangeMax="1.121933846129044">
          1 1 1 1 1 1
          1.0195098454285931 1.0341411656229693 1.0438953132794215 1.0487747657957214 1 1.0341418492678884
          1.059747964138848 1.076818504888199 1.0853548280875596 1 1.04389616209482 1.0768173041420046
          1.0987664936659338 1.1097415229473642 1 1.0487698307220332 1.0853495970437124 1.1097369141660915
          1.121932980194015 1 1.0487705407193328 1.085351268730454 1.1097388771270797 1.121933846129044
          1 1.0487763935163852 1.0853550341929998 1.109739977540645 1.121931204078175 1.1219322267438974
        </DataArray>
        <DataArray type="Float64" Name="Momentum" NumberOfComponents="3" format="ascii" RangeMin="0" RangeMax="0.012795701178003133">
          0 0 0 0 0 0
          0 0 0 0 0 0
          0 0 0 0 0 0
          -0.0015384223629393372 -0.0015162130436258978 0 -0.0019553697075608075 -0.0046915233945701 0
          -0.001531716594548671 -0.007864973843975269 0 -0.0006005840315012256 -0.009777920143579331 0
          0 0 0 -0.004694720570671819 -0.0019828240813506335 0
          -0.006085303105543773 -0.006072672109128208 0 -0.004780133277345664 -0.01017094287454477 0
          -0.0018026427120009158 -0.012657206233590486 0 0 0 0
          -0.007845165844313088 -0.001547173388882581 0 -0.010173753556994467 -0.004801048441024134 0
          -0.008044421829146968 -0.00803209957125224 0 -0.003017024152151201 -0.00997972525626157 0
          0 0 0 -0.009770205622162418 -0.0005890262505032675 0
          -0.012656742204458175 -0.0018106017568019974 0 -0.00998458537053519 -0.003041289492492627 0
          -0.0037344308264238226 -0.0037444724788968336 0 0 0 0
          0.0005160062221500263 -0.00980338091611057 0 0.001742777349176079 -0.012676462272572327 0
          0.0029884275265161693 -0.009988973362167298 0 0.0037653848415411264 -0.0037334255863828453 0
          0 0 0 -0.009772236404156299 0.0005253403224860258 0
          -0.012644922993223716 0.0017426924302622615 0 -0.009963668904321368 0.0029815125581942785 0
          -0.0037170872143542926 0.0037526135099994994 0 0.003758537328970632 0.0037538469161971836 0
          <InformationKey name="L2_NORM_RANGE" location="vtkDataArray" length="2">
            <Value index="0">
              0
            </Value>
            <Value index="1">
              0.012795701178
            </Value>
          </InformationKey>
        </DataArray>
        <DataArray type="Float64" Name="Energy" format="ascii" RangeMin="24.58904109589041" RangeMax="24.639080202358777">
          24.58904109589041 24.58904109589041 24.58904109589041 24.58904109589041 24.58904109589041 24.58904109589041
          24.591433910817724 24.59267432364617 24.593042622892874 24.59283334388412 24.58904109589041 24.597376703797952
          24.60180384039572 24.60311596542858 24.60212763063898 24.58904109589041 24.605087964601193 24.61358217346454
          24.616116984369512 24.614139732919785 24.58904109589041 24.612680850611017 24.625293483620773 24.628991536023342
          24.62607925749541 24.58904109589041 24.591961832876787 24.599426421673485 24.609060661632547 24.61870329420064
          24.58904109589041 24.618812116598892 24.63453214054372 24.639080202358777 24.635278100221644 24.626056657817024
        </DataArray>
      </PointData>
      <CellData>
        <DataArray type="UInt8" Name="vtkGhostType" format="ascii" RangeMin="0" RangeMax="0">
          0 0 0 0 0 0
          0 0 0 0 0 0
          0 0 0 0 0 0
          0 0 0 0 0 0
          0 0 0 0 0 0
          0 0 0 0 0 0
          0 0 0 0 0 0
          0 0 0 0 0 0
          0
        </DataArray>
      </CellData>
      <Points>
        <DataArray type="Float32" Name="Points" NumberOfComponents="3" format="ascii" RangeMin="0.4444444477558136" RangeMax="1.1439589174192555">
          0 1 0 0 0.8888888955116272 0
          0 0.7777777910232544 0 0 0.6666666865348816 0
          0 0.5555555820465088 0 0.1111111119389534 1 0
          0.1111111119389534 0.8888888955116272 0 0.1111111119389534 0.7777777910232544 0
          0.1111111119389534 0.6666666865348816 0 0.1111111119389534 0.5555555820465088 0
          0.2222222238779068 1 0 0.2222222238779068 0.8888888955116272 0
          0.2222222238779068 0.7777777910232544 0 0.2222222238779068 0.6666666865348816 0
          0.2222222238779068 0.5555555820465088 0 0.3333333432674408 1 0
          0.3333333432674408 0.8888888955116272 0 0.3333333432674408 0.7777777910232544 0
          0.3333333432674408 0.6666666865348816 0 0.3333333432674408 0.5555555820465088 0
          0.4444444477558136 1 0 0.4444444477558136 0.8888888955116272 0
          0.4444444477558136 0.7777777910232544 0 0.4444444477558136 0.6666666865348816 0
          0.4444444477558136 0.5555555820465088 0 0 0.4444444477558136 0
          0.1111111119389534 0.4444444477558136 0 0.2222222238779068 0.4444444477558136 0
          0.3333333432674408 0.4444444477558136 0 0.4444444477558136 0.4444444477558136 0
          0.5555555820465088 1 0 0.5555555820465088 0.8888888955116272 0
          0.5555555820465088 0.7777777910232544 0 0.5555555820465088 0.6666666865348816 0
          0.5555555820465088 0.5555555820465088 0 0.5555555820465088 0.4444444477558136 0
          <InformationKey name="L2_NORM_RANGE" location="vtkDataArray" length="2">
            <Value index="0">
              0.44444444776
            </Value>
            <Value index="1">
              1.1439589174
            </Value>
          </InformationKey>
        </DataArray>
      </Points>
      <Cells>
        <DataArray type="Int64" Name="connectivity" format="ascii" RangeMin="0" RangeMax="34">
          0 1 5 1 6 5
          1 2 6 2 7 6
          2 3 7 3 8 7
          3 4 8 4 9 8
          5 6 10 6 11 10
          6 7 11 7 12 11
          7 8 12 8 13 12
          8 9 13 9 14 13
          10 11 15 11 16 15
          11 12 16 12 17 16
          12 13 17 13 18 17
          13 14 18 14 19 18
          15 16 20 16 21 20
          16 17 21 17 22 21
          17 18 22 18 23 22
          18 19 23 19 24 23
          25 9 4 25 26 9
          26 14 9 26 27 14
          27 19 14 27 28 19
          28 24 19 28 29 24
          21 30 20 21 31 30
          22 31 21 22 32 31
          23 32 22 23 33 32
          24 33 23 24 34 33
          29 34 24
        </DataArray>
        <DataArray type="Int64" Name="offsets" format="ascii" RangeMin="3" RangeMax="147">
          3 6 9 12 15 18
          21 24 27 30 33 36
          39 42 45 48 51 54
          57 60 63 66 69 72
          75 78 81 84 87 90
          93 96 99 102 105 108
          111 114 117 120 123 126
          129 132 135 138 141 144
          147
        </DataArray>
        <DataArray type="UInt8" Name="types" format="ascii" RangeMin="5" RangeMax="5">
          5 5 5 5 5 5
          5 5 5 5 5 5
          5 5 5 5 5 5
          5 5 5 5 5 5
          5 5 5 5 5 5
          5 5 5 5 5 5
          5 5 5 5 5 5
          5 5 5 5 5 5
          5
        </DataArray>
      </Cells>
    </Piece>
  </UnstructuredGrid>
</VTKFile>
