<?xml version="1.0"?>
<VTKFile type="UnstructuredGrid" version="0.1" byte_order="LittleEndian" header_type="UInt32" compressor="vtkZLibDataCompressor">
  <UnstructuredGrid>
    <Piece NumberOfPoints="36" NumberOfCells="49">
      <PointData>
        <DataArray type="Float64" Name="Velocity" NumberOfComponents="3" format="ascii" RangeMin="0" RangeMax="0.011819940003198939">
          0.003346408769060015 0.003344870807164288 0 0.009021472733017608 0.002718703353558808 0
          0.011696817561821619 0.0016535350552642873 0 0.00935309030097754 0.0005530914175241173 0
          0 0 0 0.0027205616339198682 0.009030157545550217 0
          0.007318759649762127 0.0073138071160516556 0 0.009472585730479885 0.004435767128786548 0
          0.007574675859534069 0.0014629723001926133 0 0 0 0
          0.00165321120995173 0.011702978703527149 0 0.00443841840471314 0.009479596710579661 0
          0.005737700745863007 0.005731183205824521 0 0.004570791389488552 0.0018783749275136355 0
          0 0 0 0.0005508667368048044 0.009353711694162357 0
          0.0014639300252828043 0.00757802061380075 0 0.0018870653027771435 0.00458134601019925 0
          0.0014883346262435516 0.0014900347024217112 0 0 0 0
          0 0 0 0 0 0
          0 0 0 0 0 0
          0 0 0 -0.0033344985941054684 0.003345373878974247 0
          -0.0026973245686091403 0.009030060396841061 0 -0.0016279153947414723 0.01170021796472128 0
          -0.0005266784671829907 0.00935297202872443 0 0 0 0
          0.0033492179927059394 -0.0033393819403164924 0 0.009036807746845121 -0.0027021770866876493 0
          0.011707255267283756 -0.0016282370177217067 0 0.00935810094878352 -0.0005199204618267538 0
          0 0 0 -0.0033397451600800285 -0.003342325890238426 0
          <InformationKey name="L2_NORM_RANGE" location="vtkDataArray" length="2">
            <Value index="0">
              0
            </Value>
            <Value index="1">
              0.011819940003
            </Value>
          </InformationKey>
        </DataArray>
        <DataArray type="Float64" Name="Pressure" format="ascii" RangeMin="10" RangeMax="10.020316424759843">
          10.015050693452132 10.01014719461934 10.005248117360322 10.00149073248751 10 10.016270044983779
          10.010976721283923 10.005692752460275 10.001631580536717 10 10.014763829125084 10.009960268121224
          10.00516504363536 10.001481747078815 10 10.009639793310502 10.006497930800723 10.003367703944622
          10.000965721308031 10 10 10 10 10
          10 10.01880956910989 10.020316424759843 10.018430953630306 10.012030347143059 10
          10.012049290429301 10.008132755718702 10.004222597852833 10.001218968193776 10 10.01505510308129
        </DataArray>
        <DataArray type="Float64" Name="Temperature" format="ascii" RangeMin="0.03056139305585406" RangeMax="0.03424657534246575">
          0.030570574954775193 0.030891361720948453 0.03157000955207162 0.03265884662111005 0.03424657534246575 0.030910198654610213
          0.031202438093204297 0.031821608091683266 0.03281185125898535 0.03424657534246575 0.031599960574049825 0.03183517803173477
          0.032332490875452584 0.03312085246825068 0.03424657534246575 0.032685405233247804 0.032827835234973096 0.03312711935490075
          0.033594475079966685 0.03424657534246575 0.03424657534246575 0.03424657534246575 0.03424657534246575 0.03424657534246575
          0.03424657534246575 0.030582058347828133 0.030922725080194068 0.03161157877988217 0.032693254331842544 0.03424657534246575
          0.03056139305585406 0.030885106334809006 0.03156671061165375 0.03265789071062986 0.03424657534246575 0.030570578679510567
        </DataArray>
        <DataArray type="Float64" Name="Density" format="ascii" RangeMin="1" RangeMax="1.1219331518380808">
          1.121932409316194 1.109738260120888 1.0853512188714545 1.0487718990226378 1 1.109740350034465
          1.0987656397651486 1.0768177073686307 1.0438960812265592 1 1.0853537719056023 1.0768177836341186
          1.0597471125888527 1.0341415533189056 1 1.0487735455207308 1.0438954711710995 1.034140886448213
          1.0195093843762255 1 1 1 1 1
          1 1.1219320584897963 1.1097389395854997 1.0853521516778548 1.0487721660689269 1
          1.1219331518380808 1.1097396549023066 1.0853533874818146 1.0487740985649832 1 1.1219327666064012
        </DataArray>
        <DataArray type="Float64" Name="Momentum" NumberOfComponents="3" format="ascii" RangeMin="0" RangeMax="0.01282881192230378">
          0.0037544444528283412 0.003752718963533232 0 0.010011473454466993 0.003017049129363175 0
          0.012695155197640128 0.0017946662876777721 0 0.009809258276686428 0.0005800667362898911 0
          0 0 0 0.0030191170199165705 0.010021130195465262 0
          0.008041601628858239 0.008036159954987394 0 0.010200248049148156 0.004776512590041064 0
          0.007907174446329034 0.0015271910511140744 0 0 0 0
          0.0017943190224777347 0.012701872078404126 0 0.004779367869404084 0.010207798319631672 0
          0.006080511798327228 0.006073604854090261 0 0.00472684530742237 0.0019425055652542377 0
          0 0 0 0.0005777344606682098 0.009809925377265376 0
          0.0015281899235041125 0.007910661399187838 0 0.0019514913849996204 0.004737757224113436 0
          0.001517371118547383 0.0015191043621651712 0 0 0 0
          0 0 0 0 0 0
          0 0 0 0 0 0
          0 0 0 -0.00374108087171608 0.0037532822024555716 0
          -0.0029933261064862228 0.010021009649183416 0 -0.0017668614764321613 0.012698856743110132 0
          -0.0005523657168493674 0.009809136733747406 0 0 0 0
          0.003757598698749385 -0.003746563305490448 0 0.010028503910402397 -0.002998713067665672 0
          0.012706509162460742 -0.0017672125628075419 0 0.00981453388684055 -0.0005452791136778435 0
          0 0 0 -0.0037469695272089247 -0.0037498649329354003 0
          <InformationKey name="L2_NORM_RANGE" location="vtkDataArray" length="2">
            <Value index="0">
              0
            </Value>
            <Value index="1">
              0.012828811922
            </Value>
          </InformationKey>
        </DataArray>
        <DataArray type="Float64" Name="Energy" format="ascii" RangeMin="24.58904109589041" RangeMax="24.639046518371753">
          24.626061866004996 24.614041334788894 24.602021443464256 24.592752697984434 24.58904109589041 24.629096929403417
          24.616090615701957 24.603097933420685 24.593084060238066 24.58904109589041 24.625419744062725 24.613591429429142
          24.601776291461213 24.59269719696067 24.58904109589041 24.6127904620114 24.60504997679927 24.59733465090814
          24.591417972920542 24.58904109589041 24.58904109589041 24.58904109589041 24.58904109589041 24.58904109589041
          24.58904109589041 24.6353045380549 24.639046518371753 24.63443677136201 24.618668583670576 24.58904109589041
          24.61868169375616 24.609088126707196 24.5994998769975 24.592084486241866 24.58904109589041 24.626072674324277
        </DataArray>
      </PointData>
      <CellData>
        <DataArray type="UInt8" Name="vtkGhostType" format="ascii" RangeMin="0" RangeMax="1">
          0 0 0 0 0 0
          0 0 0 0 0 0
          0 0 0 0 0 0
          0 0 0 0 0 0
          0 0 0 0 0 0
          0 0 1 1 1 1
          1 1 1 1 1 1
          1 1 1 1 1 1
          1
        </DataArray>
      </CellData>
      <Points>
        <DataArray type="Float32" Name="Points" NumberOfComponents="3" format="ascii" RangeMin="0.4444444477558136" RangeMax="1.1439589174192555">
          0.5555555820465088 0.4444444477558136 0 0.5555555820465088 0.3333333432674408 0
          0.5555555820465088 0.2222222238779068 0 0.5555555820465088 0.1111111119389534 0
          0.5555555820465088 0 0 0.6666666865348816 0.4444444477558136 0
          0.6666666865348816 0.3333333432674408 0 0.6666666865348816 0.2222222238779068 0
          0.6666666865348816 0.1111111119389534 0 0.6666666865348816 0 0
          0.7777777910232544 0.4444444477558136 0 0.7777777910232544 0.3333333432674408 0
          0.7777777910232544 0.2222222238779068 0 0.7777777910232544 0.1111111119389534 0
          0.7777777910232544 0 0 0.8888888955116272 0.4444444477558136 0
          0.8888888955116272 0.3333333432674408 0 0.8888888955116272 0.2222222238779068 0
          0.8888888955116272 0.1111111119389534 0 0.8888888955116272 0 0
          1 0.4444444477558136 0 1 0.3333333432674408 0
          1 0.2222222238779068 0 1 0.1111111119389534 0
          1 0 0 0.5555555820465088 0.5555555820465088 0
          0.6666666865348816 0.5555555820465088 0 0.7777777910232544 0.5555555820465088 0
          0.8888888955116272 0.5555555820465088 0 1 0.5555555820465088 0
          0.4444444477558136 0.4444444477558136 0 0.4444444477558136 0.3333333432674408 0
          0.4444444477558136 0.2222222238779068 0 0.4444444477558136 0.1111111119389534 0
          0.4444444477558136 0 0 0.4444444477558136 0.5555555820465088 0
          <InformationKey name="L2_NORM_RANGE" location="vtkDataArray" length="2">
            <Value index="0">
              0.44444444776
            </Value>
            <Value index="1">
              1.1439589174
            </Value>
          </InformationKey>
        </DataArray>
      </Points>
      <Cells>
        <DataArray type="Int64" Name="connectivity" format="ascii" RangeMin="0" RangeMax="34">
          0 1 5 1 6 5
          1 2 6 2 7 6
          2 3 7 3 8 7
          3 4 8 4 9 8
          5 6 10 6 11 10
          6 7 11 7 12 11
          7 8 12 8 13 12
          8 9 13 9 14 13
          10 11 15 11 16 15
          11 12 16 12 17 16
          12 13 17 13 18 17
          13 14 18 14 19 18
          15 16 20 16 21 20
          16 17 21 17 22 21
          17 18 22 18 23 22
          18 19 23 19 24 23
          0 26 25 0 5 26
          5 27 26 5 10 27
          10 28 27 10 15 28
          15 29 28 15 20 29
          31 0 30 31 1 0
          32 1 31 32 2 1
          33 2 32 33 3 2
          34 3 33 34 4 3
          30 0 25
        </DataArray>
        <DataArray type="Int64" Name="offsets" format="ascii" RangeMin="3" RangeMax="147">
          3 6 9 12 15 18
          21 24 27 30 33 36
          39 42 45 48 51 54
          57 60 63 66 69 72
          75 78 81 84 87 90
          93 96 99 102 105 108
          111 114 117 120 123 126
          129 132 135 138 141 144
          147
        </DataArray>
        <DataArray type="UInt8" Name="types" format="ascii" RangeMin="5" RangeMax="5">
          5 5 5 5 5 5
          5 5 5 5 5 5
          5 5 5 5 5 5
          5 5 5 5 5 5
          5 5 5 5 5 5
          5 5 5 5 5 5
          5 5 5 5 5 5
          5 5 5 5 5 5
          5
        </DataArray>
      </Cells>
    </Piece>
  </UnstructuredGrid>
</VTKFile>
