<?xml version="1.0"?>
<VTKFile type="UnstructuredGrid" version="0.1" byte_order="LittleEndian" header_type="UInt32" compressor="vtkZLibDataCompressor">
  <UnstructuredGrid>
    <Piece NumberOfPoints="36" NumberOfCells="49">
      <PointData>
        <DataArray type="Float64" Name="Velocity" NumberOfComponents="3" format="ascii" RangeMin="0" RangeMax="0.011767587315106125">
          0 0 0 0 0 0
          0 0 0 0 0 0
          0 0 0 0 0 0
          -0.0015093213192896374 -0.001480280294741338 0 -0.0019002966519221808 -0.004506597109493175 0
          -0.0014808167463684263 -0.007500939851593434 0 -0.0005934345825932526 -0.009296315329674537 0
          0 0 0 -0.004513242162723586 -0.0019360854540201823 0
          -0.005741947119360071 -0.005727597589060609 0 -0.004448882674137116 -0.009421274013138454 0
          -0.0016766079883844321 -0.011633119234054712 0 0 0 0
          -0.007472412048994709 -0.0015036627398972045 0 -0.009425998524032982 -0.004476499582960846 0
          -0.00732066863659754 -0.007306930287185872 0 -0.0027238734080766137 -0.008970174243155042 0
          0 0 0 -0.009281936447584746 -0.0005789922147105889 0
          -0.011630421693877064 -0.0016887175401331283 0 -0.008976140376799977 -0.0027565378371543054 0
          -0.0033174315917308315 -0.003333520064425676 0 0 0 0
          0.0004678828250637385 -0.009335399553062958 0 0.0015834105364455615 -0.011660571267811871 0
          0.0026817949745974127 -0.008980839152388953 0 0.0033615721649279426 -0.0033158271126492124 0
          0 0 0 -0.00929029283071836 0.0004820141118709635 0
          -0.011615516051104221 0.001583054732996756 0 -0.008945116335315596 0.0026713350408985883 0
          -0.003291904956937985 0.0033430865520428657 0 0.0033551160671415167 0.0033483410276436785 0
          <InformationKey name="L2_NORM_RANGE" location="vtkDataArray" length="2">
            <Value index="0">
              0
            </Value>
            <Value index="1">
              0.011767587315
            </Value>
          </InformationKey>
        </DataArray>
        <DataArray type="Float64" Name="Pressure" format="ascii" RangeMin="10" RangeMax="10.02034533843021">
          10 10 10 10 10 10
          10.000975296769003 10.00147922726217 10.001613592842093 10.001535119966977 10 10.00338134670475
          10.005186806764733 10.005708354396468 10.005299168944656 10 10.006513522631153 10.00995814494146
          10.010997810754109 10.010198767315602 10 10.00956892441964 10.014684252134067 10.016206055257532
          10.015059016232453 10 10.001145556650608 10.004166889443352 10.008105505314775 10.012062285706774
          10 10.012115768033881 10.018494901402333 10.02034533843021 10.018793139273008 10.015049572564536
        </DataArray>
        <DataArray type="Float64" Name="Temperature" format="ascii" RangeMin="0.030561404862717745" RangeMax="0.03424657534246575">
          0.03424657534246575 0.03424657534246575 0.03424657534246575 0.03424657534246575 0.03424657534246575 0.03424657534246575
          0.0335944848097202 0.03312083531055746 0.032811810652243464 0.032658867491254774 0.03424657534246575 0.03312714747086818
          0.032332511034917896 0.031821611392126234 0.03157004296070273 0.03424657534246575 0.03282787354519589 0.031835185881675665
          0.03120245652840337 0.030891403100260843 0.03424657534246575 0.03268535883189516 0.03159989945933977 0.030910144932778858
          0.030570582242025926 0.03424657534246575 0.03265781343229278 0.03156665139635105 0.0308850780064431 0.030561404862717745
          0.03424657534246575 0.032693341794250465 0.03161164340504782 0.03092275354845048 0.030582043883792882 0.030570574690988835
        </DataArray>
        <DataArray type="Float64" Name="Density" format="ascii" RangeMin="1" RangeMax="1.1219341746268978">
          1 1 1 1 1 1
          1.0195100652349938 1.0341418284923536 1.0438954956912043 1.0487758833584298 1 1.0341414191203904
          1.0597487569810797 1.0768192747723766 1.085355608288808 1 1.043895879507371 1.0768172897114638
          1.098767305283042 1.1097424910266924 1 1.0487676090042952 1.0853472467943113 1.1097351890876457
          1.1219330742322038 1 1.048768881991729 1.085349379685952 1.1097376511453436 1.1219341746268978
          1 1.048778308272425 1.0853568606439394 1.10974112008622 1.1219307492607604 1.121932293430061
        </DataArray>
        <DataArray type="Float64" Name="Momentum" NumberOfComponents="3" format="ascii" RangeMin="0" RangeMax="0.012771943592850709">
          0 0 0 0 0 0
          0 0 0 0 0 0
          0 0 0 0 0 0
          -0.001538768276689545 -0.0015091606598578173 0 -0.0019651762542967017 -0.004660460575089628 0
          -0.0015458179314781048 -0.007830197324529036 0 -0.0006223798785746795 -0.009749751321857925 0
          0 0 0 -0.0046673306549929496 -0.0020021861589587767 0
          -0.006085021322392927 -0.00606981442549481 0 -0.004790642614711721 -0.010145009450259588 0
          -0.0018197158830948602 -0.012626071202573684 0 0 0 0
          -0.007800420147926808 -0.0015696673383474554 0 -0.010150078183473453 -0.0048203721483183965 0
          -0.00804371135070436 -0.008028616101542265 0 -0.0030227980611203078 -0.009954583509542352 0
          0 0 0 -0.009734594295063277 -0.0006072282806541258 0
          -0.012623046164506302 -0.0018328449327967527 0 -0.009961138838325374 -0.003059027037941683 0
          -0.0037219362242656047 -0.003739986413895833 0 0 0 0
          0.0004907009473452287 -0.009790676552211924 0 0.0017185536435193906 -0.012655793792303449 0
          0.0029760888559631194 -0.009966375346286256 0 0.0037714626923071853 -0.0037201397548355837 0
          0 0 0 -0.00974345759835624 0.0005055259448114645 0
          -0.012606980035985765 0.0017181793152328889 0 -0.009926763421254672 0.0029644903404123677 0
          -0.0036932893948326447 0.0037507116001770247 0 0.0037642130639321284 0.0037566119283302395 0
          <InformationKey name="L2_NORM_RANGE" location="vtkDataArray" length="2">
            <Value index="0">
              0
            </Value>
            <Value index="1">
              0.012771943593
            </Value>
          </InformationKey>
        </DataArray>
        <DataArray type="Float64" Name="Energy" format="ascii" RangeMin="24.58904109589041" RangeMax="24.639116689767718">
          24.58904109589041 24.58904109589041 24.58904109589041 24.58904109589041 24.58904109589041 24.58904109589041
          24.59144153536206 24.592690742502384 24.59303927741715 24.59286131173813 24.58904109589041 24.597367973797162
          24.601829809022423 24.60313583793529 24.602146209956803 24.58904109589041 24.60508754755795 24.6135858459188
          24.61614243289195 24.614167650789415 24.58904109589041 24.612615517203228 24.625223217062782 24.628939154215537
          24.62608218008504 24.58904109589041 24.591903724580384 24.59936222494758 24.609020500056236 24.618713606477968
          24.58904109589041 24.618877989322208 24.63459286323048 24.639116689767718 24.635263971736478 24.626059155611696
        </DataArray>
      </PointData>
      <CellData>
        <DataArray type="UInt8" Name="vtkGhostType" format="ascii" RangeMin="0" RangeMax="0">
          0 0 0 0 0 0
          0 0 0 0 0 0
          0 0 0 0 0 0
          0 0 0 0 0 0
          0 0 0 0 0 0
          0 0 0 0 0 0
          0 0 0 0 0 0
          0 0 0 0 0 0
          0
        </DataArray>
      </CellData>
      <Points>
        <DataArray type="Float32" Name="Points" NumberOfComponents="3" format="ascii" RangeMin="0.4444444477558136" RangeMax="1.1439589174192555">
          0 1 0 0 0.8888888955116272 0
          0 0.7777777910232544 0 0 0.6666666865348816 0
          0 0.5555555820465088 0 0.1111111119389534 1 0
          0.1111111119389534 0.8888888955116272 0 0.1111111119389534 0.7777777910232544 0
          0.1111111119389534 0.6666666865348816 0 0.1111111119389534 0.5555555820465088 0
          0.2222222238779068 1 0 0.2222222238779068 0.8888888955116272 0
          0.2222222238779068 0.7777777910232544 0 0.2222222238779068 0.6666666865348816 0
          0.2222222238779068 0.5555555820465088 0 0.3333333432674408 1 0
          0.3333333432674408 0.8888888955116272 0 0.3333333432674408 0.7777777910232544 0
          0.3333333432674408 0.6666666865348816 0 0.3333333432674408 0.5555555820465088 0
          0.4444444477558136 1 0 0.4444444477558136 0.8888888955116272 0
          0.4444444477558136 0.7777777910232544 0 0.4444444477558136 0.6666666865348816 0
          0.4444444477558136 0.5555555820465088 0 0 0.4444444477558136 0
          0.1111111119389534 0.4444444477558136 0 0.2222222238779068 0.4444444477558136 0
          0.3333333432674408 0.4444444477558136 0 0.4444444477558136 0.4444444477558136 0
          0.5555555820465088 1 0 0.5555555820465088 0.8888888955116272 0
          0.5555555820465088 0.7777777910232544 0 0.5555555820465088 0.6666666865348816 0
          0.5555555820465088 0.5555555820465088 0 0.5555555820465088 0.4444444477558136 0
          <InformationKey name="L2_NORM_RANGE" location="vtkDataArray" length="2">
            <Value index="0">
              0.44444444776
            </Value>
            <Value index="1">
              1.1439589174
            </Value>
          </InformationKey>
        </DataArray>
      </Points>
      <Cells>
        <DataArray type="Int64" Name="connectivity" format="ascii" RangeMin="0" RangeMax="34">
          0 1 5 1 6 5
          1 2 6 2 7 6
          2 3 7 3 8 7
          3 4 8 4 9 8
          5 6 10 6 11 10
          6 7 11 7 12 11
          7 8 12 8 13 12
          8 9 13 9 14 13
          10 11 15 11 16 15
          11 12 16 12 17 16
          12 13 17 13 18 17
          13 14 18 14 19 18
          15 16 20 16 21 20
          16 17 21 17 22 21
          17 18 22 18 23 22
          18 19 23 19 24 23
          25 9 4 25 26 9
          26 14 9 26 27 14
          27 19 14 27 28 19
          28 24 19 28 29 24
          21 30 20 21 31 30
          22 31 21 22 32 31
          23 32 22 23 33 32
          24 33 23 24 34 33
          29 34 24
        </DataArray>
        <DataArray type="Int64" Name="offsets" format="ascii" RangeMin="3" RangeMax="147">
          3 6 9 12 15 18
          21 24 27 30 33 36
          39 42 45 48 51 54
          57 60 63 66 69 72
          75 78 81 84 87 90
          93 96 99 102 105 108
          111 114 117 120 123 126
          129 132 135 138 141 144
          147
        </DataArray>
        <DataArray type="UInt8" Name="types" format="ascii" RangeMin="5" RangeMax="5">
          5 5 5 5 5 5
          5 5 5 5 5 5
          5 5 5 5 5 5
          5 5 5 5 5 5
          5 5 5 5 5 5
          5 5 5 5 5 5
          5 5 5 5 5 5
          5 5 5 5 5 5
          5
        </DataArray>
      </Cells>
    </Piece>
  </UnstructuredGrid>
</VTKFile>
