<?xml version="1.0"?>
<VTKFile type="UnstructuredGrid" version="0.1" byte_order="LittleEndian" header_type="UInt32" compressor="vtkZLibDataCompressor">
  <UnstructuredGrid>
    <Piece NumberOfPoints="36" NumberOfCells="50">
      <PointData>
        <DataArray type="Float64" Name="Velocity" NumberOfComponents="3" format="ascii" RangeMin="0" RangeMax="0.0118083529106654">
          0 0 0 0 0 0
          0 0 0 0 0 0
          0 0 0 0.00047952946745941733 -0.00934138440371435 0
          0.0014007362558386065 -0.00759457089660545 0 0.0018651249434341107 -0.004634958853526667 0
          0.001548522162243324 -0.0015714144208228377 0 0 0 0
          0.0015945316253681769 -0.011670056698609961 0 0.004377965037509767 -0.009465615213841896 0
          0.005707903878413603 -0.005746487478413489 0 0.004598620395638052 -0.001906435590411087 0
          0 0 0 0.002687359200132602 -0.008990965905360566 0
          0.007285639342654862 -0.007282878421884245 0 0.009453611280294278 -0.004404361952052515 0
          0.00756646457411041 -0.0014346374239937 0 0 0 0
          0.003359055560490427 -0.0033217657760019207 0 0.009043864562182525 -0.0026787367571790358 0
          0.01170012803204539 -0.0015950556405861579 0 0.009335305503268216 -0.0004801451107543958 0
          0 0 0 0 0 0
          -0.0005834000677791675 -0.009309555469765102 0 -0.0016686827457957226 -0.011647244849744123 0
          -0.002721346045070322 -0.00898118444409829 0 -0.0033229727008676235 -0.003335441847604437 0
          0.003352431263908721 0.00334696973204967 0 0.00899860565970908 0.002742317646848056 0
          0.011664643129287458 0.0016960006840992061 0 0.009315270014919408 0.0006005974655370696 0
          0 0 0 -0.0033024775946748604 0.0033440619405321883 0
          <InformationKey name="L2_NORM_RANGE" location="vtkDataArray" length="2">
            <Value index="0">
              0
            </Value>
            <Value index="1">
              0.011808352911
            </Value>
          </InformationKey>
        </DataArray>
        <DataArray type="Float64" Name="Pressure" format="ascii" RangeMin="10" RangeMax="10.01879537795636">
          10 10 10 10 10 10.00115730524979
          10.000809373730828 10.000422768421593 10.000125017287075 10 10.004180874613011 10.002838511645967
          10.001467342822268 10.000418243158851 10 10.008114702139174 10.005477132809535 10.002830888806795
          10.000805532666385 10 10.012060689893318 10.008148773388521 10.004255667534999 10.001260766136612
          10 10 10.001529437345914 10.005296007097746 10.010193646806702 10.015058617907888
          10.015048750074556 10.010118859065523 10.005204116147603 10.001443842317624 10 10.01879537795636
        </DataArray>
        <DataArray type="Float64" Name="Temperature" format="ascii" RangeMin="0.030561403366324288" RangeMax="0.03424657534246575">
          0.03424657534246575 0.03424657534246575 0.03424657534246575 0.03424657534246575 0.03424657534246575 0.03265782614600309
          0.0328091746504227 0.033117360597712975 0.03359164502377715 0.03424657534246575 0.0315666659201701 0.03181254808008539
          0.03232056240377878 0.03311734567615527 0.03424657534246575 0.03088508698684997 0.031185323701505837 0.03181254297000255
          0.03280916593917885 0.03424657534246575 0.030561403366324288 0.03088512281105574 0.03156674553517523 0.032657935871463706
          0.03424657534246575 0.03424657534246575 0.03265886629586721 0.0315700428911457 0.030891399487865092 0.03057058185453295
          0.030570573784979245 0.030891338404373643 0.03156997429598299 0.03265881012095914 0.03424657534246575 0.03058204586065995
        </DataArray>
        <DataArray type="Float64" Name="Density" format="ascii" RangeMin="1" RangeMax="1.121934050736657">
          1 1 1 1 1 1.048769705720315
          1.0438954205716298 1.0341410837520402 1.0195095673230297 1 1.085350397563441 1.0768171158915922
          1.0597464258577631 1.0341410817446541 1 1.10973834824807 1.0987646937573214 1.076816468254308
          1.0438952968043043 1 1.121934050736657 1.1097408389898522 1.0853557744232802 1.0487770313935436
          1 1 1.048775325857835 1.0853552676890579 1.109742053132633 1.1219330438309494
          1.1219322345412386 1.1097359564242413 1.0853476577711243 1.048768154169701 1 1.1219309274311773
        </DataArray>
        <DataArray type="Float64" Name="Momentum" NumberOfComponents="3" format="ascii" RangeMin="0" RangeMax="0.012816264018018641">
          0 0 0 0 0 0
          0 0 0 0 0 0
          0 0 0 0.0005029159784716324 -0.009796960972103837 0
          0.001462222162898572 -0.007927937780173006 0 0.0019288023303359139 -0.004793201371932181 0
          0.0015787331596188135 -0.0016020720362582605 0 0 0 0
          0.0017306255335208308 -0.01266610067742422 0 0.004714267685165494 -0.010192736474708808 0
          0.006048930734288481 -0.006089819566485085 0 0.004755622270478164 -0.00197152336374423 0
          0 0 0 0.0029822655599044084 -0.009977619652969548 0
          0.008005203281158462 -0.008002169678893447 0 0.010179804311095572 -0.004742689482122839 0
          0.007898596782350241 -0.0014976112595264661 0 0 0 0
          0.003768638811630517 -0.00372680213266823 0 0.010036345846947028 -0.0029727035763448192 0
          0.012698801521072153 -0.0017312028500366108 0 0.00979065399286945 -0.0005035651638951195 0
          0 0 0 0 0 0
          -0.0006118555961905793 -0.009763632071394485 0 -0.0018111136082512287 -0.012641398551734033 0
          -0.00301999214734071 -0.009966798064556501 0 -0.0037281528768515638 -0.0037421424246039717 0
          0.0037612006990630203 0.003755073230420377 0 0.009986076258261848 0.0030432484966440025 0
          0.01266019309910818 0.0018407503700652978 0 0.00976955853913939 0.0006298874953303131 0
          0 0 0 -0.00370515175061425 0.0037518065143285805 0
          <InformationKey name="L2_NORM_RANGE" location="vtkDataArray" length="2">
            <Value index="0">
              0
            </Value>
            <Value index="1">
              0.012816264018
            </Value>
          </InformationKey>
        </DataArray>
        <DataArray type="Float64" Name="Energy" format="ascii" RangeMin="24.58904109589041" RangeMax="24.63526951921559">
          24.58904109589041 24.58904109589041 24.58904109589041 24.58904109589041 24.58904109589041 24.5919326776959
          24.591062397019904 24.59009354977391 24.58935098252256 24.58904109589041 24.59939675248312 24.59607928355207
          24.592683912079806 24.59008232965445 24.58904109589041 24.60904323175697 24.60256714119097 24.596060542228212
          24.591052779965143 24.58904109589041 24.618709695149033 24.609127513484992 24.59958104376552 24.59218701919018
          24.58904109589041 24.58904109589041 24.59284746168111 24.602138599326576 24.61415516196282 24.62608122847319
          24.62605711793454 24.613971503189177 24.601912917746695 24.592637057891093 24.58904109589041 24.63526951921559
        </DataArray>
      </PointData>
      <CellData>
        <DataArray type="UInt8" Name="vtkGhostType" format="ascii" RangeMin="0" RangeMax="1">
          0 0 0 0 0 0
          0 0 0 0 0 0
          0 0 0 0 0 0
          0 0 0 0 0 0
          0 0 0 0 0 0
          0 0 1 1 1 1
          1 1 1 1 0 0
          0 0 0 0 0 0
          1 0
        </DataArray>
      </CellData>
      <Points>
        <DataArray type="Float32" Name="Points" NumberOfComponents="3" format="ascii" RangeMin="0" RangeMax="0.7856742387822515">
          0 0.4444444477558136 0 0 0.3333333432674408 0
          0 0.2222222238779068 0 0 0.1111111119389534 0
          0 0 0 0.1111111119389534 0.4444444477558136 0
          0.1111111119389534 0.3333333432674408 0 0.1111111119389534 0.2222222238779068 0
          0.1111111119389534 0.1111111119389534 0 0.1111111119389534 0 0
          0.2222222238779068 0.4444444477558136 0 0.2222222238779068 0.3333333432674408 0
          0.2222222238779068 0.2222222238779068 0 0.2222222238779068 0.1111111119389534 0
          0.2222222238779068 0 0 0.3333333432674408 0.4444444477558136 0
          0.3333333432674408 0.3333333432674408 0 0.3333333432674408 0.2222222238779068 0
          0.3333333432674408 0.1111111119389534 0 0.3333333432674408 0 0
          0.4444444477558136 0.4444444477558136 0 0.4444444477558136 0.3333333432674408 0
          0.4444444477558136 0.2222222238779068 0 0.4444444477558136 0.1111111119389534 0
          0.4444444477558136 0 0 0 0.5555555820465088 0
          0.1111111119389534 0.5555555820465088 0 0.2222222238779068 0.5555555820465088 0
          0.3333333432674408 0.5555555820465088 0 0.4444444477558136 0.5555555820465088 0
          0.5555555820465088 0.4444444477558136 0 0.5555555820465088 0.3333333432674408 0
          0.5555555820465088 0.2222222238779068 0 0.5555555820465088 0.1111111119389534 0
          0.5555555820465088 0 0 0.5555555820465088 0.5555555820465088 0
          <InformationKey name="L2_NORM_RANGE" location="vtkDataArray" length="2">
            <Value index="0">
              0
            </Value>
            <Value index="1">
              0.78567423878
            </Value>
          </InformationKey>
        </DataArray>
      </Points>
      <Cells>
        <DataArray type="Int64" Name="connectivity" format="ascii" RangeMin="0" RangeMax="35">
          0 1 5 1 6 5
          1 2 6 2 7 6
          2 3 7 3 8 7
          3 4 8 4 9 8
          5 6 10 6 11 10
          6 7 11 7 12 11
          7 8 12 8 13 12
          8 9 13 9 14 13
          10 11 15 11 16 15
          11 12 16 12 17 16
          12 13 17 13 18 17
          13 14 18 14 19 18
          15 16 20 16 21 20
          16 17 21 17 22 21
          17 18 22 18 23 22
          18 19 23 19 24 23
          0 26 25 0 5 26
          5 27 26 5 10 27
          10 28 27 10 15 28
          15 29 28 15 20 29
          21 30 20 21 31 30
          22 31 21 22 32 31
          23 32 22 23 33 32
          24 33 23 24 34 33
          20 35 29 20 30 35
        </DataArray>
        <DataArray type="Int64" Name="offsets" format="ascii" RangeMin="3" RangeMax="150">
          3 6 9 12 15 18
          21 24 27 30 33 36
          39 42 45 48 51 54
          57 60 63 66 69 72
          75 78 81 84 87 90
          93 96 99 102 105 108
          111 114 117 120 123 126
          129 132 135 138 141 144
          147 150
        </DataArray>
        <DataArray type="UInt8" Name="types" format="ascii" RangeMin="5" RangeMax="5">
          5 5 5 5 5 5
          5 5 5 5 5 5
          5 5 5 5 5 5
          5 5 5 5 5 5
          5 5 5 5 5 5
          5 5 5 5 5 5
          5 5 5 5 5 5
          5 5 5 5 5 5
          5 5
        </DataArray>
      </Cells>
    </Piece>
  </UnstructuredGrid>
</VTKFile>
