<?xml version="1.0"?>
<VTKFile type="UnstructuredGrid" version="0.1" byte_order="LittleEndian" header_type="UInt32" compressor="vtkZLibDataCompressor">
  <UnstructuredGrid>
    <Piece NumberOfPoints="36" NumberOfCells="49">
      <PointData>
        <DataArray type="Float64" Name="Velocity" NumberOfComponents="3" format="ascii" RangeMin="0" RangeMax="0.011804687863677351">
          0.0033551160671415167 0.0033483410276436785 0 0.008993088234316502 0.00274949890198741 0
          0.011654696246444256 0.0017096128434331093 0 0.00930344513985427 0.0006146558419642777 0
          0 0 0 0.0027599904674762113 0.009021935923389736 0
          0.00732509348289227 0.007311648067299758 0 0.009434473242306915 0.004472516654160616 0
          0.007522638735179257 0.0015218675912499174 0 0 0 0
          0.0017085733057408794 0.011680386672442014 0 0.004487251328775295 0.009460467291603353 0
          0.00573984501175959 0.005717734266611668 0 0.004509115437364115 0.0018895757386092576 0
          0 0 0 0.0006058796158309115 0.009307535203150459 0
          0.001527707289953758 0.007542020605967652 0 0.001928126668421772 0.004550172835557651 0
          0.00145221933602809 0.0014615464996744583 0 0 0 0
          0 0 0 0 0 0
          0 0 0 0 0 0
          0 0 0 -0.003291904956937985 0.0033430865520428657 0
          -0.002649722224146861 0.009018233970065475 0 -0.0015838333568828442 0.011668474077622714 0
          -0.0004958970850607551 0.009305488157080422 0 0 0 0
          0.0033615721649279426 -0.0033158271126492124 0 0.00904432828399991 -0.002670615169844609 0
          0.011696559974771089 -0.0015839600624342437 0 0.009328440200994551 -0.00046862885580098196 0
          0 0 0 -0.0033174315917308315 -0.003333520064425676 0
          <InformationKey name="L2_NORM_RANGE" location="vtkDataArray" length="2">
            <Value index="0">
              0
            </Value>
            <Value index="1">
              0.011804687864
            </Value>
          </InformationKey>
        </DataArray>
        <DataArray type="Float64" Name="Pressure" format="ascii" RangeMin="10" RangeMax="10.020300936548823">
          10.015049572564536 10.010113353479406 10.005194483894064 10.001427559516884 10 10.016302120486062
          10.010977723888882 10.005703267357053 10.001640191861547 10 10.014802088909324 10.009956350907327
          10.005162179197855 10.00149588802025 10 10.009676054878208 10.006494475019744 10.003361985777156
          10.000968326881852 10 10 10 10 10
          10 10.018793139273008 10.020300936548823 10.018403932318813 10.011991737170822 10
          10.012062285706774 10.008154895341216 10.004269110660703 10.001273615401281 10 10.015059016232453
        </DataArray>
        <DataArray type="Float64" Name="Temperature" format="ascii" RangeMin="0.030561404862717745" RangeMax="0.03424657534246575">
          0.030570574690988835 0.030891334329693095 0.03156996764041024 0.03265879786999682 0.03424657534246575 0.030910225525095796
          0.031202440027005823 0.031821625010146105 0.03281187399807071 0.03424657534246575 0.031599988174124606 0.03183516778769449
          0.03233248877100337 0.03312087467797461 0.03424657534246575 0.03268542766958106 0.032827816507822856 0.033127104804283186
          0.03359447816159448 0.03424657534246575 0.03424657534246575 0.03424657534246575 0.03424657534246575 0.03424657534246575
          0.03424657534246575 0.030582043883792882 0.03092270867232566 0.031611548382233845 0.032693212048025534 0.03424657534246575
          0.030561404862717745 0.0308851291049882 0.031566759664011936 0.03265795023167813 0.03424657534246575 0.030570582242025926
        </DataArray>
        <DataArray type="Float64" Name="Density" format="ascii" RangeMin="1" RangeMax="1.1219341746268978">
          1.121932293430061 1.1097354924453366 1.0853468416930194 1.0487668401410197 1 1.109742939091876
          1.0987656817100722 1.0768182664796155 1.0438962565776033 1 1.0853569703502515 1.076817708743628
          1.0597468781641672 1.0341423220148855 1 1.04877662496088 1.0438957061645222 1.0341407495398782
          1.019509556471459 1 1 1 1 1
          1 1.1219307492607604 1.1097378131198836 1.0853502679806613 1.048769478054001 1
          1.1219341746268978 1.109741291665879 1.085356747069429 1.048777917660679 1 1.1219330742322038
        </DataArray>
        <DataArray type="Float64" Name="Momentum" NumberOfComponents="3" format="ascii" RangeMin="0" RangeMax="0.012812300255651232">
          0.0037642130639321284 0.0037566119283302395 0 0.009979949200313587 0.003051216517974911 0
          0.012649387761969761 0.0018555229001379475 0 0.00975714476175029 0.0006446306651510935 0
          0 0 0 0.003062879933242612 0.010012029687921104 0
          0.008048561334320132 0.008033787973090751 0 0.01015921312192925 0.0048160876303344445 0
          0.007852854415239302 0.0015886718815125629 0 0 0 0
          0.0018544119467402346 0.01267738909132112 0 0.004831951694408612 0.010187198712588358 0
          0.006082782832358393 0.006059351039213999 0 0.004663067108628891 0.00195409024194837 0
          0 0 0 0.000635432378623738 0.009761525357064718 0
          0.0015947670802589665 0.00787308292637398 0 0.0019939543580895194 0.004705519146699582 0
          0.0014805514911732745 0.0014900606236455203 0 0 0 0
          0 0 0 0 0 0
          0 0 0 0 0 0
          0 0 0 -0.0036932893948326447 0.0037507116001770247 0
          -0.0029404969463998915 0.010007875244143906 0 -0.0017190139583295053 0.01266438146707321 0
          -0.0005200817270676686 0.009759311957538921 0 0 0 0
          0.0037714626923071853 -0.0037201397548355837 0 0.010036864552136303 -0.0029636919281258475 0
          0.012694940286120032 -0.0017191617408515204 0 0.009783462089021233 -0.0004914875955426605 0
          0 0 0 -0.0037219362242656047 -0.003739986413895833 0
          <InformationKey name="L2_NORM_RANGE" location="vtkDataArray" length="2">
            <Value index="0">
              0
            </Value>
            <Value index="1">
              0.012812300256
            </Value>
          </InformationKey>
        </DataArray>
        <DataArray type="Float64" Name="Energy" format="ascii" RangeMin="24.58904109589041" RangeMax="24.63900817462912">
          24.626059155611696 24.61395793226275 24.60188913218364 24.592596913496667 24.58904109589041 24.629175837653467
          24.61609311462196 24.603123576861 24.593104916366812 24.58904109589041 24.625513635742713 24.613581836973886
          24.601769179529335 24.592731700445583 24.58904109589041 24.612879207363253 24.60504129485156 24.59732052429522
          24.591424282778817 24.58904109589041 24.58904109589041 24.58904109589041 24.58904109589041 24.58904109589041
          24.58904109589041 24.635263971736478 24.63900817462912 24.63436984902099 24.618573164235283 24.58904109589041
          24.618713606477968 24.60914254734748 24.599614034745287 24.59221854141782 24.58904109589041 24.62608218008504
        </DataArray>
      </PointData>
      <CellData>
        <DataArray type="UInt8" Name="vtkGhostType" format="ascii" RangeMin="0" RangeMax="1">
          0 0 0 0 0 0
          0 0 0 0 0 0
          0 0 0 0 0 0
          0 0 0 0 0 0
          0 0 0 0 0 0
          0 0 1 1 1 1
          1 1 1 1 1 1
          1 1 1 1 1 1
          1
        </DataArray>
      </CellData>
      <Points>
        <DataArray type="Float32" Name="Points" NumberOfComponents="3" format="ascii" RangeMin="0.4444444477558136" RangeMax="1.1439589174192555">
          0.5555555820465088 0.4444444477558136 0 0.5555555820465088 0.3333333432674408 0
          0.5555555820465088 0.2222222238779068 0 0.5555555820465088 0.1111111119389534 0
          0.5555555820465088 0 0 0.6666666865348816 0.4444444477558136 0
          0.6666666865348816 0.3333333432674408 0 0.6666666865348816 0.2222222238779068 0
          0.6666666865348816 0.1111111119389534 0 0.6666666865348816 0 0
          0.7777777910232544 0.4444444477558136 0 0.7777777910232544 0.3333333432674408 0
          0.7777777910232544 0.2222222238779068 0 0.7777777910232544 0.1111111119389534 0
          0.7777777910232544 0 0 0.8888888955116272 0.4444444477558136 0
          0.8888888955116272 0.3333333432674408 0 0.8888888955116272 0.2222222238779068 0
          0.8888888955116272 0.1111111119389534 0 0.8888888955116272 0 0
          1 0.4444444477558136 0 1 0.3333333432674408 0
          1 0.2222222238779068 0 1 0.1111111119389534 0
          1 0 0 0.5555555820465088 0.5555555820465088 0
          0.6666666865348816 0.5555555820465088 0 0.7777777910232544 0.5555555820465088 0
          0.8888888955116272 0.5555555820465088 0 1 0.5555555820465088 0
          0.4444444477558136 0.4444444477558136 0 0.4444444477558136 0.3333333432674408 0
          0.4444444477558136 0.2222222238779068 0 0.4444444477558136 0.1111111119389534 0
          0.4444444477558136 0 0 0.4444444477558136 0.5555555820465088 0
          <InformationKey name="L2_NORM_RANGE" location="vtkDataArray" length="2">
            <Value index="0">
              0.44444444776
            </Value>
            <Value index="1">
              1.1439589174
            </Value>
          </InformationKey>
        </DataArray>
      </Points>
      <Cells>
        <DataArray type="Int64" Name="connectivity" format="ascii" RangeMin="0" RangeMax="34">
          0 1 5 1 6 5
          1 2 6 2 7 6
          2 3 7 3 8 7
          3 4 8 4 9 8
          5 6 10 6 11 10
          6 7 11 7 12 11
          7 8 12 8 13 12
          8 9 13 9 14 13
          10 11 15 11 16 15
          11 12 16 12 17 16
          12 13 17 13 18 17
          13 14 18 14 19 18
          15 16 20 16 21 20
          16 17 21 17 22 21
          17 18 22 18 23 22
          18 19 23 19 24 23
          0 26 25 0 5 26
          5 27 26 5 10 27
          10 28 27 10 15 28
          15 29 28 15 20 29
          31 0 30 31 1 0
          32 1 31 32 2 1
          33 2 32 33 3 2
          34 3 33 34 4 3
          30 0 25
        </DataArray>
        <DataArray type="Int64" Name="offsets" format="ascii" RangeMin="3" RangeMax="147">
          3 6 9 12 15 18
          21 24 27 30 33 36
          39 42 45 48 51 54
          57 60 63 66 69 72
          75 78 81 84 87 90
          93 96 99 102 105 108
          111 114 117 120 123 126
          129 132 135 138 141 144
          147
        </DataArray>
        <DataArray type="UInt8" Name="types" format="ascii" RangeMin="5" RangeMax="5">
          5 5 5 5 5 5
          5 5 5 5 5 5
          5 5 5 5 5 5
          5 5 5 5 5 5
          5 5 5 5 5 5
          5 5 5 5 5 5
          5 5 5 5 5 5
          5 5 5 5 5 5
          5
        </DataArray>
      </Cells>
    </Piece>
  </UnstructuredGrid>
</VTKFile>
