<?xml version="1.0"?>
<VTKFile type="UnstructuredGrid" version="0.1" byte_order="LittleEndian" header_type="UInt32" compressor="vtkZLibDataCompressor">
  <UnstructuredGrid>
    <Piece NumberOfPoints="32" NumberOfCells="44">
      <PointData>
        <DataArray type="Float64" Name="proc" format="ascii" RangeMin="0" RangeMax="1">
          0 0 0 0 0 0
          0 0 0 0 0 0
          0 0 0 0 0 0
          0 0 0 0 0 0
          0 0 0 1 1 1
          1 1
        </DataArray>
        <DataArray type="Float64" Name="Displacement" NumberOfComponents="3" format="ascii" RangeMin="2.0354765825246665e-11" RangeMax="7.313435999276056e-11">
          5.805438134045388e-11 0 0 3.750521079497071e-11 -9.545974337947191e-12 0
          5.184046197180819e-11 -3.170744373480365e-11 0 3.3514732898578275e-11 -3.670555286910373e-11 0
          2.818948824647369e-11 -1.522634263835264e-11 0 3.9402753417415274e-11 -4.7221206714709916e-11 0
          2.4223166914735238e-11 -2.9889228722608943e-11 0 4.5552244757691674e-11 -5.324008025101934e-11 0
          3.227469948660744e-11 -5.054327488584512e-11 0 3.758601043769717e-11 -5.531831885911842e-11 0
          1.8058223624360636e-11 -1.8185726031760073e-11 0 2.5298793850942795e-11 -4.33770914278564e-11 0
          1.7935866578476993e-11 -3.541334534123134e-11 0 3.734342849737666e-11 -5.9633445359091e-11 0
          2.6849292970118632e-11 -5.4335704033657486e-11 0 3.1653590415057466e-11 -5.908334394737358e-11 0
          8.187403474185328e-12 -1.8635528330356708e-11 0 2.0260495017736146e-11 -4.830328946215599e-11 0
          8.63720577278193e-12 -3.017704273246218e-11 0 1.1002476705579898e-11 -4.1760690554918635e-11 0
          2.811317093905602e-11 -6.144143965355167e-11 0 3.00846253785312e-11 -6.427048566081704e-11 0
          2.3511398772712925e-11 -5.7329609793097945e-11 0 1.568019693093155e-11 -5.199923000374186e-11 0
          2.72609458088337e-11 -6.211744747559323e-11 0 2.20268484229088e-11 -5.878685040466923e-11 0
          2.919149950102977e-11 -6.115824726422906e-11 0 3.113232526021177e-11 -6.212716045264424e-11 0
          2.920507375530044e-11 -6.378425542718042e-11 0 2.8399575782230646e-11 -6.429215836041522e-11 0
          2.925109400458562e-11 -6.70299046029874e-11 0 3.635931149559555e-11 -5.879709192499035e-11 0
          <InformationKey name="L2_NORM_RANGE" location="vtkDataArray" length="2">
            <Value index="0">
              2.0354765825e-11
            </Value>
            <Value index="1">
              7.3134359993e-11
            </Value>
          </InformationKey>
        </DataArray>
        <DataArray type="Float64" Name="TopologicalDerivative1" format="ascii" RangeMin="-0.07038875354722311" RangeMax="0.28499940115586253">
          0.28499940115586253 0.0617062336016274 0.05716892138914477 -0.026154086738494987 0.013796687331350518 -0.008402015996086906
          -0.008306908368816562 0.05727842979914689 -0.04550672031427063 0.001279412306143965 -0.054368687359574175 -0.0363168299244239
          -0.047076958673301875 0.03185835702416849 -0.047589387705164604 -0.04585433618532497 -0.07038875354722311 -0.027722952183650847
          -0.0641107864725747 -0.03116645986376397 -0.05377200098490313 -0.02264972524075594 -0.014388973738248531 0.014444877100922238
          -0.005128109317244875 0.054623713928003984 0.07828781331444189 0.00018682195660572887 -0.06007846800647101 -0.021999868957013655
          0.055122921578820275 0.07776590860051617
        </DataArray>
      </PointData>
      <CellData>
        <DataArray type="UInt8" Name="vtkGhostType" format="ascii" RangeMin="0" RangeMax="0">
          0 0 0 0 0 0
          0 0 0 0 0 0
          0 0 0 0 0 0
          0 0 0 0 0 0
          0 0 0 0 0 0
          0 0 0 0 0 0
          0 0 0 0 0 0
          0 0
        </DataArray>
        <DataArray type="Float64" Name="Stress" NumberOfComponents="6" format="ascii" RangeMin="0.00001280805811826666" RangeMax="0.11201822699113569">
          0.02778914101361394 -0.10621494975128211 0 0.02223131281089118 0 0
          -0.08423457982246095 0.0042935609087135125 0 0.002130687001396653 0 0
          -0.043883162666199446 -0.0005981523965233743 0 0.000016422766950370284 0 0
          -0.03269322859659532 -0.00041313114893996167 0 0.003036240756216851 0 0
          -0.00004159707960430666 0.000011324949430475366 0 0.000007564480982693218 0 0
          -0.00001213570813230871 0.0000032237522087479384 0 0.0000033615718814731485 0 0
          -0.000048190134917045625 0.000011078467273118864 0 -1.5681461157374514e-10 0 0
          -0.000007710896547370434 -0.000007710896547370726 0 0.000007710896547370002 0 0
          -0.06706610534781267 0.003924879106746205 0 0.005827826588001094 0 0
          -0.0067485613807524315 -0.00007191766967662699 0 0.0014807491790369515 0 0
          -0.00003592903637198152 0.000010272695625799484 0 0.000015208347480662476 0 0
          -0.006035712000554358 0.0003464544259644542 0 0.0011353302898898725 0 0
          -0.000014113158263908904 0.0000035112578777991063 0 0.000011638925141271226 0 0
          -0.000017919518172977317 0.0000022882375237758147 0 0.000019595562259244627 0 0
          -0.000028156297846497574 -3.212757740591968e-7 0 0.000011871512746318012 0 0
          -0.000011208748611296713 0.000013192623386506415 0 0.00001055958940719094 0 0
          -0.000025508067452111015 0.000006693495505831597 0 0.00002206825168516396 0 0
          -0.00002936552990387569 -0.0000032742623676669323 0 0.000010272689180692864 0 0
          0.000030951926316077116 0.000013364641171907345 0 0.000011598934442664681 0 0
          -0.000013734769038727608 -0.000002757486014123122 0 0.000025405687718294684 0 0
          -0.000008015282452845466 0.000016958504473625413 0 0.000004550155398994952 0 0
          0.007772638885183937 0.0006290451835027673 0 0.001090910164526103 0 0
          -0.000013008770495373681 -3.374908696100293e-7 0 0.00002177997532613133 0 0
          0.000022579062990178037 0.000012312665529694523 0 -5.147958737174491e-8 0 0
          0.0000034385830829885923 0.000005676016957611725 0 0.00002549263739051627 0 0
          0.0030388301211188556 -0.012985420664399453 0 0.02353550688354369 0 0
          -0.000012740409611529108 0.000019551932728603175 0 0.000017532515377674078 0 0
          0.0000074047026731107465 0.000027377441429764214 0 0.000019126506910489756 0 0
          0.000010372172704894465 0.000009729546154315943 0 0.000012156677076271846 0 0
          0.00014637998459233619 0.00008687250216631013 0 0.00005203572323589984 0 0
          0.000029160027587977142 0.000053932520405041445 0 0.000005626775234456948 0 0
          0.02210355580374007 0.0036943183067334436 0 0.0012358707378130457 0 0
          0.08583131411791782 0.0234222600629791 0 -0.012757658374277489 0 0
          0.03584498655632613 0.044247893787717194 0 0.0036540788545113183 0 0
          0.06519115616773646 0.01937595695997041 0 0.024440520692702545 0 0
          0.02614245563918855 0.0014368732154997187 0 0.007674448005906158 0 0
          -0.000008664564864426899 -3.932364867306882e-7 0 0.000009424278939873281 0 0
          0.0006103357183724594 -0.00433440160961515 0 0.002195024825983595 0 0
          0.015153600042912049 0.018588413378150932 0 0.00005294762784977035 0 0
          -0.002947371592977383 -0.06601222695500328 0 0.016867950676670306 0 0
          -0.000009103478342348784 -0.000009496752700986048 0 0.000020338841065881492 0 0
          0.07384504189131477 0.01850142184053049 0 0.015010884473261876 0 0
          -0.0011117072859842332 -0.006777077211516684 0 0.015741746307266467 0 0
          -0.08470162444360603 0.004373731637277861 0 -0.0021410294139983413 0 0
          <InformationKey name="L2_NORM_RANGE" location="vtkDataArray" length="2">
            <Value index="0">
              1.2808058118e-05
            </Value>
            <Value index="1">
              0.11201822699
            </Value>
          </InformationKey>
        </DataArray>
        <DataArray type="Float64" Name="Strain" NumberOfComponents="6" format="ascii" RangeMin="7.158840776106945e-14" RangeMax="5.89574479039172e-13">
          2.4855677474582736e-13 -4.772987168973595e-13 0 2.408392221179878e-13 0 0
          -3.5823255390604837e-13 1.2383578061108274e-13 0 2.3204751069145338e-14 0 0
          -1.9356897256890337e-13 5.5659839441411963e-14 0 1.8911982099403516e-16 0 0
          -1.874773518060388e-13 5.4079142728864535e-14 0 4.544123045632369e-14 0 0
          -1.8747735180603861e-13 9.918363879903067e-14 0 8.194854397917652e-14 0 0
          -5.4595140812221203e-14 2.8601936035168963e-14 0 3.6417028715959116e-14 0 0
          -1.9356897256890337e-13 9.595281232319599e-14 0 -1.5320505145142842e-18 0 0
          -2.249011492983007e-14 -2.249011492983164e-14 0 8.353471259650835e-14 0 0
          -3.1733257459886253e-13 1.1180789718821244e-13 0 7.045841864804406e-14 0 0
          -1.62545187748839e-13 4.718219691748607e-14 0 9.30268758091896e-14 0 0
          -1.62545187748839e-13 8.771419390580804e-14 0 1.6475709770717685e-13 0 0
          -2.338860112675826e-13 8.217594856964664e-14 0 1.1244918809830882e-13 0 0
          -6.319389844686933e-14 3.2271688987382406e-14 0 1.2608835569710497e-13 0 0
          -7.752495595879192e-14 3.1933720731954204e-14 0 2.1228525780848343e-13 0 0
          -1.169163129761659e-13 3.385672324954198e-14 0 1.286080547517785e-13 0 0
          -6.319389844686933e-14 6.898019987456429e-14 0 1.1439555191123514e-13 0 0
          -1.146504837660854e-13 5.977464892277044e-14 0 2.3907272658927626e-13 0 0
          -1.1826354663989837e-13 2.3064152514565725e-14 0 1.1128746612417268e-13 0 0
          1.1226055818543712e-13 1.699609698785088e-14 0 1.2565512312886738e-13 0 0
          -5.3781346810377783e-14 5.678936239563169e-15 0 2.7522828361485913e-13 0 0
          -5.4595140812221203e-14 8.067953837282938e-14 0 4.9293350155778635e-14 0 0
          1.3146581699569523e-13 -2.9516767063902193e-14 0 4.916784033251021e-14 0 0
          -5.3781346810377783e-14 1.4854751162508645e-14 0 2.3594973269975607e-13 0 0
          7.868859721362367e-14 2.3078944302671287e-14 0 -5.5769552986057e-16 0 0
          7.232408315437815e-15 1.9351841802979777e-14 0 2.761702383972597e-13 0 0
          4.664963066908232e-14 -9.348868014511835e-14 0 4.1165433853500727e-13 0 0
          -7.752495595879192e-14 9.739189838359127e-14 0 1.8993558325813575e-13 0 0
          -3.3688739825771572e-15 1.0481679428262908e-13 0 2.07203824863639e-13 0 0
          3.105545357749866e-14 2.757455976186502e-14 0 1.3169733499294502e-13 0 0
          1.0874303859614993e-13 3.8825690908839256e-14 0 1.2227705173606497e-13 0 0
          3.105545357749866e-14 1.0810448167116362e-13 0 3.5001529019943715e-14 0 0
          2.0509224279595295e-13 -2.868763301782147e-14 0 3.1388775081509027e-14 0 0
          3.283526504126004e-13 -9.69639238498436e-15 0 -1.382079657213395e-13 0 0
          1.0577542477942729e-13 1.5696885620498513e-13 0 4.4523836836655955e-14 0 0
          2.515286885646609e-13 -7.683734320402503e-16 0 2.6918017038298495e-13 0 0
          1.78969530123202e-13 -4.4589351743868116e-14 0 1.3889095879012866e-13 0 0
          -3.561080799336538e-14 9.192220719155756e-15 0 1.0209635518196054e-13 0 0
          6.258285912838008e-14 -1.4796916967037167e-13 0 1.8693285394901403e-13 0 0
          7.869444193408855e-14 1.153852787878992e-13 0 1.1311780790539506e-15 0 0
          7.350905103019712e-14 -2.8401841502027254e-13 0 1.9125567253819843e-13 0 0
          -2.6060218883554042e-14 -2.8190454992839217e-14 0 2.2033744488038283e-13 0 0
          3.236933797116415e-13 -1.7309674921243225e-14 0 1.8498094101638373e-13 0 0
          4.234498263148154e-15 -2.961232335695781e-14 0 1.8809295288901525e-13 0 0
          -3.583905997282891e-13 1.2410091237649863e-13 0 -2.3194485318315366e-14 0 0
          <InformationKey name="L2_NORM_RANGE" location="vtkDataArray" length="2">
            <Value index="0">
              7.1588407761e-14
            </Value>
            <Value index="1">
              5.8957447904e-13
            </Value>
          </InformationKey>
        </DataArray>
      </CellData>
      <Points>
        <DataArray type="Float32" Name="Points" NumberOfComponents="3" format="ascii" RangeMin="92.44066980668491" RangeMax="215.40659228538016">
          200 0 0 200 20 0
          175 0 0 170.3333282470703 25.352571487426758 0
          200 40 0 157 13.358983993530273 0
          180 45.35898208618164 0 150 0 0
          150 28.038475036621094 0 142.39999389648438 13.887187004089355 0
          200 60 0 160 45.35898208618164 0
          171.6666717529297 62.23291015625 0 125 0 0
          140 45.35898208618164 0 130 28.038475036621094 0
          200 80 0 150 62.67949295043945 0
          180 80 0 160 80 0
          120 45.35898208618164 0 110.71759033203125 23.771137237548828 0
          130 62.67949295043945 0 140 80 0
          110 62.67949295043945 0 120 80 0
          100 80 0 90 62.67949295043945 0
          100 45.35898208618164 0 89.30555725097656 23.870376586914062 0
          100 0 0 80 80 0
          <InformationKey name="L2_NORM_RANGE" location="vtkDataArray" length="2">
            <Value index="0">
              92.440669807
            </Value>
            <Value index="1">
              215.40659229
            </Value>
          </InformationKey>
        </DataArray>
      </Points>
      <Cells>
        <DataArray type="Int64" Name="connectivity" format="ascii" RangeMin="0" RangeMax="31">
          0 1 2 25 26 24
          24 26 27 25 24 22
          22 24 20 20 24 28
          28 24 27 16 18 10
          25 22 23 23 22 17
          17 22 14 23 17 19
          14 22 20 17 14 11
          19 17 12 14 20 15
          17 11 12 19 12 18
          15 20 21 12 11 6
          21 20 28 15 21 13
          6 11 3 21 28 29
          3 11 8 6 3 1
          8 11 14 3 8 5
          8 14 15 5 8 9
          8 15 9 9 15 13
          9 13 7 9 7 5
          5 7 2 5 2 3
          18 12 10 4 10 6
          21 29 30 1 4 6
          12 6 10 30 13 21
          3 2 1 27 26 31
        </DataArray>
        <DataArray type="Int64" Name="offsets" format="ascii" RangeMin="3" RangeMax="132">
          3 6 9 12 15 18
          21 24 27 30 33 36
          39 42 45 48 51 54
          57 60 63 66 69 72
          75 78 81 84 87 90
          93 96 99 102 105 108
          111 114 117 120 123 126
          129 132
        </DataArray>
        <DataArray type="UInt8" Name="types" format="ascii" RangeMin="5" RangeMax="5">
          5 5 5 5 5 5
          5 5 5 5 5 5
          5 5 5 5 5 5
          5 5 5 5 5 5
          5 5 5 5 5 5
          5 5 5 5 5 5
          5 5 5 5 5 5
          5 5
        </DataArray>
      </Cells>
    </Piece>
  </UnstructuredGrid>
</VTKFile>
