<?xml version="1.0"?>
<VTKFile type="UnstructuredGrid" version="0.1" byte_order="LittleEndian" header_type="UInt32" compressor="vtkZLibDataCompressor">
  <UnstructuredGrid>
    <Piece NumberOfPoints="37" NumberOfCells="52">
      <PointData>
        <DataArray type="Float64" Name="tem_BC" format="ascii" RangeMin="0" RangeMax="0">
          0 0 0 0 0 0
          0 0 0 0 0 0
          0 0 0 0 0 0
          0 0 0 0 0 0
          0 0 0 0 0 0
          0 0 0 0 0 0
          0
        </DataArray>
        <DataArray type="Float64" Name="tem_FIXNO" format="ascii" RangeMin="-1" RangeMax="1">
          1 1 1 -1 -1 1
          1 -1 -1 -1 1 1
          -1 -1 -1 -1 -1 1
          1 -1 -1 -1 -1 -1
          1 1 1 1 -1 1
          1 -1 1 1 1 1
          1
        </DataArray>
        <DataArray type="Float64" Name="Temperature" format="ascii" RangeMin="0" RangeMax="0.7369958174413704">
          0 0 0 0.728035147498708 0.6016960122447955 0
          0 0.5875739949053592 0.595317391293719 0.5560108966296856 0 0
          0.5882256835527103 0.4293358283361901 0.3380843736867627 0.7369958174413704 0.28811148046099466 0
          0 0.5850549844485573 0.5204699611229999 0.15112892612182785 0.32179423717281413 0.16904333045303796
          0 0 0 0 0.2965536844352427 0
          0 0.19322011241893788 0 0 0 0
          0
        </DataArray>
      </PointData>
      <CellData>
        <DataArray type="UInt8" Name="vtkGhostType" format="ascii" RangeMin="0" RangeMax="0">
          0 0 0 0 0 0
          0 0 0 0 0 0
          0 0 0 0 0 0
          0 0 0 0 0 0
          0 0 0 0 0 0
          0 0 0 0 0 0
          0 0 0 0 0 0
          0 0 0 0 0 0
          0 0 0 0
        </DataArray>
      </CellData>
      <Points>
        <DataArray type="Float32" Name="Points" NumberOfComponents="3" format="ascii" RangeMin="0" RangeMax="1.4142135623730951">
          1 0 0 0.800000011920929 0 0
          1 0.20000000298023224 0 0.8223291039466858 0.28333330154418945 0
          0.6535897850990295 0.20000000298023224 0 0.6000000238418579 0 0
          1 0.4000000059604645 0 0.6535897850990295 0.4000000059604645 0
          0.8267949223518372 0.5 0 0.4852291941642761 0.24313759803771973 0
          0.4000000059604645 0 0 1 0.6000000238418579 0
          0.6535897850990295 0.6000000238418579 0 0.48038479685783386 0.5 0
          0.30186039209365845 0.20196330547332764 0 0.8223291039466858 0.7166666984558105 0
          0.30717968940734863 0.4000000059604645 0 0.20000000298023224 0 0
          1 0.800000011920929 0 0.6535897850990295 0.800000011920929 0
          0.4669873118400574 0.7166666984558105 0 0.15644900500774384 0.34039270877838135 0
          0.30717968940734863 0.6000000238418579 0 0.17320510745048523 0.5 0
          0 0 0 1 1 0
          0.800000011920929 1 0 0 0.20000000298023224 0
          0.30775219202041626 0.8066666722297668 0 0 0.4000000059604645 0
          0.6000000238418579 1 0 0.16468949615955353 0.7177777886390686 0
          0 0.6000000238418579 0 0.4000000059604645 1 0
          0.20000000298023224 1 0 0 0.800000011920929 0
          0 1 0
          <InformationKey name="L2_NORM_RANGE" location="vtkDataArray" length="2">
            <Value index="0">
              0
            </Value>
            <Value index="1">
              1.4142135624
            </Value>
          </InformationKey>
        </DataArray>
      </Points>
      <Cells>
        <DataArray type="Int64" Name="connectivity" format="ascii" RangeMin="0" RangeMax="36">
          24 17 27 11 18 15
          35 32 31 15 18 26
          11 15 8 31 32 23
          8 15 12 11 8 6
          23 32 29 12 15 19
          6 8 3 19 15 26
          12 19 20 3 8 7
          20 19 33 12 20 13
          7 8 12 13 20 22
          12 13 7 22 20 28
          13 22 16 7 13 9
          22 28 31 31 28 34
          22 31 23 22 23 16
          16 23 21 21 23 29
          21 29 27 21 27 14
          16 21 14 14 27 17
          16 14 9 9 13 16
          7 9 4 4 9 5
          7 4 3 3 4 1
          1 0 2 30 33 19
          10 5 9 25 26 18
          2 6 3 2 3 1
          34 36 35 17 10 14
          33 34 28 28 20 33
          5 1 4 26 30 19
          35 31 34 9 14 10
        </DataArray>
        <DataArray type="Int64" Name="offsets" format="ascii" RangeMin="3" RangeMax="156">
          3 6 9 12 15 18
          21 24 27 30 33 36
          39 42 45 48 51 54
          57 60 63 66 69 72
          75 78 81 84 87 90
          93 96 99 102 105 108
          111 114 117 120 123 126
          129 132 135 138 141 144
          147 150 153 156
        </DataArray>
        <DataArray type="UInt8" Name="types" format="ascii" RangeMin="5" RangeMax="5">
          5 5 5 5 5 5
          5 5 5 5 5 5
          5 5 5 5 5 5
          5 5 5 5 5 5
          5 5 5 5 5 5
          5 5 5 5 5 5
          5 5 5 5 5 5
          5 5 5 5 5 5
          5 5 5 5
        </DataArray>
      </Cells>
    </Piece>
  </UnstructuredGrid>
</VTKFile>
