<?xml version="1.0"?>
<VTKFile type="UnstructuredGrid" version="0.1" byte_order="LittleEndian" header_type="UInt32" compressor="vtkZLibDataCompressor">
  <UnstructuredGrid>
    <Piece NumberOfPoints="45" NumberOfCells="67">
      <PointData>
        <DataArray type="Float64" Name="nsi_BC" NumberOfComponents="3" format="ascii" RangeMin="0" RangeMax="44">
          0 0 0 0 0 0
          0 0 0 0 0 0
          0 0 0 0 0 0
          0 0 0 0 0 0
          0 0 0 0 0 0
          0 0 0 0 0 0
          0 0 0 0 0 0
          0 0 0 0 0 0
          0 0 0 0 0 0
          0 0 0 0 0 0
          0 0 0 0 0 0
          0 0 0 0 0 0
          0 0 0 0 0 0
          0 0 0 0 0 0
          0 0 0 0 0 0
          0 0 0 0 0 0
          0 0 0 0 0 0
          0 0 0 0 0 0
          0 0 0 0 0 0
          0 0 0 0 0 0
          44 0 0 0 0 0
          44 0 0 44 0 0
          0 0 0
          <InformationKey name="L2_NORM_RANGE" location="vtkDataArray" length="2">
            <Value index="0">
              0
            </Value>
            <Value index="1">
              44
            </Value>
          </InformationKey>
        </DataArray>
        <DataArray type="Float64" Name="nsi_FIXNO" NumberOfComponents="3" format="ascii" RangeMin="1" RangeMax="1.4142135623730951">
          0 1 0 -1 -1 0
          0 1 0 -1 -1 0
          0 1 0 -1 -1 0
          -1 -1 0 0 1 0
          -1 -1 0 -1 -1 0
          0 1 0 -1 -1 0
          -1 -1 0 0 1 0
          1 0 0 -1 -1 0
          -1 -1 0 1 0 0
          1 0 0 -1 -1 0
          0 1 0 -1 -1 0
          -1 -1 0 0 1 0
          -1 -1 0 -1 -1 0
          1 0 0 -1 -1 0
          1 0 0 -1 -1 0
          1 0 0 0 1 0
          -1 -1 0 -1 -1 0
          0 1 0 -1 -1 0
          0 1 0 -1 -1 0
          -1 -1 0 0 1 0
          1 1 0 0 1 0
          1 1 0 1 1 0
          0 1 0
          <InformationKey name="L2_NORM_RANGE" location="vtkDataArray" length="2">
            <Value index="0">
              1
            </Value>
            <Value index="1">
              1.4142135624
            </Value>
          </InformationKey>
        </DataArray>
      </PointData>
      <CellData>
        <DataArray type="UInt8" Name="vtkGhostType" format="ascii" RangeMin="0" RangeMax="0">
          0 0 0 0 0 0
          0 0 0 0 0 0
          0 0 0 0 0 0
          0 0 0 0 0 0
          0 0 0 0 0 0
          0 0 0 0 0 0
          0 0 0 0 0 0
          0 0 0 0 0 0
          0 0 0 0 0 0
          0 0 0 0 0 0
          0 0 0 0 0 0
          0
        </DataArray>
      </CellData>
      <Points>
        <DataArray type="Float32" Name="Points" NumberOfComponents="3" format="ascii" RangeMin="0.028574999103019354" RangeMax="1.204541097921953">
          1.114400029182434 -0.45719999074935913 0 1.114400029182434 -0.14441269636154175 0
          0.7522138357162476 -0.45719999074935913 0 1.114400029182434 0.14780308306217194 0
          0.4567696750164032 -0.45719999074935913 0 0.43880194425582886 -0.19227321445941925 0
          0.5670586228370667 0.06042253598570824 0 0.2517681121826172 -0.45719999074935913 0
          0.2653692364692688 -0.2506345212459564 0 0.3520563244819641 0.0064490861259400845 0
          1.114400029182434 0.45719999074935913 0 0.25074562430381775 -0.06805335730314255 0
          0.3649561405181885 0.17054519057273865 0 0.7522138357162476 0.45719999074935913 0
          0.24003000557422638 0 0 0.16333219408988953 -0.12140321731567383 0
          0.25074562430381775 0.06805335730314255 0 0.1971675008535385 -0.024746675044298172 0
          0.1971675008535385 0.024746675044298172 0 0.07325717061758041 -0.271524041891098 0
          0.031685639172792435 -0.45719999074935913 0 0.11545279622077942 -0.003200044622644782 0
          0.053034476935863495 -0.09037953615188599 0 0.4567696750164032 0.45719999074935913 0
          0.1303781270980835 0.10237718373537064 0 0.21573273837566376 0.2782617211341858 0
          0.028574999421834946 0 0 0.03561127185821533 0.08647192269563675 0
          -0.014287499710917473 -0.024746675044298172 0 -0.04812280461192131 -0.12140321731567383 0
          -0.014287499710917473 0.024746675044298172 0 0.2517681121826172 0.45719999074935913 0
          -0.07858125120401382 2.220446049250313e-16 0 0.023825805634260178 0.2352563887834549 0
          -0.20755450427532196 -0.45719999074935913 0 -0.08769754320383072 0.1564512699842453 0
          0.031685639172792435 0.45719999074935913 0 -0.28333646059036255 -0.15488123893737793 0
          -0.2888784408569336 0.15345117449760437 0 -0.45719999074935913 -0.45719999074935913 0
          -0.45719999074935913 -0.21111147105693817 0 -0.20755450427532196 0.45719999074935913 0
          -0.45719999074935913 0.0008695335709489882 0 -0.45719999074935913 0.21139274537563324 0
          -0.45719999074935913 0.45719999074935913 0
          <InformationKey name="L2_NORM_RANGE" location="vtkDataArray" length="2">
            <Value index="0">
              0.028574999103
            </Value>
            <Value index="1">
              1.2045410979
            </Value>
          </InformationKey>
        </DataArray>
      </Points>
      <Cells>
        <DataArray type="Int64" Name="connectivity" format="ascii" RangeMin="0" RangeMax="44">
          26 28 22 30 26 27
          17 18 21 28 30 32
          14 17 11 18 14 16
          22 28 29 21 18 24
          11 17 15 27 26 21
          32 30 35 16 14 9
          26 22 21 17 21 15
          14 11 9 30 27 35
          28 32 29 18 16 24
          22 29 19 11 15 8
          16 9 12 21 24 27
          27 24 33 32 35 38
          21 22 15 35 27 33
          24 16 25 9 11 5
          29 32 37 15 22 19
          15 19 8 19 29 34
          8 19 7 12 9 6
          38 35 41 11 8 5
          5 8 4 16 12 25
          25 12 23 32 38 37
          37 38 42 33 25 36
          35 33 41 24 25 33
          9 5 6 29 37 34
          7 4 8 23 31 25
          20 7 19 31 36 25
          43 42 38 42 40 37
          12 6 13 33 36 41
          34 20 19 39 34 37
          41 44 38 44 43 38
          40 39 37 6 5 2
          4 2 5 1 3 6
          13 23 12 6 10 13
          0 1 6 10 6 3
          2 0 6
        </DataArray>
        <DataArray type="Int64" Name="offsets" format="ascii" RangeMin="3" RangeMax="201">
          3 6 9 12 15 18
          21 24 27 30 33 36
          39 42 45 48 51 54
          57 60 63 66 69 72
          75 78 81 84 87 90
          93 96 99 102 105 108
          111 114 117 120 123 126
          129 132 135 138 141 144
          147 150 153 156 159 162
          165 168 171 174 177 180
          183 186 189 192 195 198
          201
        </DataArray>
        <DataArray type="UInt8" Name="types" format="ascii" RangeMin="5" RangeMax="5">
          5 5 5 5 5 5
          5 5 5 5 5 5
          5 5 5 5 5 5
          5 5 5 5 5 5
          5 5 5 5 5 5
          5 5 5 5 5 5
          5 5 5 5 5 5
          5 5 5 5 5 5
          5 5 5 5 5 5
          5 5 5 5 5 5
          5 5 5 5 5 5
          5
        </DataArray>
      </Cells>
    </Piece>
  </UnstructuredGrid>
</VTKFile>
