<?xml version="1.0"?>
<VTKFile type="UnstructuredGrid" version="0.1" byte_order="LittleEndian" header_type="UInt32" compressor="vtkZLibDataCompressor">
  <UnstructuredGrid>
    <Piece NumberOfPoints="45" NumberOfCells="67">
      <PointData>
        <DataArray type="Float64" Name="nsi_BC" NumberOfComponents="3" format="ascii" RangeMin="0" RangeMax="44">
          0 0 0 0 0 0
          0 0 0 0 0 0
          0 0 0 0 0 0
          0 0 0 0 0 0
          0 0 0 0 0 0
          0 0 0 0 0 0
          0 0 0 0 0 0
          0 0 0 0 0 0
          0 0 0 0 0 0
          0 0 0 0 0 0
          0 0 0 0 0 0
          0 0 0 0 0 0
          0 0 0 0 0 0
          0 0 0 0 0 0
          0 0 0 0 0 0
          0 0 0 0 0 0
          0 0 0 0 0 0
          0 0 0 0 0 0
          0 0 0 0 0 0
          0 0 0 0 0 0
          44 0 0 0 0 0
          44 0 0 44 0 0
          0 0 0
          <InformationKey name="L2_NORM_RANGE" location="vtkDataArray" length="2">
            <Value index="0">
              0
            </Value>
            <Value index="1">
              44
            </Value>
          </InformationKey>
        </DataArray>
        <DataArray type="Float64" Name="nsi_FIXNO" NumberOfComponents="3" format="ascii" RangeMin="1" RangeMax="1.4142135623730951">
          0 1 0 -1 -1 0
          0 1 0 -1 -1 0
          0 1 0 -1 -1 0
          -1 -1 0 0 1 0
          -1 -1 0 -1 -1 0
          0 1 0 -1 -1 0
          -1 -1 0 0 1 0
          1 0 0 -1 -1 0
          -1 -1 0 1 0 0
          1 0 0 -1 -1 0
          0 1 0 -1 -1 0
          -1 -1 0 0 1 0
          -1 -1 0 -1 -1 0
          1 0 0 -1 -1 0
          1 0 0 -1 -1 0
          1 0 0 0 1 0
          -1 -1 0 -1 -1 0
          0 1 0 -1 -1 0
          0 1 0 -1 -1 0
          -1 -1 0 0 1 0
          1 1 0 0 1 0
          1 1 0 1 1 0
          0 1 0
          <InformationKey name="L2_NORM_RANGE" location="vtkDataArray" length="2">
            <Value index="0">
              1
            </Value>
            <Value index="1">
              1.4142135624
            </Value>
          </InformationKey>
        </DataArray>
        <DataArray type="Float64" Name="Velocity" NumberOfComponents="3" format="ascii" RangeMin="0.045513631122737125" RangeMax="321.0998124230234">
          15.942642750196578 0 0 15.963161885993534 -0.0017363944914395037 0
          16.02430384026183 0 0 15.96970753607681 -0.0017333237555108374 0
          15.635445380402984 0 0 15.839301031559199 -0.06751407378387914 0
          15.929707512758755 0.00431000074694095 0 18.433583468500196 0 0
          16.09177496535729 -0.01838601947357812 0 16.5941272583397 -0.008418993869243954 0
          15.923226033908902 0 0 17.192104515087564 0.7602556870437934 0
          15.701461551079086 0.03588563680962591 0 16.09942501119853 0 0
          1.2761886033438657e-17 -0.045513631122737125 0 16.044244708425722 0.20424654204778042 0
          16.836433548456988 -0.712312651864978 0 16.896901589017308 -9.755430675709691 0
          16.900450152326336 9.757479439690298 0 11.98622628084623 -1.6282514422168595 0
          6.317195726169788 0 0 15.392618862349664 -0.02151626687756019 0
          23.639130462528794 1.3380826207307042 0 15.437020124227981 0 0
          16.124816977419886 -0.3137236446193671 0 17.943903358624258 0.27380385157168297 0
          0 0.6200636719426232 0 24.030611809383192 -1.5218744499649905 0
          26.0096237013599 -15.016663237527235 0 -5.708655985291603 -0.03206264898045508 0
          26.562791231032534 15.336034659521136 0 16.54727010624909 0 0
          -10.043928160904732 -0.4043868504184721 0 9.847936649221152 1.9580403675535367 0
          51.95851153895915 0 0 -5.474783971185621 0.11494481771774473 0
          8.072026196174587 0 0 69.31100594009112 -7.204694412017986 0
          70.27970348443574 7.599311119712208 0 -315.6490535165233 0 0
          43.999999999980474 0 0 56.56220592764551 0 0
          43.99999999998047 0 0 43.999999999980474 0 0
          -321.0998124230234 0 0
          <InformationKey name="L2_NORM_RANGE" location="vtkDataArray" length="2">
            <Value index="0">
              0.045513631123
            </Value>
            <Value index="1">
              321.09981242
            </Value>
          </InformationKey>
        </DataArray>
        <DataArray type="Float64" Name="Pressure" format="ascii" RangeMin="0" RangeMax="27447.159360182482">
          0 0 6817.627512302692 0 12373.818865728485 12719.876757893297
          10303.408399269296 16230.004693485611 15993.579048737542 14347.468902764262 0 16273.654324763427
          14110.1881715707 6816.48761611133 16370.209585396316 17969.311806034246 16276.744286302976 17381.833910230955
          17380.99589844884 19584.46066627097 20229.41255055728 18903.14293423586 20132.741446797412 12372.381324520691
          18604.04218274951 16925.580640277673 20498.65617557139 20446.47299927948 21530.880454726193 22176.861842634564
          21512.43016769125 16221.395165701322 22865.304099894045 20546.33560154481 24442.719802935662 22845.248831614594
          20229.690994758366 26241.677864155146 26321.893118940774 26869.015061831993 27057.019981803216 24407.84205822691
          27447.159360182482 27128.41860359261 26884.127895154255
        </DataArray>
        <DataArray type="Float64" Name="BTraction" NumberOfComponents="3" format="ascii" RangeMin="0" RangeMax="27328.966182769913">
          0.000003973346844306111 1219.4308488179074 0 0.000002803069793526641 5.870867020422852e-7 0
          -0.000004333118718344712 6398.087674591101 0 0.000003012409989938762 -0.0000014019001467890408 0
          0.00006784008469702663 11806.977465783517 0 0 0 0
          0 0 0 -0.00007905367588986139 16300.324644903852 0
          0 0 0 0 0 0
          0.0000079658480094762 -1225.382072121345 0 0 0 0
          0 0 0 -0.00000677621465140178 -6397.112467579124 0
          8353.642014899962 -0.12096504897551469 0 0 0 0
          0 0 0 -4429.619035518837 -7380.538933532522 0
          -4429.618965603143 7380.2967402477025 0 0 0 0
          -0.0008437192303522967 20322.152801238997 0 0 0 0
          0 0 0 -0.00006694304049118576 -11804.619209823719 0
          0 0 0 0 0 0
          10419.835273582356 -2.661547375502111 0 0 0 0
          -5465.650415656481 -9174.15435858345 0 0 0 0
          -5465.64941737085 9168.830100759396 0 -0.00020329727669884641 -16294.40181344629 0
          0 0 0 0 0 0
          -0.004565492774531281 24168.437746650066 0 0 0 0
          -0.00014192562972817135 -20314.907826659557 0 0 0 0
          0 0 0 13369.224393386961 13123.605673856435 0
          27083.53825507478 -0.01338663513116536 0 -0.004145175951289617 -24147.8037745934 0
          27328.966182769913 -0.00003069034673555975 0 27133.575525222335 0.013588741453656876 0
          13378.330928184992 -13130.274937496408 0
          <InformationKey name="L2_NORM_RANGE" location="vtkDataArray" length="2">
            <Value index="0">
              0
            </Value>
            <Value index="1">
              27328.966183
            </Value>
          </InformationKey>
        </DataArray>
        <DataArray type="Float64" Name="Time_Average_Velocity" NumberOfComponents="3" format="ascii" RangeMin="0.045513631122737125" RangeMax="321.0998124230234">
          15.942642750196578 0 0 15.963161885993536 -0.0017363944914395037 0
          16.02430384026183 0 0 15.969707536076811 -0.0017333237555108374 0
          15.635445380402984 0 0 15.839301031559199 -0.06751407378387914 0
          15.929707512758757 0.00431000074694095 0 18.433583468500196 0 0
          16.09177496535729 -0.01838601947357812 0 16.5941272583397 -0.008418993869243954 0
          15.923226033908902 0 0 17.192104515087564 0.7602556870437934 0
          15.701461551079088 0.03588563680962591 0 16.09942501119853 0 0
          1.2761886033438657e-17 -0.045513631122737125 0 16.044244708425722 0.20424654204778042 0
          16.836433548456988 -0.712312651864978 0 16.896901589017308 -9.755430675709691 0
          16.900450152326336 9.757479439690298 0 11.98622628084623 -1.6282514422168595 0
          6.317195726169788 0 0 15.392618862349664 -0.02151626687756019 0
          23.639130462528794 1.3380826207307042 0 15.437020124227981 0 0
          16.124816977419886 -0.3137236446193671 0 17.943903358624258 0.27380385157168297 0
          0 0.6200636719426232 0 24.030611809383192 -1.5218744499649905 0
          26.0096237013599 -15.016663237527235 0 -5.708655985291603 -0.03206264898045508 0
          26.562791231032534 15.336034659521136 0 16.54727010624909 0 0
          -10.043928160904732 -0.4043868504184721 0 9.847936649221152 1.958040367553537 0
          51.95851153895915 0 0 -5.474783971185621 0.11494481771774473 0
          8.072026196174587 0 0 69.31100594009112 -7.204694412017986 0
          70.27970348443574 7.599311119712208 0 -315.6490535165233 0 0
          43.999999999980474 0 0 56.56220592764551 0 0
          43.99999999998047 0 0 43.999999999980474 0 0
          -321.0998124230234 0 0
          <InformationKey name="L2_NORM_RANGE" location="vtkDataArray" length="2">
            <Value index="0">
              0.045513631123
            </Value>
            <Value index="1">
              321.09981242
            </Value>
          </InformationKey>
        </DataArray>
        <DataArray type="Float64" Name="Time_Average_Pressure" format="ascii" RangeMin="0" RangeMax="27447.159360182482">
          0 0 6817.627512302692 0 12373.818865728485 12719.876757893297
          10303.408399269296 16230.004693485611 15993.579048737542 14347.468902764262 0 16273.654324763427
          14110.1881715707 6816.48761611133 16370.209585396316 17969.311806034246 16276.744286302976 17381.833910230955
          17380.99589844884 19584.46066627097 20229.41255055728 18903.14293423586 20132.741446797412 12372.381324520691
          18604.04218274951 16925.580640277673 20498.65617557139 20446.47299927948 21530.880454726193 22176.861842634564
          21512.43016769125 16221.395165701324 22865.304099894045 20546.33560154481 24442.719802935662 22845.248831614594
          20229.690994758366 26241.677864155146 26321.893118940774 26869.015061831993 27057.019981803216 24407.84205822691
          27447.159360182482 27128.41860359261 26884.127895154255
        </DataArray>
        <DataArray type="Float64" Name="RMS_Velocity" NumberOfComponents="3" format="ascii" RangeMin="0" RangeMax="0.000005331201499700045">
          0 0 0 0 0 0
          3.332000937312528e-7 0 0 0 0 0
          2.356080457693621e-7 0 0 0 0 0
          0 0 0 0 0 0
          0 0 0 0 0 0
          0 0 0 0 0 0
          0 6.507814330688532e-10 0 0 0 0
          2.0435740406256524e-25 0 0 0 0 0
          0 0 0 0 0 0
          0 0 0 0 0 0
          0 0 0 0 0 0
          0 0 0 0 0 0
          0 0 0 0 0 0
          0 0 0 0 2.9451005721170262e-8 0
          4.712160915387242e-7 0 0 0 0 0
          0 2.356080457693621e-7 0 0 0 0
          0 7.3627514302925655e-9 0 1.666000468656264e-7 0 0
          0 0 0 0 0 0
          1.666000468656264e-7 0 0 0 0 0
          0 1.1780402288468105e-7 0 0.000005331201499700045 0 0
          0 0 0 0 0 0
          0 0 0 0 0 0
          0 0 0
          <InformationKey name="L2_NORM_RANGE" location="vtkDataArray" length="2">
            <Value index="0">
              0
            </Value>
            <Value index="1">
              5.3312014997e-06
            </Value>
          </InformationKey>
        </DataArray>
        <DataArray type="Float64" Name="RMS_Pressure" format="ascii" RangeMin="0" RangeMax="0.0003411968959808029">
          0 0 0 0 0 0
          0 0 0 0 0 0
          0 0 0 0 0 0
          0 0 0 0.0003411968959808029 0 0
          0 0 0 0 0 0
          0 0 0 0.0003411968959808029 0 0
          0 0 0 0 0 0
          0 0 0
        </DataArray>
        <DataArray type="Float64" Name="Turbulence_Intensity" format="ascii" RangeMin="0" RangeMax="1.4703168893826492e-8">
          0 0 1.4703168893826492e-8 0 1.0655279898482335e-8 0
          0 0 0 0 0 0
          2.9307511345239705e-11 0 3.1749280959068647e-24 0 0 0
          0 0 0 0 0 0
          0 0 0 8.648705680616226e-10 1.1094345272586153e-8 0
          5.431653308629157e-9 0 5.179285236139304e-10 1.1732643311752012e-8 0 0
          1.4594108098968949e-8 0 1.1783954211383375e-9 1.1942784843840692e-8 0 0
          0 0 0
        </DataArray>
        <DataArray type="Float64" Name="Time_Average_Tractions" NumberOfComponents="3" format="ascii" RangeMin="0" RangeMax="27328.966182769913">
          0.000003973346844306111 1219.4308488179074 0 0.000002803069793526641 5.870867020422852e-7 0
          -0.000004333118718344712 6398.087674591101 0 0.000003012409989938762 -0.0000014019001467890408 0
          0.00006784008469702663 11806.977465783517 0 0 0 0
          0 0 0 -0.00007905367588986139 16300.324644903852 0
          0 0 0 0 0 0
          0.0000079658480094762 -1225.382072121345 0 0 0 0
          0 0 0 -0.00000677621465140178 -6397.112467579124 0
          8353.642014899962 -0.12096504897551469 0 0 0 0
          0 0 0 -4429.619035518837 -7380.538933532522 0
          -4429.618965603143 7380.2967402477025 0 0 0 0
          -0.0008437192303522967 20322.152801238997 0 0 0 0
          0 0 0 -0.00006694304049118576 -11804.619209823719 0
          0 0 0 0 0 0
          10419.835273582356 -2.661547375502111 0 0 0 0
          -5465.650415656481 -9174.15435858345 0 0 0 0
          -5465.64941737085 9168.830100759396 0 -0.00020329727669884641 -16294.401813446288 0
          0 0 0 0 0 0
          -0.004565492774531281 24168.437746650066 0 0 0 0
          -0.00014192562972817135 -20314.907826659557 0 0 0 0
          0 0 0 13369.224393386961 13123.605673856435 0
          27083.53825507478 -0.01338663513116536 0 -0.004145175951289617 -24147.8037745934 0
          27328.966182769913 -0.00003069034673555975 0 27133.575525222335 0.013588741453656876 0
          13378.330928184992 -13130.274937496408 0
          <InformationKey name="L2_NORM_RANGE" location="vtkDataArray" length="2">
            <Value index="0">
              0
            </Value>
            <Value index="1">
              27328.966183
            </Value>
          </InformationKey>
        </DataArray>
      </PointData>
      <CellData>
        <DataArray type="UInt8" Name="vtkGhostType" format="ascii" RangeMin="0" RangeMax="0">
          0 0 0 0 0 0
          0 0 0 0 0 0
          0 0 0 0 0 0
          0 0 0 0 0 0
          0 0 0 0 0 0
          0 0 0 0 0 0
          0 0 0 0 0 0
          0 0 0 0 0 0
          0 0 0 0 0 0
          0 0 0 0 0 0
          0 0 0 0 0 0
          0
        </DataArray>
      </CellData>
      <Points>
        <DataArray type="Float32" Name="Points" NumberOfComponents="3" format="ascii" RangeMin="0.028574999103019354" RangeMax="1.204541097921953">
          1.114400029182434 -0.45719999074935913 0 1.114400029182434 -0.14441269636154175 0
          0.7522138357162476 -0.45719999074935913 0 1.114400029182434 0.14780308306217194 0
          0.4567696750164032 -0.45719999074935913 0 0.43880194425582886 -0.19227321445941925 0
          0.5670586228370667 0.06042253598570824 0 0.2517681121826172 -0.45719999074935913 0
          0.2653692364692688 -0.2506345212459564 0 0.3520563244819641 0.0064490861259400845 0
          1.114400029182434 0.45719999074935913 0 0.25074562430381775 -0.06805335730314255 0
          0.3649561405181885 0.17054519057273865 0 0.7522138357162476 0.45719999074935913 0
          0.24003000557422638 0 0 0.16333219408988953 -0.12140321731567383 0
          0.25074562430381775 0.06805335730314255 0 0.1971675008535385 -0.024746675044298172 0
          0.1971675008535385 0.024746675044298172 0 0.07325717061758041 -0.271524041891098 0
          0.031685639172792435 -0.45719999074935913 0 0.11545279622077942 -0.003200044622644782 0
          0.053034476935863495 -0.09037953615188599 0 0.4567696750164032 0.45719999074935913 0
          0.1303781270980835 0.10237718373537064 0 0.21573273837566376 0.2782617211341858 0
          0.028574999421834946 0 0 0.03561127185821533 0.08647192269563675 0
          -0.014287499710917473 -0.024746675044298172 0 -0.04812280461192131 -0.12140321731567383 0
          -0.014287499710917473 0.024746675044298172 0 0.2517681121826172 0.45719999074935913 0
          -0.07858125120401382 2.220446049250313e-16 0 0.023825805634260178 0.2352563887834549 0
          -0.20755450427532196 -0.45719999074935913 0 -0.08769754320383072 0.1564512699842453 0
          0.031685639172792435 0.45719999074935913 0 -0.28333646059036255 -0.15488123893737793 0
          -0.2888784408569336 0.15345117449760437 0 -0.45719999074935913 -0.45719999074935913 0
          -0.45719999074935913 -0.21111147105693817 0 -0.20755450427532196 0.45719999074935913 0
          -0.45719999074935913 0.0008695335709489882 0 -0.45719999074935913 0.21139274537563324 0
          -0.45719999074935913 0.45719999074935913 0
          <InformationKey name="L2_NORM_RANGE" location="vtkDataArray" length="2">
            <Value index="0">
              0.028574999103
            </Value>
            <Value index="1">
              1.2045410979
            </Value>
          </InformationKey>
        </DataArray>
      </Points>
      <Cells>
        <DataArray type="Int64" Name="connectivity" format="ascii" RangeMin="0" RangeMax="44">
          26 28 22 30 26 27
          17 18 21 28 30 32
          14 17 11 18 14 16
          22 28 29 21 18 24
          11 17 15 27 26 21
          32 30 35 16 14 9
          26 22 21 17 21 15
          14 11 9 30 27 35
          28 32 29 18 16 24
          22 29 19 11 15 8
          16 9 12 21 24 27
          27 24 33 32 35 38
          21 22 15 35 27 33
          24 16 25 9 11 5
          29 32 37 15 22 19
          15 19 8 19 29 34
          8 19 7 12 9 6
          38 35 41 11 8 5
          5 8 4 16 12 25
          25 12 23 32 38 37
          37 38 42 33 25 36
          35 33 41 24 25 33
          9 5 6 29 37 34
          7 4 8 23 31 25
          20 7 19 31 36 25
          43 42 38 42 40 37
          12 6 13 33 36 41
          34 20 19 39 34 37
          41 44 38 44 43 38
          40 39 37 6 5 2
          4 2 5 1 3 6
          13 23 12 6 10 13
          0 1 6 10 6 3
          2 0 6
        </DataArray>
        <DataArray type="Int64" Name="offsets" format="ascii" RangeMin="3" RangeMax="201">
          3 6 9 12 15 18
          21 24 27 30 33 36
          39 42 45 48 51 54
          57 60 63 66 69 72
          75 78 81 84 87 90
          93 96 99 102 105 108
          111 114 117 120 123 126
          129 132 135 138 141 144
          147 150 153 156 159 162
          165 168 171 174 177 180
          183 186 189 192 195 198
          201
        </DataArray>
        <DataArray type="UInt8" Name="types" format="ascii" RangeMin="5" RangeMax="5">
          5 5 5 5 5 5
          5 5 5 5 5 5
          5 5 5 5 5 5
          5 5 5 5 5 5
          5 5 5 5 5 5
          5 5 5 5 5 5
          5 5 5 5 5 5
          5 5 5 5 5 5
          5 5 5 5 5 5
          5 5 5 5 5 5
          5 5 5 5 5 5
          5
        </DataArray>
      </Cells>
    </Piece>
  </UnstructuredGrid>
</VTKFile>
