<?xml version="1.0"?>
<VTKFile type="UnstructuredGrid" version="0.1" byte_order="LittleEndian" header_type="UInt32" compressor="vtkZLibDataCompressor">
  <UnstructuredGrid>
    <Piece NumberOfPoints="40" NumberOfCells="55">
      <PointData>
        <DataArray type="Float64" Name="nsi_BC" NumberOfComponents="3" format="ascii" RangeMin="0" RangeMax="0.01">
          0 0 0 0 0 0
          0 0 0 0 0.00002 0
          0 0 0 0 0.00002 0
          0 0 0 0 0 0
          0 0 0 0 0.00002 0
          0 0 0 0 0 0
          0 0.00002 0 0 0 0
          0 0 0 0 0.00002 0
          0 0 0 0 0 0
          0 0 0 0 0 0
          0 0 0 0 0 0
          0 0 0 0 0 0
          0 0 0 0 0 0
          0 0 0 0 0 0
          0 0 0 0 0 0
          0 0 0 0 0 0
          0 0 0 0 0 0
          0.01 0 0 0.01 0 0
          0 0 0 0 0 0
          0 0 0 0 0 0
          <InformationKey name="L2_NORM_RANGE" location="vtkDataArray" length="2">
            <Value index="0">
              0
            </Value>
            <Value index="1">
              0.01
            </Value>
          </InformationKey>
        </DataArray>
        <DataArray type="Float64" Name="nsi_FIXNO" NumberOfComponents="3" format="ascii" RangeMin="1" RangeMax="1.4142135623730951">
          1 1 0 -1 -1 0
          1 1 0 0 1 0
          0 1 0 0 1 0
          0 1 0 -1 -1 0
          0 1 0 0 1 0
          -1 -1 0 0 1 0
          0 1 0 -1 -1 0
          0 1 0 0 1 0
          -1 -1 0 -1 -1 0
          -1 -1 0 -1 -1 0
          0 1 0 -1 -1 0
          -1 -1 0 -1 -1 0
          -1 -1 0 -1 -1 0
          -1 -1 0 -1 -1 0
          1 1 0 1 0 0
          -1 -1 0 -1 -1 0
          1 0 0 1 0 0
          1 1 0 1 1 0
          1 0 0 1 0 0
          1 0 0 1 1 0
          <InformationKey name="L2_NORM_RANGE" location="vtkDataArray" length="2">
            <Value index="0">
              1
            </Value>
            <Value index="1">
              1.4142135624
            </Value>
          </InformationKey>
        </DataArray>
        <DataArray type="Float64" Name="tem_BC" format="ascii" RangeMin="0" RangeMax="0.001">
          0 0 0 0 0 0
          0 0 0 0 0 0
          0 0 0 0 0 0
          0 0 0 0 0 0
          0 0 0 0 0 0
          0 0 0 0 0.001 0.001
          0 0 0 0
        </DataArray>
        <DataArray type="Float64" Name="tem_FIXNO" format="ascii" RangeMin="-1" RangeMax="1">
          -1 -1 -1 -1 -1 -1
          -1 -1 -1 -1 -1 -1
          -1 -1 -1 -1 -1 -1
          -1 -1 -1 -1 -1 -1
          -1 -1 -1 -1 -1 -1
          -1 -1 -1 -1 1 1
          -1 -1 -1 -1
        </DataArray>
        <DataArray type="Float64" Name="Velocity" NumberOfComponents="3" format="ascii" RangeMin="0" RangeMax="0.01">
          0 0 0 0.000006469665873545709 -4.0485240614863593e-7 0
          0 0 0 0.000007457744700909585 0.000019999999999999998 0
          0.000005755848450035226 0 0 0.000012257685789778489 0.00002 0
          0.00001352285086664711 0 0 0.000019533555972044493 -0.000003270138648437206 0
          -0.0000011873379206902084 0 0 0.00001612038056924612 0.000019999999999999998 0
          0.000017866315672665855 0.000003075805287742864 0 0.0001629394724537079 0 0
          -0.00002118917887366255 0.00002 0 -0.00007329957332322026 0.00011444723425385789 0
          -0.00042853818283344506 0 0 -0.000020083817956767088 0.00002 0
          0.00012845135888897455 0.00009647418174194704 0 -0.000617133879497605 -0.000059206848913461074 0
          0.001106893494494126 -0.0006728245736805461 0 0.0019126237724065257 0.0009980167050455272 0
          0.00004581508213461028 0 0 0.0030576746294406426 -0.0016437987055235243 0
          -0.0002512287142403419 0.0013371295056936472 0 -0.0004981027723683711 -0.0011746640109970158 0
          0.004603095751590161 0.0021065457601799464 0 0.006862269618434779 -0.0015918592705537243 0
          0.0011917636007165503 -0.0019500935717298856 0 0.007948298369450477 0.0010609288251501885 0
          0 0 0 0 0.0007101879689559042 0
          0.005226259854140148 -0.0012628660344036879 0 0.009124475829845156 -0.0005256949859430468 0
          0 0.00038408378043148676 0 0 -0.0002787154492405444 0
          0.01 0 0 0.01 0 0
          0 -0.00043227085078375986 0 0 -0.0006623196080431684 0
          0 -0.00020294580344114324 0 0 0 0
          <InformationKey name="L2_NORM_RANGE" location="vtkDataArray" length="2">
            <Value index="0">
              0
            </Value>
            <Value index="1">
              0.01
            </Value>
          </InformationKey>
        </DataArray>
        <DataArray type="Float64" Name="Pressure" format="ascii" RangeMin="0.021971988756386424" RangeMax="0.038715046012415204">
          0.023826745165322228 0.023888604955979244 0.023816146409911094 0.02406546807750562 0.024171756240953517 0.024467282522618497
          0.024532712042676628 0.024728809244944302 0.024967799360286314 0.026024519956052844 0.025819625582702788 0.02596201194171628
          0.026175167976933828 0.02651129739225363 0.02724959090035115 0.025969813775890308 0.02648382763769225 0.03070198154495519
          0.030867627637834114 0.03142456745453163 0.03531418745174987 0.03262754049218969 0.02965257091290519 0.037394714674474486
          0.027011253050892674 0.026528217025367947 0.029182267314914558 0.02407663397808707 0.02584367804337344 0.028054218215560693
          0.024041044305738533 0.025484686592129765 0.029853868696420673 0.025546854598923172 0.02286846413876284 0.021971988756386424
          0.026576770333025385 0.035710722015331035 0.038653458946213304 0.038715046012415204
        </DataArray>
        <DataArray type="Float64" Name="Temperature" format="ascii" RangeMin="-0.00006467425986347556" RangeMax="0.0010000000000000002">
          1.5616323249751912e-8 1.0626323734211721e-8 1.823239981745771e-8 -6.786957757114682e-8 -7.626277999696535e-8 2.1537597146737662e-7
          1.840420847605964e-7 7.557746816022882e-8 -5.228329635434829e-7 -7.79332992489581e-7 1.8497177013972508e-7 -4.63937986322171e-8
          0.000003314936276758668 0.00000270893127716246 -0.0000011541303027053473 -0.0000017588456811378106 -0.000002931088014143473 0.000004679208172303479
          -0.00003075794253899047 0.00011456611316548394 0.0000058611611280773234 0.0003686422199536094 -0.000017668138401654982 -0.0000343365867779685
          0.0006570169070549091 0.0008907266285357054 0.0003101161861219381 0.0008766786122360673 0.000018621817766579977 -0.0000066641803435960885
          0.0007351514653948098 0.00096651943001817 -0.00006467425986347556 0.0003541720540101108 0.0010000000000000002 0.001
          0.00041348154136634167 -0.000012687590752685113 0.000008598649022806889 0.00001652725409478303
        </DataArray>
        <DataArray type="Float64" Name="GRADIENT" NumberOfComponents="3" format="ascii" RangeMin="9.18739512003445e-8" RangeMax="0.004848741247656306">
          1.1288873600288075e-7 -2.726611312550795e-8 0 -8.959176987845528e-8 -2.0350372950125363e-8 0
          9.468247879592077e-8 4.77531699068462e-8 0 -2.0882460329020506e-7 -2.840935002780732e-8 0
          -1.5041426600293264e-7 3.0283573653314283e-8 0 -1.148044447459325e-7 -3.1778982948609744e-8 0
          -6.019211741378969e-7 -2.984228284429165e-7 0 5.406681089616526e-7 7.413969702207597e-8 0
          0.0000029689074167691015 0.0000012327250736840774 0 0.0000011406954342214514 2.0891470292748228e-7 0
          -0.000008020666075612454 -0.000002382368415458685 0 -0.000002415009916257771 0.000003077674864083064 0
          -8.697766757938296e-7 -6.545195214491156e-7 0 0.000026182947878002283 -0.000013703338670935304 0
          -0.000039523390072045974 0.000051215728427153547 0 -0.00002412926293751322 -0.000001289305740877409 0
          0.000026266823958799497 0.000027854910243975125 0 0.0000918404277071331 -0.0001019884268681893 0
          -0.00019257389129339038 0.00008905768917434388 0 -0.0012370717699534675 -0.0006849167944599892 0
          0.000016480187930221306 -0.00010058140860208633 0 -0.0023376695467092535 0.0010553414423218439 0
          0.0002304140766917397 -0.0009160944257970223 0 -0.000023356108260470478 0.00022316157967960424 0
          -0.002848825291395534 -0.0029635108269506923 0 -0.003224211665291253 0.0025827564125800594 0
          0.00047078665987582423 0.0025629969839816424 0 0.000044035864100205446 -0.004042192380653218 0
          -0.0000438056683201973 -0.00003264645459901107 0 0.0000629949216710415 0.0003717273768504097 0
          0.001073254102262012 0.004728468813337082 0 -0.000997791640892816 0.0013344026059416956 0
          -0.0003438330670935677 -0.0002401188097465413 0 0.0010641194328138929 -0.0043227937944012905 0
          -0.0008368711250772851 -0.0037831008041787953 0 0.00015534551615213076 0.0036358520065196435 0
          -0.0006059766487437604 0.002905264019471889 0 0.00027016390445898245 0.0006813484497663812 0
          -0.0003240376274213773 -0.00030472568856552436 0 -0.00008193904527143584 -0.00017069909547460022 0
          <InformationKey name="L2_NORM_RANGE" location="vtkDataArray" length="2">
            <Value index="0">
              9.18739512e-08
            </Value>
            <Value index="1">
              0.0048487412477
            </Value>
          </InformationKey>
        </DataArray>
      </PointData>
      <CellData>
        <DataArray type="UInt8" Name="vtkGhostType" format="ascii" RangeMin="0" RangeMax="0">
          0 0 0 0 0 0
          0 0 0 0 0 0
          0 0 0 0 0 0
          0 0 0 0 0 0
          0 0 0 0 0 0
          0 0 0 0 0 0
          0 0 0 0 0 0
          0 0 0 0 0 0
          0 0 0 0 0 0
          0
        </DataArray>
        <DataArray type="Float64" Name="GRADIENT_GAUSS" NumberOfComponents="3" format="ascii" RangeMin="1.475954177308425e-8" RangeMax="0.005709221846696757">
          -0.000261429526809822 0 0 0.0005194631619821344 0.004789196293292379 0
          -0.001510250612163297 -0.0018057081817894906 0 0.00028054677694051584 0.004643058023651758 0
          -0.0008739525330575017 0.004639181892870567 0 -0.0032272886828374654 -0.001277959855978449 0
          0.00027760053009871625 -0.005111419894813839 0 -0.0004972051555695376 0.004182475310171886 0
          -0.0034728331959916854 -0.0014101511506342543 0 0.0004146884261127603 0.004566462623489259 0
          -0.0026132162494278167 0.004243930812906217 0 -0.005186189214011606 -0.0008765992577180412 0
          -0.0008261365100996565 -0.005649133788598027 0 -0.0007677912634387021 0.001473939461914771 0
          -0.00025745163278307145 0.0004883931098248015 0 -0.0027734127923099653 0.0002767484739610404 0
          0.0004679332351603518 -0.0026626616455033437 0 -0.0005224409719080192 -0.0015700734882104985 0
          0.00009336493747175724 0.00027741908586047405 0 0.0004917157473032922 0.0008447259975184547 0
          -0.0005551251915075893 0.0004850109506676449 0 -0.0021556573626035917 -0.002309992656857933 0
          -0.0007049300831269538 -0.00043057656720962183 0 0.00023900708758108085 -0.00017001268387802592 0
          -0.00004263563648859611 -0.0002113275008739836 0 0.000053481939898408 -0.00003310645286354046 0
          -0.00007974432843541095 0.00003216569173345143 0 -0.000017131373079957853 -0.000056520770471899274 0
          -0.00002054647311731515 -0.000012151165294496385 0 -0.00018288912307810353 0.000024246493499535712 0
          0.000020855711313572703 0.00023726291970895805 0 0.00005333246505473506 -0.000033758601347033513 0
          -0.000005294537882963361 0.000008075808545737748 0 0.000013340671099645505 -0.00004583964407446169 0
          -0.000014353694804717558 -0.000004999647233647044 0 0.0000023662432546694045 -0.0000061838846834773 0
          0.00003835743195412494 0.000028092017623373987 0 -0.000009188547750693497 0.000004144316550700699 0
          7.931026102352283e-7 0.0000023443241372520757 0 -8.814609679681833e-7 -1.5979843445171116e-7 0
          -0.0000010457809275422304 4.3140830458282046e-7 0 2.816924426610584e-7 1.985618449474012e-7 0
          -5.9434818264338195e-8 -4.4755395437047874e-8 0 5.3751328200092503e-8 -1.3308118621831992e-7 0
          -9.971935856533301e-7 6.884604084511517e-7 0 1.4395261083254883e-8 -3.2589157240325197e-9 0
          -1.547745433758033e-8 -8.873883565607222e-8 0 -1.9944354947303722e-8 8.16270400494305e-8 0
          1.8189290473065252e-8 -8.274292496804908e-9 0 -3.349097973451936e-7 -3.966819100672742e-7 0
          -9.730909341080469e-7 7.122792271718372e-7 0 2.3388807756163038e-7 2.291814968808868e-7 0
          2.816924426610584e-7 1.341720204892708e-7 0 2.9332711658567262e-8 1.6487094378330393e-8 0
          -1.9944354947303722e-8 -7.653428047217375e-8 0
          <InformationKey name="L2_NORM_RANGE" location="vtkDataArray" length="2">
            <Value index="0">
              1.4759541773e-08
            </Value>
            <Value index="1">
              0.0057092218467
            </Value>
          </InformationKey>
        </DataArray>
        <DataArray type="Float64" Name="SHOCK_VISCO" format="ascii" RangeMin="0.000001246568425486926" RangeMax="0.00028476582676009504">
          0.00008932361430618278 0.00003307288423524844 0.00019702225879096117 0.000015185830187497875 0.0000755471246807839 0.00010330739952840029
          0.000020884547429721757 0.00003904582018616221 0.00011218078441934639 0.000034332326861612215 0.00022048578478762201 0.00012655523942393888
          0.0000671062113652565 0.000029914899432914322 0.00008605012641341658 0.00019343191209788 0.00013319570019939279 0.00003791708135265283
          0.0001472414672859839 0.00011658833755664712 0.00025886921718289797 0.00014359972208827205 0.00015855281608523065 0.00019574459074073828
          0.00028476582676009504 0.0002546660534227905 0.0001206091162068978 0.00021180480199534444 0.00003791253068263477 0.0002635624747034627
          0.00017247782067066108 0.00010021243089777645 0.00009025552958665184 0.00027526294344696657 0.00001549925510228975 0.00002334466486919945
          0.00014616631865400188 0.00012155352660445574 0.00007324339512025125 0.000048781382265455095 0.000024312049496454556 0.000010336847130477793
          0.000011069621040847355 0.000011103241986107776 0.000009963415285348652 0.000001246568425486926 0.000007949918899385417 0.00004133943619288607
          0.0000035593674060981363 0.00004949861041279479 0.00001648465987673164 0.000006682688510229407 0.000011555428878369149 0.000005420281846973356
          0.000027776303479345386
        </DataArray>
      </CellData>
      <Points>
        <DataArray type="Float32" Name="Points" NumberOfComponents="3" format="ascii" RangeMin="0" RangeMax="10.198039027185569">
          10 2 0 8.67808723449707 1 0
          10 0 0 6.88806676864624 2 0
          7.356174945831299 0 0 4.796366214752197 2 0
          5.089756011962891 0 0 4.155847072601318 1 0
          3.515326976776123 0 0 2.9833810329437256 2 0
          2.5499660968780518 1 0 2.116550922393799 0 0
          1.5617419481277466 2 0 1.1874589920043945 0.6213049292564392 0
          1.0754189491271973 0 0 0.5944628715515137 2 0
          0.5601099133491516 1.5149790048599243 0 0.6793552041053772 0.3922877907752991 0
          0.5368778109550476 0.8414465188980103 0 0.31932809948921204 1.1353659629821777 0
          0.3994308114051819 0 0 0.23567339777946472 0.8907284140586853 0
          0.1678508073091507 1.3048709630966187 0 0.24019299447536469 0.4929454028606415 0
          0.13928580284118652 1.0923689603805542 0 0.0980311930179596 0.9598910808563232 0
          0.09343110769987106 0.8015030026435852 0 0.055031370371580124 1.0397629737854004 0
          0 2 0 0 1.607956051826477 0
          0.045116499066352844 0.9162405729293823 0 0.037839848548173904 0.9838300943374634 0
          0 1.3608189821243286 0 0 1.152722954750061 0
          0 1.0099999904632568 0 0 0.9900000095367432 0
          0 0.837228000164032 0 0 0.6144803762435913 0
          0 0.3499419093132019 0 0 0 0
          <InformationKey name="L2_NORM_RANGE" location="vtkDataArray" length="2">
            <Value index="0">
              0
            </Value>
            <Value index="1">
              10.198039027
            </Value>
          </InformationKey>
        </DataArray>
      </Points>
      <Cells>
        <DataArray type="Int64" Name="connectivity" format="ascii" RangeMin="0" RangeMax="39">
          34 35 31 31 35 30
          34 31 27 30 35 36
          31 30 25 27 31 25
          34 27 33 25 30 26
          27 25 24 26 30 36
          25 26 21 24 25 21
          27 24 33 26 36 37
          21 26 23 24 21 19
          33 24 22 32 33 22
          32 22 29 23 26 37
          21 23 18 22 24 19
          19 21 18 22 19 16
          37 38 23 18 23 17
          19 18 16 39 20 23
          28 29 16 38 39 23
          29 22 16 17 23 20
          17 20 14 18 17 13
          28 16 15 15 16 12
          16 18 13 17 14 13
          13 14 11 10 13 11
          16 13 10 10 8 7
          7 6 4 5 9 7
          9 12 10 2 0 1
          5 7 3 7 4 1
          3 1 0 8 10 11
          10 12 16 6 7 8
          7 9 10 2 1 4
          1 3 7
        </DataArray>
        <DataArray type="Int64" Name="offsets" format="ascii" RangeMin="3" RangeMax="165">
          3 6 9 12 15 18
          21 24 27 30 33 36
          39 42 45 48 51 54
          57 60 63 66 69 72
          75 78 81 84 87 90
          93 96 99 102 105 108
          111 114 117 120 123 126
          129 132 135 138 141 144
          147 150 153 156 159 162
          165
        </DataArray>
        <DataArray type="UInt8" Name="types" format="ascii" RangeMin="5" RangeMax="5">
          5 5 5 5 5 5
          5 5 5 5 5 5
          5 5 5 5 5 5
          5 5 5 5 5 5
          5 5 5 5 5 5
          5 5 5 5 5 5
          5 5 5 5 5 5
          5 5 5 5 5 5
          5 5 5 5 5 5
          5
        </DataArray>
      </Cells>
    </Piece>
  </UnstructuredGrid>
</VTKFile>
