<?xml version="1.0"?>
<VTKFile type="UnstructuredGrid" version="0.1" byte_order="LittleEndian" header_type="UInt32" compressor="vtkZLibDataCompressor">
  <UnstructuredGrid>
    <Piece NumberOfPoints="40" NumberOfCells="55">
      <PointData>
        <DataArray type="Float64" Name="nsi_BC" NumberOfComponents="3" format="ascii" RangeMin="0" RangeMax="0.01">
          0 0 0 0 0 0
          0 0 0 0 0.00002 0
          0 0 0 0 0.00002 0
          0 0 0 0 0 0
          0 0 0 0 0.00002 0
          0 0 0 0 0 0
          0 0.00002 0 0 0 0
          0 0 0 0 0.00002 0
          0 0 0 0 0 0
          0 0 0 0 0 0
          0 0 0 0 0 0
          0 0 0 0 0 0
          0 0 0 0 0 0
          0 0 0 0 0 0
          0 0 0 0 0 0
          0 0 0 0 0 0
          0 0 0 0 0 0
          0.01 0 0 0.01 0 0
          0 0 0 0 0 0
          0 0 0 0 0 0
          <InformationKey name="L2_NORM_RANGE" location="vtkDataArray" length="2">
            <Value index="0">
              0
            </Value>
            <Value index="1">
              0.01
            </Value>
          </InformationKey>
        </DataArray>
        <DataArray type="Float64" Name="nsi_FIXNO" NumberOfComponents="3" format="ascii" RangeMin="1" RangeMax="1.4142135623730951">
          1 1 0 -1 -1 0
          1 1 0 0 1 0
          0 1 0 0 1 0
          0 1 0 -1 -1 0
          0 1 0 0 1 0
          -1 -1 0 0 1 0
          0 1 0 -1 -1 0
          0 1 0 0 1 0
          -1 -1 0 -1 -1 0
          -1 -1 0 -1 -1 0
          0 1 0 -1 -1 0
          -1 -1 0 -1 -1 0
          -1 -1 0 -1 -1 0
          -1 -1 0 -1 -1 0
          1 1 0 1 0 0
          -1 -1 0 -1 -1 0
          1 0 0 1 0 0
          1 1 0 1 1 0
          1 0 0 1 0 0
          1 0 0 1 1 0
          <InformationKey name="L2_NORM_RANGE" location="vtkDataArray" length="2">
            <Value index="0">
              1
            </Value>
            <Value index="1">
              1.4142135624
            </Value>
          </InformationKey>
        </DataArray>
        <DataArray type="Float64" Name="tem_BC" format="ascii" RangeMin="0" RangeMax="0.001">
          0 0 0 0 0 0
          0 0 0 0 0 0
          0 0 0 0 0 0
          0 0 0 0 0 0
          0 0 0 0 0 0
          0 0 0 0 0.001 0.001
          0 0 0 0
        </DataArray>
        <DataArray type="Float64" Name="tem_FIXNO" format="ascii" RangeMin="-1" RangeMax="1">
          -1 -1 -1 -1 -1 -1
          -1 -1 -1 -1 -1 -1
          -1 -1 -1 -1 -1 -1
          -1 -1 -1 -1 -1 -1
          -1 -1 -1 -1 -1 -1
          -1 -1 -1 -1 1 1
          -1 -1 -1 -1
        </DataArray>
        <DataArray type="Float64" Name="Velocity" NumberOfComponents="3" format="ascii" RangeMin="0" RangeMax="0.01">
          0 0 0 0.000004101559655118874 -5.830273808039908e-7 0
          0 0 0 0.000005101296367933848 0.00002 0
          0.000003222908232581039 0 0 0.0000022816587471038505 0.00002 0
          0.00001313335431850505 0 0 0.000009909696881603052 -0.000005823246404624791 0
          -0.000011874435356824637 0 0 0.000002621082893939028 0.000019999999999999998 0
          0.000008291949349756 0.0000263269250375087 0 0.00011853457009013348 0 0
          -0.000007651564112023112 0.000019999999999999998 0 -0.000056194595660359305 0.00004159177326417606 0
          -0.0003624885683176156 0 0 0.000007238970852668234 0.000020000000000000005 0
          0.000058685558401428075 0.000022477784007179092 0 -0.0005966450400668376 -0.0000838669435614629 0
          0.00040927632940553906 -0.0004062686668159318 0 0.0014303879505643989 0.0005219755062072059 0
          -0.00018412328414843472 0 0 0.002514992676699349 -0.0016971783488934158 0
          -0.00014276412785272413 0.0010679178205054494 0 -0.0004488458207881272 -0.0007907291015655844 0
          0.00409730237865191 0.002372064018108959 0 0.006616475372028126 -0.0018048809470257996 0
          0.0008183129180787164 -0.00257435856546213 0 0.007768551492247876 0.0012370186372461817 0
          0 0 0 0 0.00025805052818604824 0
          0.0050889435715391 -0.0015122223556114042 0 0.00907244866135519 -0.0005484774539546839 0
          0 0.0008779539035592344 0 0 0.0005521672676770875 0
          0.01 0 0 0.01 0 0
          0 -0.0009280664647062254 0 0 -0.001145457483068713 0
          0 -0.0000017211630142650347 0 0 0 0
          <InformationKey name="L2_NORM_RANGE" location="vtkDataArray" length="2">
            <Value index="0">
              0
            </Value>
            <Value index="1">
              0.01
            </Value>
          </InformationKey>
        </DataArray>
        <DataArray type="Float64" Name="Pressure" format="ascii" RangeMin="0.0065612631843333805" RangeMax="0.0378380797787116">
          0.023045906953076404 0.02321088284950455 0.023024544498892952 0.023973046963461156 0.023566753799076575 0.024905256887361022
          0.02457135105867905 0.025052736927005565 0.02525005941503364 0.025903489224453485 0.02645293272246411 0.029035752111740382
          0.027006622951338245 0.031082361806884538 0.030405676284304618 0.029294061739737403 0.030306062575768584 0.023637971984267613
          0.032917198189530886 0.0378380797787116 0.00798063601649042 0.03675760503477849 0.035528266958058385 0.019484779371495908
          0.030533826666991008 0.02780780377717771 0.02949508655691852 0.019061104545193646 0.02984059609631687 0.03196254464782324
          0.021820095357521465 0.018901603815989106 0.03482626415156505 0.025793944968270113 0.0110989676221892 0.012774344147551797
          0.026934601968697208 0.02133082859866601 0.014872650215785349 0.0065612631843333805
        </DataArray>
        <DataArray type="Float64" Name="Temperature" format="ascii" RangeMin="-0.0000562431942501673" RangeMax="0.001">
          1.3644238244045344e-8 -2.126128796270857e-9 2.0162069692110384e-8 -4.2959615025672015e-8 -5.7388486708601195e-8 -1.0585408310300893e-8
          7.731571466724194e-8 8.806703092062394e-8 -2.909244574000383e-7 -1.080357600671456e-7 -3.6429751059235906e-7 1.7753932929128226e-7
          0.0000013096135318474692 8.972141126056005e-7 -6.481851775081417e-7 -9.792041139102227e-7 0.0000019388222646269618 0.000004616830783290942
          -0.000017873188290189606 0.000008929290469085698 0.0000029308599558280707 0.0001732352231124467 -0.0000560928578193047 -0.000022202831692518798
          0.0004963615543110913 0.0008264457965253914 0.00016627866234238798 0.0008631455471547145 0.0000075535349254171105 0.00001231732637213265
          0.0006701881146720972 0.0009901075459199454 -0.0000562431942501673 0.00027048281835248474 0.001 0.001
          0.0002906707396106736 -0.000037645738076133044 0.000018258522013819276 0.0000097736580102541
        </DataArray>
        <DataArray type="Float64" Name="GRADIENT" NumberOfComponents="3" format="ascii" RangeMin="5.400985625957588e-8" RangeMax="0.006228737845003739">
          6.44431931391275e-8 3.937894017216269e-9 0 -8.523137645934573e-8 -1.3001965635643453e-8 0
          9.436996934081167e-8 2.8483562215589906e-9 0 -3.924114664164112e-8 -3.7110604730039976e-8 0
          -9.655020317906086e-8 6.358161635109438e-8 0 -6.1666269045664e-7 -8.096147976446526e-7 0
          -3.1119703414063687e-7 -6.544268173917562e-8 0 3.3859476463833016e-7 4.119472136447465e-8 0
          0.0000014246416225191036 7.862962424681749e-7 0 0.000002115862754995515 0.000002499633336245338 0
          -0.00000495953324612529 -0.0000024257668873385425 0 0.000001913292786089244 3.995601474708827e-7 0
          -0.000006316335979674377 -0.000008241339012993811 0 0.0000017299445710680963 -0.000005542069545927077 0
          -0.0000135497129721936 0.000024602860883920482 0 -0.00001004567029836752 -0.0000041711261578210245 0
          0.00002651151362382639 0.000029510968850352275 0 0.000021407436559180055 -0.000041369123850669984 0
          0.000011865960866735166 0.000016497959211537427 0 -0.0006117111428746895 -0.00037303624250608475 0
          0.000013604561209490845 -0.00004452204436807251 0 -0.0017506516015213744 0.0006721288163962196 0
          0.00010708152029862927 -0.00042044335745867973 0 0.00006039374295556061 0.0000425082287980688 0
          -0.0033730876155624017 -0.002693972932297999 0 -0.005036787309052983 0.0030033671426459812 0
          0.00008951031996385962 0.002156603277028821 0 -0.0013297244674808878 -0.0055470524723665055 0
          -0.0000486029988507138 -0.0001024504432052608 0 0.000019135695398525495 0.0003362967950435275 0
          0.0012521767660100497 0.006101575902047473 0 -0.0013637536041288675 0.0020431938798296974 0
          -0.0006212610874398736 -0.00009392690618352224 0 0.0008149369890901153 -0.004031102892278572 0
          0.00017832336560451008 -0.004472458300223794 0 0.0005653611651760406 0.004670206962324976 0
          -0.0009835718232611421 0.0029807854376396542 0 0.00021482614313252788 0.000135180401027919 0
          -0.0002856713618931641 -0.00019287037739566332 0 -0.0001256751304312022 -0.00004151646488436238 0
          <InformationKey name="L2_NORM_RANGE" location="vtkDataArray" length="2">
            <Value index="0">
              5.400985626e-08
            </Value>
            <Value index="1">
              0.006228737845
            </Value>
          </InformationKey>
        </DataArray>
      </PointData>
      <CellData>
        <DataArray type="UInt8" Name="vtkGhostType" format="ascii" RangeMin="0" RangeMax="0">
          0 0 0 0 0 0
          0 0 0 0 0 0
          0 0 0 0 0 0
          0 0 0 0 0 0
          0 0 0 0 0 0
          0 0 0 0 0 0
          0 0 0 0 0 0
          0 0 0 0 0 0
          0 0 0 0 0 0
          0
        </DataArray>
        <DataArray type="Float64" Name="GRADIENT_GAUSS" NumberOfComponents="3" format="ascii" RangeMin="8.19676470345755e-9" RangeMax="0.006611399757200848">
          -0.002892529942776889 1.3877787807814454e-17 0 -0.00204298757206419 0.005210223160247851 0
          -0.004067829899755833 -0.0016994017583976061 0 -0.0015569211972775198 0.005507535958319184 0
          -0.004084500338278981 0.004990434970214241 0 -0.006453518552050695 -0.0009661371828132868 0
          -0.0016709214822474277 -0.006131251840043264 0 -0.002724838361166519 0.0033422043193925303 0
          -0.0056211321930982276 -0.0005180138302273134 0 0.00012995499399880324 0.0045443231329759075 0
          -0.0018917216908139944 0.0033180080361303707 0 -0.004063055264716147 -0.0010032106519643777 0
          -0.0020124922682422755 -0.006297656835663601 0 -0.001312040032710268 0.0007730930151338317 0
          0.0001272704111354148 0.00009934989536330939 0 -0.0014237207705181912 0.00025843565087818024 0
          0.0001435737843898444 -0.001321857634389341 0 -0.00038271630714192394 -0.0007412505091186799 0
          -0.0000769605689870369 0.000176053867336032 0 0.00008082402854311946 0.00007725820521239959 0
          -0.00010698694344129267 0.00009668826945233556 0 -0.0010857864602092497 -0.0011566042467178223 0
          -0.00015169138811003504 -0.00017653933406501537 0 0.00016215137850682452 -0.000041390805364784846 0
          0.000005931594739829442 -0.00007075379423231702 0 0.000007942188681165914 -0.0000011528179299573242 0
          0.00009147020822741284 0.0000034410086299499216 0 -0.000005364252661008943 -0.000008626996592974156 0
          -0.000025054556068184745 -0.000028662356310559275 0 -0.000041556017160412 0.00000900783373591241 0
          0.000017623033072268452 0.00022843499234233728 0 0.000007156091005191734 -0.0000045825081351252145 0
          0.0000010493828032298983 -2.2495067499200086e-7 0 -3.8671955492392293e-7 -0.0000037948266238035448 0
          -0.0000057603076135747755 -0.000006381053908216393 0 9.058007231336121e-7 -0.00000685320010331092 0
          0.0000030932205432968892 0.000006489388649586922 0 -0.0000010434059227594266 -0.0000023378837190797613 0
          -2.3562487341921956e-7 -0.0000024835509893170904 0 8.480115032090427e-7 -8.630939666309586e-7 0
          -4.953655185594795e-7 0.0000039702418642228425 0 1.66270022564108e-7 2.1649117846936508e-7 0
          -4.8207798905361667e-8 -5.750263817667385e-8 0 -2.4422794270678405e-8 -7.118899527618986e-8 0
          -2.737506682640832e-7 3.431034166221253e-7 0 7.481107246658188e-9 -3.3496247503035163e-9 0
          1.6075959961405362e-9 -8.786195481950246e-8 0 -1.2158896817745052e-8 5.786567254358412e-8 0
          1.1254724158680833e-8 -8.338018003326107e-9 0 -3.9429733151302725e-7 -3.246586830298924e-7 0
          -0.0000018328141449056507 -0.0000011976005285185114 0 2.130749587506923e-7 1.8651168074313403e-7 0
          1.66270022564108e-7 1.5239184890682472e-7 0 2.081517445651672e-8 1.4276852037282207e-8 0
          -1.2158896817745052e-8 -5.024886782354795e-8 0
          <InformationKey name="L2_NORM_RANGE" location="vtkDataArray" length="2">
            <Value index="0">
              8.1967647035e-09
            </Value>
            <Value index="1">
              0.0066113997572
            </Value>
          </InformationKey>
        </DataArray>
        <DataArray type="Float64" Name="SHOCK_VISCO" format="ascii" RangeMin="0.0000010172321626014978" RangeMax="0.0004397606764457182">
          0.00006438594830732809 0.000022462569213032296 0.00011199859499914339 0.000011498344535621843 0.00004877305599388985 0.000058084637806542615
          0.00003008014731281062 0.00003932405254989768 0.00012455941383801474 0.00008050360460886953 0.0002712172466363613 0.00013142830297086736
          0.00010874253126141119 0.00008383006637970817 0.0001796302928557276 0.00020264707557106376 0.00012018813842678152 0.00005623624689231037
          0.00008082105853799061 0.00014389969769019258 0.0002178496295982397 0.00013571057889306775 0.00017496682750381846 0.0004397606764457182
          0.00003761012686807528 0.00008396243832102304 0.00026727771889100554 0.00008200239922476644 0.00001784815027828915 0.00007296670958458115
          0.00013039505718152972 0.00008182699855585935 0.00007960138201092693 0.00005847864516316385 0.000004935935169481529 0.000017086745575002004
          0.000048570175156934086 0.00007223539522509937 0.00002877755022036695 0.00003101185282925789 0.000007933749220101329 0.000004824663829364806
          0.000025089338213012985 0.000004147534427879564 0.000010194839819883022 0.0000010172321626014978 0.000003221568169303299 0.000013189150088318806
          0.000002437454625129438 0.000023002688653830705 0.000013160350901104256 0.000006227371751833743 0.000005254187749995087 0.0000035923710645507524
          0.000027061211563031827
        </DataArray>
      </CellData>
      <Points>
        <DataArray type="Float32" Name="Points" NumberOfComponents="3" format="ascii" RangeMin="0" RangeMax="10.198039027185569">
          10 2 0 8.67808723449707 1 0
          10 0 0 6.88806676864624 2 0
          7.356174945831299 0 0 4.796366214752197 2 0
          5.089756011962891 0 0 4.155847072601318 1 0
          3.515326976776123 0 0 2.9833810329437256 2 0
          2.5499660968780518 1 0 2.116550922393799 0 0
          1.5617419481277466 2 0 1.1874589920043945 0.6213049292564392 0
          1.0754189491271973 0 0 0.5944628715515137 2 0
          0.5601099133491516 1.5149790048599243 0 0.6793552041053772 0.3922877907752991 0
          0.5368778109550476 0.8414465188980103 0 0.31932809948921204 1.1353659629821777 0
          0.3994308114051819 0 0 0.23567339777946472 0.8907284140586853 0
          0.1678508073091507 1.3048709630966187 0 0.24019299447536469 0.4929454028606415 0
          0.13928580284118652 1.0923689603805542 0 0.0980311930179596 0.9598910808563232 0
          0.09343110769987106 0.8015030026435852 0 0.055031370371580124 1.0397629737854004 0
          0 2 0 0 1.607956051826477 0
          0.045116499066352844 0.9162405729293823 0 0.037839848548173904 0.9838300943374634 0
          0 1.3608189821243286 0 0 1.152722954750061 0
          0 1.0099999904632568 0 0 0.9900000095367432 0
          0 0.837228000164032 0 0 0.6144803762435913 0
          0 0.3499419093132019 0 0 0 0
          <InformationKey name="L2_NORM_RANGE" location="vtkDataArray" length="2">
            <Value index="0">
              0
            </Value>
            <Value index="1">
              10.198039027
            </Value>
          </InformationKey>
        </DataArray>
      </Points>
      <Cells>
        <DataArray type="Int64" Name="connectivity" format="ascii" RangeMin="0" RangeMax="39">
          34 35 31 31 35 30
          34 31 27 30 35 36
          31 30 25 27 31 25
          34 27 33 25 30 26
          27 25 24 26 30 36
          25 26 21 24 25 21
          27 24 33 26 36 37
          21 26 23 24 21 19
          33 24 22 32 33 22
          32 22 29 23 26 37
          21 23 18 22 24 19
          19 21 18 22 19 16
          37 38 23 18 23 17
          19 18 16 39 20 23
          28 29 16 38 39 23
          29 22 16 17 23 20
          17 20 14 18 17 13
          28 16 15 15 16 12
          16 18 13 17 14 13
          13 14 11 10 13 11
          16 13 10 10 8 7
          7 6 4 5 9 7
          9 12 10 2 0 1
          5 7 3 7 4 1
          3 1 0 8 10 11
          10 12 16 6 7 8
          7 9 10 2 1 4
          1 3 7
        </DataArray>
        <DataArray type="Int64" Name="offsets" format="ascii" RangeMin="3" RangeMax="165">
          3 6 9 12 15 18
          21 24 27 30 33 36
          39 42 45 48 51 54
          57 60 63 66 69 72
          75 78 81 84 87 90
          93 96 99 102 105 108
          111 114 117 120 123 126
          129 132 135 138 141 144
          147 150 153 156 159 162
          165
        </DataArray>
        <DataArray type="UInt8" Name="types" format="ascii" RangeMin="5" RangeMax="5">
          5 5 5 5 5 5
          5 5 5 5 5 5
          5 5 5 5 5 5
          5 5 5 5 5 5
          5 5 5 5 5 5
          5 5 5 5 5 5
          5 5 5 5 5 5
          5 5 5 5 5 5
          5 5 5 5 5 5
          5
        </DataArray>
      </Cells>
    </Piece>
  </UnstructuredGrid>
</VTKFile>
