<?xml version="1.0"?>
<VTKFile type="UnstructuredGrid" version="0.1" byte_order="LittleEndian" header_type="UInt32" compressor="vtkZLibDataCompressor">
  <UnstructuredGrid>
    <Piece NumberOfPoints="40" NumberOfCells="55">
      <PointData>
        <DataArray type="Float64" Name="nsi_BC" NumberOfComponents="3" format="ascii" RangeMin="0" RangeMax="0.01">
          0 0 0 0 0 0
          0 0 0 0 0.00002 0
          0 0 0 0 0.00002 0
          0 0 0 0 0 0
          0 0 0 0 0.00002 0
          0 0 0 0 0 0
          0 0.00002 0 0 0 0
          0 0 0 0 0.00002 0
          0 0 0 0 0 0
          0 0 0 0 0 0
          0 0 0 0 0 0
          0 0 0 0 0 0
          0 0 0 0 0 0
          0 0 0 0 0 0
          0 0 0 0 0 0
          0 0 0 0 0 0
          0 0 0 0 0 0
          0.01 0 0 0.01 0 0
          0 0 0 0 0 0
          0 0 0 0 0 0
          <InformationKey name="L2_NORM_RANGE" location="vtkDataArray" length="2">
            <Value index="0">
              0
            </Value>
            <Value index="1">
              0.01
            </Value>
          </InformationKey>
        </DataArray>
        <DataArray type="Float64" Name="nsi_FIXNO" NumberOfComponents="3" format="ascii" RangeMin="1" RangeMax="1.4142135623730951">
          1 1 0 -1 -1 0
          1 1 0 0 1 0
          0 1 0 0 1 0
          0 1 0 -1 -1 0
          0 1 0 0 1 0
          -1 -1 0 0 1 0
          0 1 0 -1 -1 0
          0 1 0 0 1 0
          -1 -1 0 -1 -1 0
          -1 -1 0 -1 -1 0
          0 1 0 -1 -1 0
          -1 -1 0 -1 -1 0
          -1 -1 0 -1 -1 0
          -1 -1 0 -1 -1 0
          1 1 0 1 0 0
          -1 -1 0 -1 -1 0
          1 0 0 1 0 0
          1 1 0 1 1 0
          1 0 0 1 0 0
          1 0 0 1 1 0
          <InformationKey name="L2_NORM_RANGE" location="vtkDataArray" length="2">
            <Value index="0">
              1
            </Value>
            <Value index="1">
              1.4142135624
            </Value>
          </InformationKey>
        </DataArray>
        <DataArray type="Float64" Name="tem_BC" format="ascii" RangeMin="0" RangeMax="0.001">
          0 0 0 0 0 0
          0 0 0 0 0 0
          0 0 0 0 0 0
          0 0 0 0 0 0
          0 0 0 0 0 0
          0 0 0 0 0.001 0.001
          0 0 0 0
        </DataArray>
        <DataArray type="Float64" Name="tem_FIXNO" format="ascii" RangeMin="-1" RangeMax="1">
          -1 -1 -1 -1 -1 -1
          -1 -1 -1 -1 -1 -1
          -1 -1 -1 -1 -1 -1
          -1 -1 -1 -1 -1 -1
          -1 -1 -1 -1 -1 -1
          -1 -1 -1 -1 1 1
          -1 -1 -1 -1
        </DataArray>
        <DataArray type="Float64" Name="Velocity" NumberOfComponents="3" format="ascii" RangeMin="0" RangeMax="0.01">
          0 0 0 2.949867400107286e-7 -1.4673862301832276e-7 0
          0 0 0 4.866232449782975e-7 0.00002 0
          3.562041975638371e-8 0 0 -0.0000022365585730927656 0.00002 0
          0.000001389954982769127 0 0 -2.033855620511449e-7 -9.998870577420577e-7 0
          4.755372663501559e-7 0 0 -0.0000023570755388500613 0.00002 0
          -0.000008388927176171473 0.000013031108441671966 0 -0.000014561155869397159 0 0
          -0.000015164808475976368 0.000019999999999999998 0 -0.00001734307305188715 -0.000012040989435053634 0
          -0.000005415229146553892 0 0 0.000004677686676469852 0.00002 0
          -0.000012511683539530603 -0.00003885360037968126 0 -0.000055393649858360026 0.000026069688176186925 0
          -0.0002080875890406177 0.00009824193295377594 0 0.000820868670480768 -0.00005489724255862781 0
          -0.00006158560162735556 0 0 0.001857720066711599 -0.0011341701376295739 0
          0.00008143697360744684 0.0004251374237443136 0 -0.00019237864625110026 0.00012901807030008824 0
          0.003011673741715148 0.002191376328783468 0 0.00563067199229346 -0.0016725129660812475 0
          0.0004911373919442479 -0.001884393021116386 0 0.006985973819288133 0.001653891127423127 0
          0 0 0 0 -0.00003602280631885172 0
          0.004488901419621715 -0.0021846230242239845 0 0.008599781676082888 -0.0007292473283881466 0
          0 0.001045752626349143 0 0 0.0018608148316000825 0
          0.01 0 0 0.009999999999999998 0 0
          0 -0.001700743092232577 0 0 -0.0002945938142932287 0
          0 -0.00005234554314205334 0 0 0 0
          <InformationKey name="L2_NORM_RANGE" location="vtkDataArray" length="2">
            <Value index="0">
              0
            </Value>
            <Value index="1">
              0.01
            </Value>
          </InformationKey>
        </DataArray>
        <DataArray type="Float64" Name="Pressure" format="ascii" RangeMin="0.02143830805736136" RangeMax="0.05177884157132872">
          0.02544967555163286 0.025456046770251813 0.02544786614924128 0.025493948271458046 0.02545107055337809 0.025511930676663623
          0.025474538124941375 0.02549804139877822 0.025558152844750208 0.02521663489065928 0.025249312568876685 0.025131142906244786
          0.024712139159270577 0.024404196471683536 0.0243623030002823 0.024292242105520032 0.02396481406824506 0.02377484246040112
          0.022876217451364957 0.024403022717488936 0.02326457945468657 0.027085467920026557 0.025120352305406102 0.021755724264894218
          0.03583434179972891 0.04237543366415194 0.02894396372869039 0.04637907184746997 0.024368600154692662 0.023995207941394748
          0.040998461099441934 0.05177884157132872 0.025794321269233825 0.0353344695401251 0.049029331676838074 0.04975230019543294
          0.03160135352160197 0.02293021833431726 0.02143830805736136 0.021790650031691113
        </DataArray>
        <DataArray type="Float64" Name="Temperature" format="ascii" RangeMin="-0.000052089677154700926" RangeMax="0.001">
          7.404193463962682e-9 8.64445290514528e-10 1.4103442964569715e-8 -2.7619754051333442e-8 -4.09282356429306e-8 -3.09823642040566e-8
          6.833083574436031e-8 5.5849894835593926e-8 -2.671405584865335e-7 1.3295795466769291e-8 -2.1115997526967833e-7 2.843930856979328e-7
          4.024704217470523e-7 -0.0000010397321284698139 5.297096814106318e-7 -4.736916865049771e-7 0.00000281913730856118 2.584173530761906e-8
          -0.0000016235388610506524 -0.000020511475683851277 -1.7966071085570137e-7 0.000035366380872340895 -0.000052089677154700926 -0.0000035781072047947744
          0.0002247065287172069 0.0005252295295013898 0.00000839861198944857 0.0007255624531542858 0.0000029505974823527635 0.000014187502299769666
          0.0005235246170389804 0.0008905471008448137 -0.000029321922312055257 0.0001249293436335056 0.001 0.0009999999999999998
          0.00015860271657566137 -0.000013601897122163279 0.000005115205473362516 0.000001962987020933229
        </DataArray>
        <DataArray type="Float64" Name="GRADIENT" NumberOfComponents="3" format="ascii" RangeMin="2.237842974330299e-8" RangeMax="0.007737824204041184">
          2.0608230781570392e-8 -8.723241474903849e-9 0 -2.880612921859038e-8 1.1923406069367506e-8 0
          5.402748336099942e-8 -3.91630625185737e-9 0 1.5876389328784306e-9 -3.119256802193197e-8 0
          -6.59211492880385e-8 4.425052289687892e-8 0 -3.427638325651985e-7 -4.801188381326285e-7 0
          3.282476455886949e-8 -1.2104348519703004e-8 0 1.1724568566296296e-7 -3.034908451281894e-8 0
          2.23434347363654e-7 4.843376420623049e-7 0 0.0000011318238294183801 0.000001479214502537767 0
          -0.0000015328491595628647 -5.464343759477537e-7 0 0.00000167193875815806 -0.0000013794116006364733 0
          -0.0000047562417842047925 -0.0000065262914991137145 0 -0.000005099019103082818 4.581832854308646e-7 0
          0.000005378233763463745 -0.000005463145582756289 0 -0.000002758719035651399 -0.0000036662961650891425 0
          0.000013073190949509294 0.000013952696777661178 0 -0.000013850189845242855 0.000005439518052364396 0
          0.00003833452947332164 -0.000009835152910004347 0 -0.00010112680222622445 -0.00012104296377241569 0
          -0.0000084907309024938 0.000004526150409684984 0 -0.0006356045751871803 0.0002873778671658103 0
          0.00008766159894056522 9.095652513620718e-7 0 0.00008096054042053819 -0.00005070606380783685 0
          -0.002388450887920691 -0.0017481642091387191 0 -0.005497429257140193 0.0025641583123810017 0
          -0.00006961598740734078 0.0011682502403926845 0 -0.004568467624528484 -0.006245240345757772 0
          -0.000029256714883894312 -0.00007690165012821374 0 -0.00002174492908177771 0.00018013003569963392 0
          -0.0011670999944520097 0.006301350463706144 0 -0.005281803594193648 0.002900310739029278 0
          -0.0005174111397108581 0.00016390686728411541 0 0.00020138123245264702 -0.00306171120972256 0
          -0.0017103013110606599 -0.00604173473167312 0 -0.0015849587217492249 0.005919672034246465 0
          -0.001517817779653465 0.0028614710796010753 0 -0.00021762027749210725 -0.0002912933532358556 0
          -0.000016670642725024635 0.000033983074228649895 0 -0.00006739514757139454 0.000011981378741076393 0
          <InformationKey name="L2_NORM_RANGE" location="vtkDataArray" length="2">
            <Value index="0">
              2.2378429743e-08
            </Value>
            <Value index="1">
              0.007737824204
            </Value>
          </InformationKey>
        </DataArray>
      </PointData>
      <CellData>
        <DataArray type="UInt8" Name="vtkGhostType" format="ascii" RangeMin="0" RangeMax="0">
          0 0 0 0 0 0
          0 0 0 0 0 0
          0 0 0 0 0 0
          0 0 0 0 0 0
          0 0 0 0 0 0
          0 0 0 0 0 0
          0 0 0 0 0 0
          0 0 0 0 0 0
          0 0 0 0 0 0
          0
        </DataArray>
        <DataArray type="Float64" Name="GRADIENT_GAUSS" NumberOfComponents="3" format="ascii" RangeMin="0" RangeMax="0.027054803044711737">
          -0.026427166069632937 0 0 -0.02689936278718732 -0.0028959712414707356 0
          -0.021794363553689126 0.006698709291320816 0 -0.011463498744691273 0.0065457020920063865 0
          0 0 0 0 0 0
          -0.014382036717052654 -0.007006579177848001 0 0 0 0
          0 0 0 0 0 0
          0 0 0 0 0 0
          0 0 0 0 0 0
          0 0 0 0 0 0
          0 0 0 0 0 0
          0 0 0 0 0 0
          0 0 0 0 0 0
          0 0 0 0 0 0
          0 0 0 0 0 0
          0 0 0 0 0 0
          0 0 0 0 0 0
          0 0 0 0 0 0
          0 0 0 0 0 0
          0 0 0 0 0 0
          0 0 0 0 0 0
          0 0 0 0 0 0
          0 0 0 0 0 0
          0 0 0 0 0 0
          0 0 0 0 0 0
          0 0 0 0 0 0
          0 0 0 0 0 0
          0 0 0 0 0 0
          0 0 0 0 0 0
          0 0 0
          <InformationKey name="L2_NORM_RANGE" location="vtkDataArray" length="2">
            <Value index="0">
              0
            </Value>
            <Value index="1">
              0.027054803045
            </Value>
          </InformationKey>
        </DataArray>
        <DataArray type="Float64" Name="SHOCK_VISCO" format="ascii" RangeMin="0" RangeMax="0">
          0 0 0 0 0 0
          0 0 0 0 0 0
          0 0 0 0 0 0
          0 0 0 0 0 0
          0 0 0 0 0 0
          0 0 0 0 0 0
          0 0 0 0 0 0
          0 0 0 0 0 0
          0 0 0 0 0 0
          0
        </DataArray>
      </CellData>
      <Points>
        <DataArray type="Float32" Name="Points" NumberOfComponents="3" format="ascii" RangeMin="0" RangeMax="10.198039027185569">
          10 2 0 8.67808723449707 1 0
          10 0 0 6.88806676864624 2 0
          7.356174945831299 0 0 4.796366214752197 2 0
          5.089756011962891 0 0 4.155847072601318 1 0
          3.515326976776123 0 0 2.9833810329437256 2 0
          2.5499660968780518 1 0 2.116550922393799 0 0
          1.5617419481277466 2 0 1.1874589920043945 0.6213049292564392 0
          1.0754189491271973 0 0 0.5944628715515137 2 0
          0.5601099133491516 1.5149790048599243 0 0.6793552041053772 0.3922877907752991 0
          0.5368778109550476 0.8414465188980103 0 0.31932809948921204 1.1353659629821777 0
          0.3994308114051819 0 0 0.23567339777946472 0.8907284140586853 0
          0.1678508073091507 1.3048709630966187 0 0.24019299447536469 0.4929454028606415 0
          0.13928580284118652 1.0923689603805542 0 0.0980311930179596 0.9598910808563232 0
          0.09343110769987106 0.8015030026435852 0 0.055031370371580124 1.0397629737854004 0
          0 2 0 0 1.607956051826477 0
          0.045116499066352844 0.9162405729293823 0 0.037839848548173904 0.9838300943374634 0
          0 1.3608189821243286 0 0 1.152722954750061 0
          0 1.0099999904632568 0 0 0.9900000095367432 0
          0 0.837228000164032 0 0 0.6144803762435913 0
          0 0.3499419093132019 0 0 0 0
          <InformationKey name="L2_NORM_RANGE" location="vtkDataArray" length="2">
            <Value index="0">
              0
            </Value>
            <Value index="1">
              10.198039027
            </Value>
          </InformationKey>
        </DataArray>
      </Points>
      <Cells>
        <DataArray type="Int64" Name="connectivity" format="ascii" RangeMin="0" RangeMax="39">
          34 35 31 31 35 30
          34 31 27 30 35 36
          31 30 25 27 31 25
          34 27 33 25 30 26
          27 25 24 26 30 36
          25 26 21 24 25 21
          27 24 33 26 36 37
          21 26 23 24 21 19
          33 24 22 32 33 22
          32 22 29 23 26 37
          21 23 18 22 24 19
          19 21 18 22 19 16
          37 38 23 18 23 17
          19 18 16 39 20 23
          28 29 16 38 39 23
          29 22 16 17 23 20
          17 20 14 18 17 13
          28 16 15 15 16 12
          16 18 13 17 14 13
          13 14 11 10 13 11
          16 13 10 10 8 7
          7 6 4 5 9 7
          9 12 10 2 0 1
          5 7 3 7 4 1
          3 1 0 8 10 11
          10 12 16 6 7 8
          7 9 10 2 1 4
          1 3 7
        </DataArray>
        <DataArray type="Int64" Name="offsets" format="ascii" RangeMin="3" RangeMax="165">
          3 6 9 12 15 18
          21 24 27 30 33 36
          39 42 45 48 51 54
          57 60 63 66 69 72
          75 78 81 84 87 90
          93 96 99 102 105 108
          111 114 117 120 123 126
          129 132 135 138 141 144
          147 150 153 156 159 162
          165
        </DataArray>
        <DataArray type="UInt8" Name="types" format="ascii" RangeMin="5" RangeMax="5">
          5 5 5 5 5 5
          5 5 5 5 5 5
          5 5 5 5 5 5
          5 5 5 5 5 5
          5 5 5 5 5 5
          5 5 5 5 5 5
          5 5 5 5 5 5
          5 5 5 5 5 5
          5 5 5 5 5 5
          5
        </DataArray>
      </Cells>
    </Piece>
  </UnstructuredGrid>
</VTKFile>
