<?xml version="1.0"?>
<VTKFile type="UnstructuredGrid" version="0.1" byte_order="LittleEndian" header_type="UInt32" compressor="vtkZLibDataCompressor">
  <UnstructuredGrid>
    <Piece NumberOfPoints="24" NumberOfCells="28">
      <PointData>
        <DataArray type="Float64" Name="Velocity" NumberOfComponents="3" format="ascii" RangeMin="2.6677841329462924" RangeMax="2.9000116960506057">
          2.9 0 0 2.9 0 0
          2.6193 -0.5063 0 2.89776474389235 -0.01733099323268082 0
          2.9 0 0 2.8999258362865237 0 0
          2.6193 -0.5063 0 2.897623658843619 -0.01563263375272922 0
          2.9000116960506057 0 0 2.6193 -0.5063 0
          2.897654434648336 -0.015757431982875356 0 2.9000035988437367 0 0
          2.6193 -0.5063 0 2.8976549417034674 -0.01575518357491819 0
          2.9000093713622976 0 0 2.6193 -0.5063 0
          2.8976662687884707 -0.015757634372267 0 2.9000017200285932 0 0
          2.6193 -0.5063 0 2.897697772203241 -0.015545413530835168 0
          2.8999329497178934 0 0 2.6193 -0.5063 0
          2.898679336447221 -0.01273274105801907 0 2.8996610864709083 0.0038983947418352372 0
          <InformationKey name="L2_NORM_RANGE" location="vtkDataArray" length="2">
            <Value index="0">
              2.6677841329
            </Value>
            <Value index="1">
              2.9000116961
            </Value>
          </InformationKey>
        </DataArray>
        <DataArray type="Float64" Name="Pressure" format="ascii" RangeMin="0.717833339257093" RangeMax="1.5457895999999995">
          0.72124 0.72124 1.5457895999999995 0.7378082652860593 0.72124 0.7191036473782557
          1.5457895999999995 0.7363134233178149 0.7194220112516493 1.5457895999999995 0.7364246060923856 0.7194035986679801
          1.5457895999999995 0.7364233225201344 0.7194086532295018 1.5457895999999995 0.7364310083776054 0.7193853910494059
          1.5457895999999995 0.7362366514933144 0.7191306263248055 1.5457895999999995 0.7333874650813192 0.717833339257093
        </DataArray>
        <DataArray type="Float64" Name="Temperature" format="ascii" RangeMin="0.002465243402413836" RangeMax="0.003114">
          0.00247 0.00247 0.003114 0.0024942772948589077 0.00247 0.002467788791455371
          0.003114 0.0024921235736760903 0.0024681680971533814 0.003114 0.0024922807680561178 0.002468145596405987
          0.003114 0.0024922778165349943 0.002468150895801449 0.003114 0.0024922770368364833 0.0024681044256576476
          0.003114 0.0024919165394941137 0.0024675848521689215 0.003114 0.0024870730520148046 0.002465243402413836
        </DataArray>
        <DataArray type="Float64" Name="Density" format="ascii" RangeMin="0.9971970115458423" RangeMax="1.7">
          1 1 1.7 1.0130151285702287 1 0.9979313190922533
          1.7 1.0118363869945024 0.9982196974255261 1.7 1.011925344842234 0.9982032494071473
          1.7 1.0119247794653161 0.9982081195585013 1.7 1.0119356572391507 0.9981946362856209
          1.7 1.0118149446678149 0.9980512383945009 1.7 1.0098621372532914 0.9971970115458423
        </DataArray>
        <DataArray type="Float64" Name="Momentum" NumberOfComponents="3" format="ascii" RangeMin="2.891535983139673" RangeMax="4.535233026008696">
          2.9 0 0 2.9 0 0
          4.4528099999999995 -0.86071 0 2.935479524600385 -0.017556558337853922 0
          2.9 0 0 2.8939268150751163 0 0
          4.4528099999999995 -0.86071 0 2.931921053834118 -0.015817667655569842 0
          2.8948487977621222 0 0 4.4528099999999995 -0.86071 0
          2.9322099630151466 -0.015945344793099194 0 2.8947930156582395 0 0
          4.4528099999999995 -0.86071 0 2.9322088378498647 -0.01594306066448466 0
          2.8948129012895905 0 0 4.4528099999999995 -0.86071 0
          2.9322518201661785 -0.015945712095034238 0 2.8947661621516168 0 0
          4.4528099999999995 -0.86071 0 2.9319339110458724 -0.015729081731540286 0
          2.8942816717269615 0 0 4.4528099999999995 -0.86071 0
          2.9272665099165436 -0.012858313097943873 0 2.89153336992456 0.003887467586384124 0
          <InformationKey name="L2_NORM_RANGE" location="vtkDataArray" length="2">
            <Value index="0">
              2.8915359831
            </Value>
            <Value index="1">
              4.535233026
            </Value>
          </InformationKey>
        </DataArray>
        <DataArray type="Float64" Name="Energy" format="ascii" RangeMin="5.957324321842056" RangeMax="9.850459752999999">
          5.97846 5.97846 9.850459752999999 6.067516448299959 5.97846 5.964293483438213
          9.850459752999999 6.05844964417012 5.966537425899588 9.850459752999999 6.059188720491506 5.966399546876146
          9.850459752999999 6.059184641616852 5.966449164940086 9.850459752999999 6.059282461723562 5.966313119089833
          9.850459752999999 6.058386766669354 5.964884645204206 9.850459752999999 6.046014784879634 5.957324321842056
        </DataArray>
        <DataArray type="Float64" Name="TimeAveraDensf" format="ascii" RangeMin="0.9971970115458423" RangeMax="1.7">
          1 1 1.7 1.0130151285702287 1 0.9979313190922533
          1.7 1.0118363869945024 0.998219697425526 1.7 1.011925344842234 0.9982032494071474
          1.7 1.0119247794653161 0.9982081195585014 1.7 1.0119356572391507 0.9981946362856209
          1.7 1.0118149446678149 0.998051238394501 1.7 1.0098621372532914 0.9971970115458423
        </DataArray>
        <DataArray type="Float64" Name="TimeAveraVeloc" NumberOfComponents="3" format="ascii" RangeMin="2.6677841329462924" RangeMax="2.9000116960506057">
          2.9 0 0 2.9 0 0
          2.6193 -0.5063 0 2.89776474389235 -0.01733099323268082 0
          2.9 0 0 2.8999258362865237 0 0
          2.6193 -0.5063 0 2.897623658843619 -0.01563263375272922 0
          2.9000116960506057 0 0 2.6193 -0.5063 0
          2.897654434648336 -0.015757431982875356 0 2.9000035988437367 0 0
          2.6193 -0.5063 0 2.8976549417034674 -0.01575518357491819 0
          2.9000093713622976 0 0 2.6193 -0.5063 0
          2.8976662687884707 -0.015757634372267 0 2.9000017200285932 0 0
          2.6193 -0.5063 0 2.897697772203241 -0.015545413530835167 0
          2.8999329497178934 0 0 2.6193 -0.5063 0
          2.898679336447221 -0.012732741058019071 0 2.8996610864709083 0.003898394741835237 0
          <InformationKey name="L2_NORM_RANGE" location="vtkDataArray" length="2">
            <Value index="0">
              2.6677841329
            </Value>
            <Value index="1">
              2.9000116961
            </Value>
          </InformationKey>
        </DataArray>
        <DataArray type="Float64" Name="TimeAveraPress" format="ascii" RangeMin="0.717833339257093" RangeMax="1.5457895999999995">
          0.72124 0.72124 1.5457895999999995 0.7378082652860593 0.72124 0.7191036473782557
          1.5457895999999995 0.7363134233178149 0.7194220112516493 1.5457895999999995 0.7364246060923856 0.7194035986679801
          1.5457895999999995 0.7364233225201344 0.7194086532295018 1.5457895999999995 0.7364310083776054 0.7193853910494059
          1.5457895999999995 0.7362366514933144 0.7191306263248055 1.5457895999999995 0.7333874650813192 0.717833339257093
        </DataArray>
        <DataArray type="Float64" Name="TimeAveraTempe" format="ascii" RangeMin="0.002465243402413836" RangeMax="0.003114">
          0.00247 0.00247 0.003114 0.0024942772948589077 0.00247 0.002467788791455371
          0.003114 0.0024921235736760903 0.0024681680971533814 0.003114 0.0024922807680561178 0.002468145596405987
          0.003114 0.0024922778165349943 0.002468150895801449 0.003114 0.0024922770368364833 0.0024681044256576476
          0.003114 0.0024919165394941137 0.0024675848521689215 0.003114 0.0024870730520148046 0.002465243402413836
        </DataArray>
      </PointData>
      <CellData>
        <DataArray type="UInt8" Name="vtkGhostType" format="ascii" RangeMin="0" RangeMax="0">
          0 0 0 0 0 0
          0 0 0 0 0 0
          0 0 0 0 0 0
          0 0 0 0 0 0
          0 0 0 0
        </DataArray>
      </CellData>
      <Points>
        <DataArray type="Float32" Name="Points" NumberOfComponents="3" format="ascii" RangeMin="0" RangeMax="4.2201894765504395">
          0 1 0 0 0.5 0
          0.5857142806053162 1 0 0.5857142806053162 0.5 0
          0 0 0 0.5857142806053162 0 0
          1.1714290380477905 1 0 1.1714290380477905 0.5 0
          1.1714290380477905 0 0 1.7571430206298828 1 0
          1.7571430206298828 0.5 0 1.7571430206298828 0 0
          2.3428568840026855 1 0 2.3428568840026855 0.5 0
          2.3428568840026855 0 0 2.9285709857940674 1 0
          2.9285709857940674 0.5 0 2.9285709857940674 0 0
          3.5142860412597656 1 0 3.5142860412597656 0.5 0
          3.5142860412597656 0 0 4.099999904632568 1 0
          4.099999904632568 0.5 0 4.099999904632568 0 0
          <InformationKey name="L2_NORM_RANGE" location="vtkDataArray" length="2">
            <Value index="0">
              0
            </Value>
            <Value index="1">
              4.2201894766
            </Value>
          </InformationKey>
        </DataArray>
      </Points>
      <Cells>
        <DataArray type="Int64" Name="connectivity" format="ascii" RangeMin="0" RangeMax="23">
          5 3 4 3 1 4
          8 7 5 7 3 5
          11 10 8 10 7 8
          14 13 11 13 10 11
          17 16 14 16 13 14
          20 19 17 19 16 17
          23 22 20 22 19 20
          3 2 1 2 0 1
          7 6 3 6 2 3
          10 9 7 9 6 7
          13 12 10 12 9 10
          16 15 13 15 12 13
          19 18 16 18 15 16
          22 21 19 21 18 19
        </DataArray>
        <DataArray type="Int64" Name="offsets" format="ascii" RangeMin="3" RangeMax="84">
          3 6 9 12 15 18
          21 24 27 30 33 36
          39 42 45 48 51 54
          57 60 63 66 69 72
          75 78 81 84
        </DataArray>
        <DataArray type="UInt8" Name="types" format="ascii" RangeMin="5" RangeMax="5">
          5 5 5 5 5 5
          5 5 5 5 5 5
          5 5 5 5 5 5
          5 5 5 5 5 5
          5 5 5 5
        </DataArray>
      </Cells>
    </Piece>
  </UnstructuredGrid>
</VTKFile>
