<?xml version="1.0"?>
<VTKFile type="UnstructuredGrid" version="0.1" byte_order="LittleEndian" header_type="UInt32" compressor="vtkZLibDataCompressor">
  <UnstructuredGrid>
    <Piece NumberOfPoints="24" NumberOfCells="28">
      <PointData>
        <DataArray type="Float64" Name="Velocity" NumberOfComponents="3" format="ascii" RangeMin="2.6677841329462924" RangeMax="2.900023437763743">
          2.9 0 0 2.9 0 0
          2.6193 -0.5063 0 2.895391926024541 -0.033443547569075444 0
          2.9 0 0 2.899967296777211 0 0
          2.6193 -0.5063 0 2.8953394531143526 -0.031051030474126377 0
          2.8999938386591486 0 0 2.6193 -0.5063 0
          2.89534335587445 -0.031115874953492686 0 2.9000171043496756 0 0
          2.6193 -0.5063 0 2.8953523506753776 -0.03113357792385318 0
          2.900023437763743 0 0 2.6193 -0.5063 0
          2.895374286230214 -0.03114012878750127 0 2.90001478250147 0 0
          2.6193 -0.5063 0 2.895438391953439 -0.030769313645276578 0
          2.8998883200902776 0 0 2.6193 -0.5063 0
          2.897375134611504 -0.025588588183607593 0 2.899369530611042 0.007171176850529554 0
          <InformationKey name="L2_NORM_RANGE" location="vtkDataArray" length="2">
            <Value index="0">
              2.6677841329
            </Value>
            <Value index="1">
              2.9000234378
            </Value>
          </InformationKey>
        </DataArray>
        <DataArray type="Float64" Name="Pressure" format="ascii" RangeMin="0.7148996391957567" RangeMax="1.5457895999999995">
          0.72124 0.72124 1.5457895999999995 0.7534760725854318 0.72124 0.7177006320637578
          1.5457895999999995 0.7513491220057164 0.7179443637391283 1.5457895999999995 0.751417463681935 0.7179848148670226
          1.5457895999999995 0.7514334681705698 0.7179870325016618 1.5457895999999995 0.7514508003065237 0.7179566180974695
          1.5457895999999995 0.7511058375129075 0.7175188478711138 1.5457895999999995 0.7457071366029863 0.7148996391957567
        </DataArray>
        <DataArray type="Float64" Name="Temperature" format="ascii" RangeMin="0.0024609243485833286" RangeMax="0.003114">
          0.00247 0.00247 0.003114 0.002516591995746409 0.00247 0.0024663054101802377
          0.003114 0.0025135955369488022 0.0024666118019244154 0.003114 0.00251369222743813 0.002466658263840779
          0.003114 0.0025137113813223765 0.002466660395607387 0.003114 0.0025137130624703864 0.002466594082712857
          0.003114 0.0025130724766914514 0.002465680743255473 0.003114 0.0025040458657485764 0.0024609243485833286
        </DataArray>
        <DataArray type="Float64" Name="Density" format="ascii" RangeMin="0.9948645666459851" RangeMax="1.7">
          1 1 1.7 1.0253539362819462 1 0.9965833374833556
          1.7 1.023678389662432 0.9967979446667758 1.7 1.0237321221243778 0.9968353305173117
          1.7 1.0237461258983511 0.9968375479360184 1.7 1.0237690543550941 0.99682211948123
          1.7 1.023559920898764 0.99658333101202 1.7 1.01986612890791 0.9948645666459851
        </DataArray>
        <DataArray type="Float64" Name="Momentum" NumberOfComponents="3" format="ascii" RangeMin="2.8844888345025206" RangeMax="4.535233026008696">
          2.9 0 0 2.9 0 0
          4.4528099999999995 -0.86071 0 2.968801508428229 -0.034291473143184016 0
          2.9 0 0 2.8900590872148175 0 0
          4.4528099999999995 -0.86071 0 2.963896428890207 -0.03178626887311279 0
          2.890707897921753 0 0 4.4528099999999995 -0.86071 0
          2.9640559979880683 -0.031854320697895844 0 2.890839508720266 0 0
          4.4528099999999995 -0.86071 0 2.964105752114602 -0.031872879784899125 0
          2.890852252657392 0 0 4.4528099999999995 -0.86071 0
          2.964194595017962 -0.03188030020127602 0 2.8907988820200137 0 0
          4.4528099999999995 -0.86071 0 2.9636546914351065 -0.031494236240868556 0
          2.8899803615984196 0 0 4.4528099999999995 -0.86071 0
          2.9549347625302693 -0.026096934375034565 0 2.8844800116179274 0.007134349749743805 0
          <InformationKey name="L2_NORM_RANGE" location="vtkDataArray" length="2">
            <Value index="0">
              2.8844888345
            </Value>
            <Value index="1">
              4.535233026
            </Value>
          </InformationKey>
        </DataArray>
        <DataArray type="Float64" Name="Energy" format="ascii" RangeMin="5.939481970274855" RangeMax="9.850459752999999">
          5.97846 5.97846 9.850459752999999 6.151220784350255 5.97846 5.95529545297461
          9.850459752999999 6.13873207479297 5.956873893122643 9.850459752999999 6.139138997101548 5.95719782250834
          9.850459752999999 6.139264279878292 5.957230908759252 9.850459752999999 6.139468244253506 5.957066224294899
          9.850459752999999 6.137921545650329 5.954620191682643 9.850459752999999 6.1147334872734245 5.939481970274855
        </DataArray>
        <DataArray type="Float64" Name="TimeAveraDensf" format="ascii" RangeMin="0.9960310090187878" RangeMax="1.7">
          1 1 1.7 1.019183369017659 1 0.9972574553870511
          1.7 1.0177562717630717 0.9975089551011732 1.7 1.0178276202392613 0.9975194189413337
          1.7 1.0178343380640849 0.9975229629764863 1.7 1.017851240043132 0.9975085072960604
          1.7 1.017686325366377 0.9973174231101359 1.7 1.0148631898186196 0.9960310090187878
        </DataArray>
        <DataArray type="Float64" Name="TimeAveraVeloc" NumberOfComponents="3" format="ascii" RangeMin="2.6677841329462924" RangeMax="2.9000164032367195">
          2.9000000000000004 0 0 2.9000000000000004 0 0
          2.6193 -0.5063000000000001 0 2.8965785586880286 -0.02538575117130948 0
          2.9000000000000004 0 0 2.8999465626226173 0 0
          2.6193 -0.5063000000000001 0 2.896481771353458 -0.023340378334982037 0
          2.900002769038625 0 0 2.6193 -0.5063000000000001 0
          2.896499113169686 -0.023435205342691168 0 2.9000103503232912 0 0
          2.6193 -0.5063000000000001 0 2.896503863297418 -0.023442930742706074 0
          2.9000164032367195 0 0 2.6193 -0.5063000000000001 0
          2.8965204936170803 -0.023447431186615172 0 2.90000825003339 0 0
          2.6193 -0.5063000000000001 0 2.8965682951120537 -0.023155928148415373 0
          2.8999106391121487 0 0 2.6193 -0.5063000000000001 0
          2.8980273585006775 -0.019159452461482443 0 2.8995153360313575 0.0055344772102656325 0
          <InformationKey name="L2_NORM_RANGE" location="vtkDataArray" length="2">
            <Value index="0">
              2.6677841329
            </Value>
            <Value index="1">
              2.9000164032
            </Value>
          </InformationKey>
        </DataArray>
        <DataArray type="Float64" Name="TimeAveraPress" format="ascii" RangeMin="0.7163667658407832" RangeMax="1.5457895999999995">
          0.72124 0.72124 1.5457895999999995 0.7456406916407351 0.72124 0.7184022720093024
          1.5457895999999995 0.743829854967367 0.718683326820647 1.5457895999999995 0.743919621232187 0.7186943405425849
          1.5457895999999995 0.7439269800603125 0.7186979769081551 1.5457895999999995 0.7439394881474912 0.718671139290384
          1.5457895999999995 0.7436698425089521 0.7183248890702313 1.5457895999999995 0.7395461392380482 0.7163667658407832
        </DataArray>
        <DataArray type="Float64" Name="TimeAveraTempe" format="ascii" RangeMin="0.002463084282735955" RangeMax="0.003114">
          0.00247 0.00247 0.003114 0.002505432541281614 0.00247 0.002467047240683691
          0.003114 0.0025028575307519192 0.0024673900962797366 0.003114 0.0025029844788914215 0.002467402070361831
          0.003114 0.0025029925779886963 0.002467405786241537 0.003114 0.002502993028481416 0.0024673493965933157
          0.003114 0.0025024925133298992 0.0024666329772478875 0.003114 0.002495557858539501 0.002463084282735955
        </DataArray>
      </PointData>
      <CellData>
        <DataArray type="UInt8" Name="vtkGhostType" format="ascii" RangeMin="0" RangeMax="0">
          0 0 0 0 0 0
          0 0 0 0 0 0
          0 0 0 0 0 0
          0 0 0 0 0 0
          0 0 0 0
        </DataArray>
      </CellData>
      <Points>
        <DataArray type="Float32" Name="Points" NumberOfComponents="3" format="ascii" RangeMin="0" RangeMax="4.2201894765504395">
          0 1 0 0 0.5 0
          0.5857142806053162 1 0 0.5857142806053162 0.5 0
          0 0 0 0.5857142806053162 0 0
          1.1714290380477905 1 0 1.1714290380477905 0.5 0
          1.1714290380477905 0 0 1.7571430206298828 1 0
          1.7571430206298828 0.5 0 1.7571430206298828 0 0
          2.3428568840026855 1 0 2.3428568840026855 0.5 0
          2.3428568840026855 0 0 2.9285709857940674 1 0
          2.9285709857940674 0.5 0 2.9285709857940674 0 0
          3.5142860412597656 1 0 3.5142860412597656 0.5 0
          3.5142860412597656 0 0 4.099999904632568 1 0
          4.099999904632568 0.5 0 4.099999904632568 0 0
          <InformationKey name="L2_NORM_RANGE" location="vtkDataArray" length="2">
            <Value index="0">
              0
            </Value>
            <Value index="1">
              4.2201894766
            </Value>
          </InformationKey>
        </DataArray>
      </Points>
      <Cells>
        <DataArray type="Int64" Name="connectivity" format="ascii" RangeMin="0" RangeMax="23">
          5 3 4 3 1 4
          8 7 5 7 3 5
          11 10 8 10 7 8
          14 13 11 13 10 11
          17 16 14 16 13 14
          20 19 17 19 16 17
          23 22 20 22 19 20
          3 2 1 2 0 1
          7 6 3 6 2 3
          10 9 7 9 6 7
          13 12 10 12 9 10
          16 15 13 15 12 13
          19 18 16 18 15 16
          22 21 19 21 18 19
        </DataArray>
        <DataArray type="Int64" Name="offsets" format="ascii" RangeMin="3" RangeMax="84">
          3 6 9 12 15 18
          21 24 27 30 33 36
          39 42 45 48 51 54
          57 60 63 66 69 72
          75 78 81 84
        </DataArray>
        <DataArray type="UInt8" Name="types" format="ascii" RangeMin="5" RangeMax="5">
          5 5 5 5 5 5
          5 5 5 5 5 5
          5 5 5 5 5 5
          5 5 5 5 5 5
          5 5 5 5
        </DataArray>
      </Cells>
    </Piece>
  </UnstructuredGrid>
</VTKFile>
