<?xml version="1.0"?>
<VTKFile type="UnstructuredGrid" version="0.1" byte_order="LittleEndian" header_type="UInt32" compressor="vtkZLibDataCompressor">
  <UnstructuredGrid>
    <Piece NumberOfPoints="24" NumberOfCells="28">
      <PointData>
        <DataArray type="Float64" Name="Velocity" NumberOfComponents="3" format="ascii" RangeMin="2.6677841329462924" RangeMax="2.9009665124688313">
          2.9 0 0 2.9 0 0
          2.6193 -0.5063 0 2.879249611789338 -0.10969606345818404 0
          2.9 0 0 2.9009665124688313 0 0
          2.6193 -0.5063 0 2.8824903403977293 -0.11688230550778587 0
          2.900097676738733 0 0 2.6193 -0.5063 0
          2.8823027231759086 -0.1159796292605782 0 2.900039407035451 0 0
          2.6193 -0.5063 0 2.8823040062397403 -0.11596361373791927 0
          2.900143762970714 0 0 2.6193 -0.5063 0
          2.8823979639499258 -0.1160656052041734 0 2.900197360913324 0 0
          2.6193 -0.5063 0 2.882646319292089 -0.11550335312627752 0
          2.8998525328115137 0 0 2.6193 -0.5063 0
          2.8895693456870952 -0.10307203319995069 0 2.8987123770435157 0.015316856927164054 0
          <InformationKey name="L2_NORM_RANGE" location="vtkDataArray" length="2">
            <Value index="0">
              2.6677841329
            </Value>
            <Value index="1">
              2.9009665125
            </Value>
          </InformationKey>
        </DataArray>
        <DataArray type="Float64" Name="Pressure" format="ascii" RangeMin="0.7073026872365713" RangeMax="1.5457895999999995">
          0.72124 0.72124 1.5457895999999995 0.8313862392409013 0.72124 0.7209518905336052
          1.5457895999999995 0.8387168882915814 0.7181544220811618 1.5457895999999995 0.8379109930466193 0.7181715523495912
          1.5457895999999995 0.8379288436154957 0.7183130635530812 1.5457895999999995 0.8380780532235209 0.7184351142337593
          1.5457895999999995 0.8375427277580529 0.7180434343610924 1.5457895999999995 0.8220798099949376 0.7073026872365713
        </DataArray>
        <DataArray type="Float64" Name="Temperature" format="ascii" RangeMin="0.002445483750606652" RangeMax="0.003114">
          0.00247 0.00247 0.003114 0.0026192021681099653 0.00247 0.0024696097503566555
          0.003114 0.0026276508207610538 0.0024661470848826856 0.003114 0.0026267030604236654 0.002466200582010721
          0.003114 0.002626721738900891 0.0024663827632648043 0.003114 0.0026268290332657146 0.0024665509451023285
          0.003114 0.002625659481819547 0.002465354124151484 0.003114 0.0026019910583953846 0.002445483750606652
        </DataArray>
        <DataArray type="Float64" Name="Density" format="ascii" RangeMin="0.9905072876630971" RangeMax="1.7">
          1 1 1.7 1.0870536008069385 1 0.9997584935792604
          1.7 1.093112558142596 0.9972774808967814 1.7 1.092456257656432 0.9972796355559753
          1.7 1.0924717624071871 0.9974024639178369 1.7 1.0926216677643625 0.9975039160303536
          1.7 1.0924101288573613 0.9974440723591175 1.7 1.081995192092375 0.9905072876630971
        </DataArray>
        <DataArray type="Float64" Name="Momentum" NumberOfComponents="3" format="ascii" RangeMin="2.8712358171730745" RangeMax="4.535233026008696">
          2.9 0 0 2.9 0 0
          4.4528099999999995 -0.86071 0 3.1298986581175794 -0.11924550077656539 0
          2.9 0 0 2.9002659104297193 0 0
          4.4528099999999995 -0.86071 0 3.150886389813484 -0.12776551597522026 0
          2.892202105412612 0 0 4.4528099999999995 -0.86071 0
          3.148789646393696 -0.1267026717463917 0 2.8921502429462813 0 0
          4.4528099999999995 -0.86071 0 3.148835737490025 -0.12668697347537097 0
          2.8926105349029374 0 0 4.4528099999999995 -0.86071 0
          3.149370470531571 -0.12681579512826402 0 2.8929582247719376 0 0
          4.4528099999999995 -0.86071 0 3.1490320371080696 -0.12617703287213414 0
          2.8924407195684174 0 0 4.4528099999999995 -0.86071 0
          3.126500139250947 -0.11152344436153229 0 2.8711957343008216 0.015171458410448988 0
          <InformationKey name="L2_NORM_RANGE" location="vtkDataArray" length="2">
            <Value index="0">
              2.8712358172
            </Value>
            <Value index="1">
              4.535233026
            </Value>
          </InformationKey>
        </DataArray>
        <DataArray type="Float64" Name="Energy" format="ascii" RangeMin="5.9006909798644696" RangeMax="9.850459752999999">
          5.97846 5.97846 9.850459752999999 6.556719169497879 5.97846 5.97953870815484
          9.850459752999999 6.610990958601711 5.959707163057906 9.850459752999999 6.60557273497423 5.959589819268035
          9.850459752999999 6.6056831473173805 5.960756144693233 9.850459752999999 6.606982561225314 5.961637959220496
          9.850459752999999 6.605496995984043 5.959425724937735 9.850459752999999 6.544282378119619 5.9006909798644696
        </DataArray>
        <DataArray type="Float64" Name="TimeAveraDensf" format="ascii" RangeMin="0.9922630853193155" RangeMax="1.7000000000000002">
          1 1 1.7000000000000002 1.0519796284594756 1 0.9971451179564652
          1.7000000000000002 1.052800992900302 0.9962018003788788 1.7000000000000002 1.0525099778916667 0.9963068473147014
          1.7000000000000002 1.0525436733605809 0.9963473541843213 1.7000000000000002 1.0526152521998633 0.996372175014162
          1.7000000000000002 1.0523680082789866 0.9961577140247607 1.7000000000000002 1.0456001847714562 0.9922630853193155
        </DataArray>
        <DataArray type="Float64" Name="TimeAveraVeloc" NumberOfComponents="3" format="ascii" RangeMin="2.6677841329462924" RangeMax="2.90039340394719">
          2.9000000000000004 0 0 2.9000000000000004 0 0
          2.6193 -0.5063000000000001 0 2.888785745157744 -0.06666230879504213 0
          2.9000000000000004 0 0 2.90039340394719 0 0
          2.6193 -0.5063000000000001 0 2.8899650820488043 -0.06742825347931201 0
          2.8999953709480253 0 0 2.6193 -0.5063000000000001 0
          2.8898437785383884 -0.0670168134216414 0 2.900036411342034 0 0
          2.6193 -0.5063000000000001 0 2.8898607316915874 -0.06704720489208053 0
          2.9000757116911475 0 0 2.6193 -0.5063000000000001 0
          2.8899117363505966 -0.06708946110849855 0 2.9000882896860207 0 0
          2.6193 -0.5063000000000001 0 2.8900547919779553 -0.06659125363955494 0
          2.8998653670474033 0 0 2.6193 -0.5063000000000001 0
          2.8941376703730364 -0.05792169882448801 0 2.8990036625704 0.011435207977236633 0
          <InformationKey name="L2_NORM_RANGE" location="vtkDataArray" length="2">
            <Value index="0">
              2.6677841329
            </Value>
            <Value index="1">
              2.9003934039
            </Value>
          </InformationKey>
        </DataArray>
        <DataArray type="Float64" Name="TimeAveraPress" format="ascii" RangeMin="0.7109025359021476" RangeMax="1.5457895999999995">
          0.72124 0.72124 1.5457895999999995 0.7871228555021571 0.72124 0.7182565181673827
          1.5457895999999995 0.7880533193514727 0.7172083221596819 1.5457895999999995 0.7876982833029381 0.7173299679638114
          1.5457895999999995 0.7877377372724943 0.7173761588674288 1.5457895999999995 0.7878044186992438 0.7173963762677228
          1.5457895999999995 0.7873301043011636 0.7168998221735966 1.5457895999999995 0.7773554300978824 0.7109025359021476
        </DataArray>
        <DataArray type="Float64" Name="TimeAveraTempe" format="ascii" RangeMin="0.0024535653449468935" RangeMax="0.003114">
          0.00247 0.00247 0.003114 0.002561491037514436 0.00247 0.002466823279584978
          0.003114 0.0025623367446525646 0.002465556261793301 0.003114 0.0025619120388758448 0.0024657146460548575
          0.003114 0.002561957696583047 0.002465773172551516 0.003114 0.002561997613872275 0.0024657812306555335
          0.003114 0.0025610636647509363 0.002464604681013215 0.003114 0.0025452241434346366 0.0024535653449468935
        </DataArray>
      </PointData>
      <CellData>
        <DataArray type="UInt8" Name="vtkGhostType" format="ascii" RangeMin="0" RangeMax="0">
          0 0 0 0 0 0
          0 0 0 0 0 0
          0 0 0 0 0 0
          0 0 0 0 0 0
          0 0 0 0
        </DataArray>
      </CellData>
      <Points>
        <DataArray type="Float32" Name="Points" NumberOfComponents="3" format="ascii" RangeMin="0" RangeMax="4.2201894765504395">
          0 1 0 0 0.5 0
          0.5857142806053162 1 0 0.5857142806053162 0.5 0
          0 0 0 0.5857142806053162 0 0
          1.1714290380477905 1 0 1.1714290380477905 0.5 0
          1.1714290380477905 0 0 1.7571430206298828 1 0
          1.7571430206298828 0.5 0 1.7571430206298828 0 0
          2.3428568840026855 1 0 2.3428568840026855 0.5 0
          2.3428568840026855 0 0 2.9285709857940674 1 0
          2.9285709857940674 0.5 0 2.9285709857940674 0 0
          3.5142860412597656 1 0 3.5142860412597656 0.5 0
          3.5142860412597656 0 0 4.099999904632568 1 0
          4.099999904632568 0.5 0 4.099999904632568 0 0
          <InformationKey name="L2_NORM_RANGE" location="vtkDataArray" length="2">
            <Value index="0">
              0
            </Value>
            <Value index="1">
              4.2201894766
            </Value>
          </InformationKey>
        </DataArray>
      </Points>
      <Cells>
        <DataArray type="Int64" Name="connectivity" format="ascii" RangeMin="0" RangeMax="23">
          5 3 4 3 1 4
          8 7 5 7 3 5
          11 10 8 10 7 8
          14 13 11 13 10 11
          17 16 14 16 13 14
          20 19 17 19 16 17
          23 22 20 22 19 20
          3 2 1 2 0 1
          7 6 3 6 2 3
          10 9 7 9 6 7
          13 12 10 12 9 10
          16 15 13 15 12 13
          19 18 16 18 15 16
          22 21 19 21 18 19
        </DataArray>
        <DataArray type="Int64" Name="offsets" format="ascii" RangeMin="3" RangeMax="84">
          3 6 9 12 15 18
          21 24 27 30 33 36
          39 42 45 48 51 54
          57 60 63 66 69 72
          75 78 81 84
        </DataArray>
        <DataArray type="UInt8" Name="types" format="ascii" RangeMin="5" RangeMax="5">
          5 5 5 5 5 5
          5 5 5 5 5 5
          5 5 5 5 5 5
          5 5 5 5 5 5
          5 5 5 5
        </DataArray>
      </Cells>
    </Piece>
  </UnstructuredGrid>
</VTKFile>
