<?xml version="1.0"?>
<VTKFile type="UnstructuredGrid" version="0.1" byte_order="LittleEndian" header_type="UInt32" compressor="vtkZLibDataCompressor">
  <UnstructuredGrid>
    <Piece NumberOfPoints="24" NumberOfCells="28">
      <PointData>
        <DataArray type="Float64" Name="Velocity" NumberOfComponents="3" format="ascii" RangeMin="2.6677841329462924" RangeMax="2.9010811138014825">
          2.9 0 0 2.9 0 0
          2.6193 -0.5063 0 2.8734649492481634 -0.12902243768774557 0
          2.9 0 0 2.9010811138014825 0 0
          2.6193 -0.5063 0 2.878205435803849 -0.14241143440429557 0
          2.900309649880141 0 0 2.6193 -0.5063 0
          2.878257491062914 -0.14173331109139695 0 2.9000156704074276 0 0
          2.6193 -0.5063 0 2.8782131270978892 -0.1416112636778186 0
          2.9001533786538976 0 0 2.6193 -0.5063 0
          2.8783311158666334 -0.1417480796900182 0 2.9002500421638886 0 0
          2.6193 -0.5063 0 2.878628816263416 -0.14129916680016338 0
          2.899844703099597 0 0 2.6193 -0.5063 0
          2.8868759026054525 -0.12828822983488977 0 2.8988991350501623 0.014344725432933872 0
          <InformationKey name="L2_NORM_RANGE" location="vtkDataArray" length="2">
            <Value index="0">
              2.6677841329
            </Value>
            <Value index="1">
              2.9010811138
            </Value>
          </InformationKey>
        </DataArray>
        <DataArray type="Float64" Name="Pressure" format="ascii" RangeMin="0.7085707302714896" RangeMax="1.5457895999999995">
          0.72124 0.72124 1.5457895999999995 0.8522305168304393 0.72124 0.7251736013139023
          1.5457895999999995 0.8661032234365359 0.7220527364375993 1.5457895999999995 0.8655319926441614 0.7216554082524698
          1.5457895999999995 0.8654560061470552 0.7218560470059664 1.5457895999999995 0.865663239767084 0.7220833744302845
          1.5457895999999995 0.8652667423372987 0.7220135563677752 1.5457895999999995 0.8480614832177946 0.7085707302714896
        </DataArray>
        <DataArray type="Float64" Name="Temperature" format="ascii" RangeMin="0.0024447383890245818" RangeMax="0.003114">
          0.00247 0.00247 0.003114 0.002644557841878629 0.00247 0.002474103055527134
          0.003114 0.002660020031151257 0.002470137722304544 0.003114 0.0026593481553848788 0.002469684025374899
          0.003114 0.0026592672542512423 0.00246994980743732 0.003114 0.0026594214572614482 0.0024702905157507477
          0.003114 0.0026583530032536786 0.002469574099929747 0.003114 0.0026326569879119447 0.0024447383890245818
        </DataArray>
        <DataArray type="Float64" Name="Density" format="ascii" RangeMin="0.9925855874251808" RangeMax="1.7">
          1 1 1.7 1.1036240592510227 1 1.0037864962125629
          1.7 1.1150693960351292 1.0010710421673852 1.7 1.1146154946798559 1.000703978974171
          1.7 1.1145515469617557 1.0008744884517933 1.7 1.1147537852993992 1.0010515981134824
          1.7 1.1146910378913464 1.0012451805813019 1.7 1.103189728605574 0.9925855874251808
        </DataArray>
        <DataArray type="Float64" Name="Momentum" NumberOfComponents="3" format="ascii" RangeMin="2.8774407287445265" RangeMax="4.535233026008696">
          2.9 0 0 2.9 0 0
          4.4528099999999995 -0.86071 0 3.171225051404792 -0.1423922664154119 0
          2.9 0 0 2.9120660464512294 0 0
          4.4528099999999995 -0.86071 0 3.209398796966824 -0.15879863214969428 0
          2.9034160038136365 0 0 4.4528099999999995 -0.86071 0
          3.2081503972170906 -0.15797814465475132 0 2.902057220464161 0 0
          4.4528099999999995 -0.86071 0 3.207916893292585 -0.1578330529993218 0
          2.9026895292919597 0 0 4.4528099999999995 -0.86071 0
          3.208630506757373 -0.1580142083933687 0 2.9032999396368555 0 0
          4.4528099999999995 -0.86071 0 3.208781742904605 -0.1575049148936566 0
          2.903455533412688 0 0 4.4528099999999995 -0.86071 0
          3.184771843513281 -0.14152625745484157 0 2.877405500850114 0.014238367720301598 0
          <InformationKey name="L2_NORM_RANGE" location="vtkDataArray" length="2">
            <Value index="0">
              2.8774407287
            </Value>
            <Value index="1">
              4.535233026
            </Value>
          </InformationKey>
        </DataArray>
        <DataArray type="Float64" Name="Energy" format="ascii" RangeMin="5.913063762138341" RangeMax="9.850459752999999">
          5.97846 5.97846 9.850459752999999 6.6609410345066475 5.97846 6.007202253187345
          9.850459752999999 6.7596266774754765 5.985861167704988 9.850459752999999 6.756397013077795 5.9824871569416995
          9.850459752999999 6.755783055683091 5.984097223294355 9.850459752999999 6.75753251654453 5.985681663025652
          9.850459752999999 6.75718140035718 5.985147175557721 9.850459752999999 6.691400487957849 5.913063762138341
        </DataArray>
        <DataArray type="Float64" Name="TimeAveraDensf" format="ascii" RangeMin="0.992202455339195" RangeMax="1.7000000000000002">
          1 1 1.7000000000000002 1.0614876759638738 1 0.9982570321700762
          1.7000000000000002 1.0641494246932643 0.9969624128854127 1.7000000000000002 1.0638109079904117 0.9969934037095839
          1.7000000000000002 1.0638294163350621 0.9970579319857605 1.7000000000000002 1.0639245146905922 0.9971092026926925
          1.7000000000000002 1.063705965361065 0.9969627313631401 1.7000000000000002 1.056041014472381 0.992202455339195
        </DataArray>
        <DataArray type="Float64" Name="TimeAveraVeloc" NumberOfComponents="3" format="ascii" RangeMin="2.6677841329462924" RangeMax="2.9005280902077506">
          2.9 0 0 2.9 0 0
          2.6193 -0.5063000000000001 0 2.8860162374287652 -0.0781822300301155 0
          2.9 0 0 2.9005280902077506 0 0
          2.6193 -0.5063000000000001 0 2.8878317558060704 -0.08114854221120545 0
          2.9000467233163474 0 0 2.6193 -0.5063000000000001 0
          2.887730304750741 -0.08066724062335207 0 2.9000334892658306 0 0
          2.6193 -0.5063000000000001 0 2.887737428447266 -0.08067272726965985 0
          2.9000911333618804 0 0 2.6193 -0.5063000000000001 0
          2.8878006576458377 -0.08073225667668174 0 2.900118224866328 0 0
          2.6193 -0.5063000000000001 0 2.887972224757994 -0.08023755576797534 0
          2.899861944036313 0 0 2.6193 -0.5063000000000001 0
          2.8928228747431577 -0.07072173192934561 0 2.898971136451795 0.01208450762106804 0
          <InformationKey name="L2_NORM_RANGE" location="vtkDataArray" length="2">
            <Value index="0">
              2.6677841329
            </Value>
            <Value index="1">
              2.9005280902
            </Value>
          </InformationKey>
        </DataArray>
        <DataArray type="Float64" Name="TimeAveraPress" format="ascii" RangeMin="0.7103500076291858" RangeMax="1.5457895999999995">
          0.72124 0.72124 1.5457895999999995 0.7991120258431895 0.72124 0.719412825276807
          1.5457895999999995 0.8022859019729838 0.7179568340416848 1.5457895999999995 0.801870173796515 0.7179976943837483
          1.5457895999999995 0.8018916635327855 0.7180722394891073 1.5457895999999995 0.8019835518368855 0.7181282925450858
          1.5457895999999995 0.8015168665442749 0.717699490978571 1.5457895999999995 0.7901767459086858 0.7103500076291858
        </DataArray>
        <DataArray type="Float64" Name="TimeAveraTempe" format="ascii" RangeMin="0.0024518108594297964" RangeMax="0.0031140000000000004">
          0.00247 0.00247 0.0031140000000000004 0.0025768574610287643 0.00247 0.002468037149700411
          0.0031140000000000004 0.0025802622938080337 0.0024662443370495335 0.0031140000000000004 0.0025797684203773415 0.002466308707859536
          0.0031140000000000004 0.0025797940954133585 0.002466404968225936 0.0031140000000000004 0.0025798545658830144 0.002466470411176259
          0.0031140000000000004 0.0025788875634038173 0.002465359111634899 0.0031140000000000004 0.0025611674930199756 0.0024518108594297964
        </DataArray>
        <DataArray type="Float64" Name="RMSDensf" format="ascii" RangeMin="0" RangeMax="0.030658868587560017">
          0 0 1.4040731355929518e-16 0.026758422547703588 0 0.0023976161007547834
          1.4040731355929518e-16 0.030658868587560017 0.001718116661609806 1.4040731355929518e-16 0.03043735848419039 0.0015588660844712819
          1.4040731355929518e-16 0.030421089008222713 0.0016001177439668836 1.4040731355929518e-16 0.03047948047710074 0.0016461592648059182
          1.4040731355929518e-16 0.030505278857832892 0.0017868980182216944 1.4040731355929518e-16 0.02772970152799797 0.0019287460309183543
        </DataArray>
        <DataArray type="Float64" Name="RMSVeloc" NumberOfComponents="3" format="ascii" RangeMin="9.929002029782201e-17" RangeMax="0.038041686937934256">
          3.4402227037117395e-16 0 0 3.4402227037117395e-16 0 0
          0 9.929002029782201e-17 0 0.007255901264833528 0.032909733924944444 0
          3.4402227037117395e-16 0 0 0.0003972360089436121 0 0
          0 9.929002029782201e-17 0 0.005723525041284965 0.03760865865974991 0
          0.00010725396184518593 0 0 0 9.929002029782201e-17 0
          0.005745549134539257 0.03729615894869078 0 0.000014411733708439333 0 0
          0 9.929002029782201e-17 0 0.005757958242335429 0.03726159450913809 0
          0.000047772069477370284 0 0 0 9.929002029782201e-17 0
          0.0057258408642704315 0.03730436621195595 0 0.00007914196997830064 0 0
          0 9.929002029782201e-17 0 0.005646286987390274 0.03724836052803179 0
          0.000022896530030160958 0 0 0 9.929002029782201e-17 0
          0.0034922296034806052 0.034344262802800264 0 0.00027251480477069655 0.0033395165351967756 0
          <InformationKey name="L2_NORM_RANGE" location="vtkDataArray" length="2">
            <Value index="0">
              9.9290020298e-17
            </Value>
            <Value index="1">
              0.038041686938
            </Value>
          </InformationKey>
        </DataArray>
        <DataArray type="Float64" Name="RMSPress" format="ascii" RangeMin="4.28474156630673e-20" RangeMax="0.000015547014554859263">
          6.061889259272654e-20 6.061889259272654e-20 4.28474156630673e-20 0.000013824255103095864 6.061889259272654e-20 8.164163674607699e-7
          4.28474156630673e-20 0.000015547014554859263 5.311957188148192e-7 4.28474156630673e-20 0.000015443307974995567 4.677142159863476e-7
          4.28474156630673e-20 0.00001543697259538554 4.837059793410822e-7 4.28474156630673e-20 0.000015452193611337094 5.11295067014531e-7
          4.28474156630673e-20 0.00001539238232999441 5.843408102776938e-7 4.28474156630673e-20 0.00001350722347524683 0.0000019603860374296274
        </DataArray>
        <DataArray type="Float64" Name="RMSTempe" format="ascii" RangeMin="1.3702729172663844e-19" RangeMax="0.000049719808439305256">
          1.9386099606957416e-19 1.9386099606957416e-19 1.3702729172663844e-19 0.000044210373195230895 1.9386099606957416e-19 0.000002610923483324055
          1.3702729172663844e-19 0.000049719808439305256 0.0000016987794852869074 1.3702729172663844e-19 0.000049388151755861365 0.000001495763777741672
          1.3702729172663844e-19 0.000049367891026093 0.0000015469059058845693 1.3702729172663844e-19 0.00004941656828143953 0.000001635136617272843
          1.3702729172663844e-19 0.000049225290049829577 0.0000018687390461852152 1.3702729172663844e-19 0.000043196496752893077 0.000006269372033077905
        </DataArray>
        <DataArray type="Float64" Name="TurbulenceIntensity" format="ascii" RangeMin="2.6130367391950663e-33" RangeMax="0.00034628514167196094">
          2.885759403798709e-32 2.885759403798709e-32 2.6130367391950663e-33 0.0002655756135520075 2.885759403798709e-32 3.846849060250107e-8
          2.6130367391950663e-33 0.00034628514167196094 2.804830970819238e-9 2.6130367391950663e-33 0.0003405724151521982 5.0642419546966575e-11
          2.6130367391950663e-33 0.00033994178442550086 5.564440041843717e-10 2.6130367391950663e-33 0.00034071242140312037 1.5271546273926438e-9
          2.6130367391950663e-33 0.0003396670196815442 1.278341887009225e-10 2.6130367391950663e-33 0.00028824715235453436 0.0000027202834707811838
        </DataArray>
      </PointData>
      <CellData>
        <DataArray type="UInt8" Name="vtkGhostType" format="ascii" RangeMin="0" RangeMax="0">
          0 0 0 0 0 0
          0 0 0 0 0 0
          0 0 0 0 0 0
          0 0 0 0 0 0
          0 0 0 0
        </DataArray>
      </CellData>
      <Points>
        <DataArray type="Float32" Name="Points" NumberOfComponents="3" format="ascii" RangeMin="0" RangeMax="4.2201894765504395">
          0 1 0 0 0.5 0
          0.5857142806053162 1 0 0.5857142806053162 0.5 0
          0 0 0 0.5857142806053162 0 0
          1.1714290380477905 1 0 1.1714290380477905 0.5 0
          1.1714290380477905 0 0 1.7571430206298828 1 0
          1.7571430206298828 0.5 0 1.7571430206298828 0 0
          2.3428568840026855 1 0 2.3428568840026855 0.5 0
          2.3428568840026855 0 0 2.9285709857940674 1 0
          2.9285709857940674 0.5 0 2.9285709857940674 0 0
          3.5142860412597656 1 0 3.5142860412597656 0.5 0
          3.5142860412597656 0 0 4.099999904632568 1 0
          4.099999904632568 0.5 0 4.099999904632568 0 0
          <InformationKey name="L2_NORM_RANGE" location="vtkDataArray" length="2">
            <Value index="0">
              0
            </Value>
            <Value index="1">
              4.2201894766
            </Value>
          </InformationKey>
        </DataArray>
      </Points>
      <Cells>
        <DataArray type="Int64" Name="connectivity" format="ascii" RangeMin="0" RangeMax="23">
          5 3 4 3 1 4
          8 7 5 7 3 5
          11 10 8 10 7 8
          14 13 11 13 10 11
          17 16 14 16 13 14
          20 19 17 19 16 17
          23 22 20 22 19 20
          3 2 1 2 0 1
          7 6 3 6 2 3
          10 9 7 9 6 7
          13 12 10 12 9 10
          16 15 13 15 12 13
          19 18 16 18 15 16
          22 21 19 21 18 19
        </DataArray>
        <DataArray type="Int64" Name="offsets" format="ascii" RangeMin="3" RangeMax="84">
          3 6 9 12 15 18
          21 24 27 30 33 36
          39 42 45 48 51 54
          57 60 63 66 69 72
          75 78 81 84
        </DataArray>
        <DataArray type="UInt8" Name="types" format="ascii" RangeMin="5" RangeMax="5">
          5 5 5 5 5 5
          5 5 5 5 5 5
          5 5 5 5 5 5
          5 5 5 5 5 5
          5 5 5 5
        </DataArray>
      </Cells>
    </Piece>
  </UnstructuredGrid>
</VTKFile>
