<?xml version="1.0"?>
<VTKFile type="UnstructuredGrid" version="0.1" byte_order="LittleEndian" header_type="UInt32" compressor="vtkZLibDataCompressor">
  <UnstructuredGrid>
    <Piece NumberOfPoints="18" NumberOfCells="24">
      <PointData>
        <DataArray type="Float64" Name="Velocity" NumberOfComponents="3" format="ascii" RangeMin="0" RangeMax="0.03040814275905347">
          0 0 0 0 0 0
          0 0 0 0 0 0
          0 0 0 0 0 0
          0 0 0 0 0 0
          0 0 0 0 0 0
          0.006075247720305102 -0.0012095948576463234 -0.029770512113033245 0 0 0
          0 0 0 0 0 0
          0 0 0 0 0 0
          0 0 0 0 0 0
          <InformationKey name="L2_NORM_RANGE" location="vtkDataArray" length="2">
            <Value index="0">
              0
            </Value>
            <Value index="1">
              0.030408142759
            </Value>
          </InformationKey>
        </DataArray>
        <DataArray type="Float64" Name="Pressure" format="ascii" RangeMin="1.4744179122734575" RangeMax="4.351504922866704">
          1.5477109826905395 1.5497750494355116 1.4907791734504325 2.9027862645131837 1.5473838526416954 1.4744179122734575
          2.896226500595635 1.4911106109665957 2.90358555938219 4.351504922866704 2.9022153573130476 4.326767795627901
          2.9039638111789237 1.5984883989451506 1.6181459118334376 4.326509135587822 2.904052209646044 1.5981991250215275
        </DataArray>
        <DataArray type="Float64" Name="Temperature" format="ascii" RangeMin="240" RangeMax="710.4867257961982">
          610.3882183755046 562.3604017885846 609.7493833791292 590.4428854216859 611.7379720265523 558.422460129941
          240 611.477569177943 590.2448386026464 439.45182691523877 600.7984877503967 613.9796909498691
          599.0860674942004 589.3950040089003 710.4867257961982 614.7514494712547 598.5945860086388 588.8571760873638
        </DataArray>
        <DataArray type="Float64" Name="Density" format="ascii" RangeMin="0.4946366920694328" RangeMax="1.4643033491961401">
          0.5757529277717411 0.624924519381776 0.5763561446499409 0.5952020296697882 0.5744825724040878 0.629331427187398
          1.4643033491961401 0.5747272206232065 0.5954017397916777 0.7997072313340452 0.5849428901243795 0.5723850625472363
          0.5866148836961156 0.5962602353544326 0.4946366920694328 0.5716664907571013 0.5870965291390087 0.5968048248000539
        </DataArray>
        <DataArray type="Float64" Name="stream" format="ascii" RangeMin="-0.003140293097583474" RangeMax="0.0022219366383378026">
          0.001726976325902916 0.0004735521405163078 -0.00010381222776752315 0.0022219366383378026 -0.0030153214898439073 0.0002803720755794058
          0.0001794064468194821 -0.0004063431406989096 -0.0007162169414398624 -0.00005188197460908849 0.00013799031340533914 -0.00009577551482479123
          -0.003140293097583474 0.00003270509396696174 0.0009191751362008896 0.000004403883928242062 0.00166053618519604 0.0008013697635876875
        </DataArray>
      </PointData>
      <CellData>
        <DataArray type="UInt8" Name="vtkGhostType" format="ascii" RangeMin="1" RangeMax="1">
          1 1 1 1 1 1
          1 1 1 1 1 1
          1 1 1 1 1 1
          1 1 1 1 1 1
        </DataArray>
      </CellData>
      <Points>
        <DataArray type="Float32" Name="Points" NumberOfComponents="3" format="ascii" RangeMin="0.5" RangeMax="1.224744871391589">
          0 -0.5 1 0 0 1
          -0.5 -0.5 1 -0.5 -0.5 0.5
          0 0.5 1 -0.5 0 1
          -0.5 0 0.5 -0.5 0.5 1
          -0.5 0.5 0.5 -0.5 0 0
          0 0 0.5 -0.5 0.5 0
          0 0.5 0.5 0.5 0.5 1
          0.5 0 1 -0.5 -0.5 0
          0 -0.5 0.5 0.5 -0.5 1
          <InformationKey name="L2_NORM_RANGE" location="vtkDataArray" length="2">
            <Value index="0">
              0.5
            </Value>
            <Value index="1">
              1.2247448714
            </Value>
          </InformationKey>
        </DataArray>
      </Points>
      <Cells>
        <DataArray type="Int64" Name="connectivity" format="ascii" RangeMin="0" RangeMax="17">
          9 6 10 11 8 12
          10 11 11 8 6 10
          1 4 13 10 10 12
          4 13 10 1 14 13
          12 4 7 10 10 12
          8 7 1 5 7 10
          10 6 5 7 10 1
          4 7 6 8 7 10
          3 6 10 15 15 9
          6 10 15 3 16 10
          16 0 17 10 1 14
          17 10 10 1 0 17
          6 5 2 10 10 6
          3 2 1 0 2 10
          10 16 0 2 10 1
          5 2 16 3 2 10
        </DataArray>
        <DataArray type="Int64" Name="offsets" format="ascii" RangeMin="4" RangeMax="96">
          4 8 12 16 20 24
          28 32 36 40 44 48
          52 56 60 64 68 72
          76 80 84 88 92 96
        </DataArray>
        <DataArray type="UInt8" Name="types" format="ascii" RangeMin="10" RangeMax="10">
          10 10 10 10 10 10
          10 10 10 10 10 10
          10 10 10 10 10 10
          10 10 10 10 10 10
        </DataArray>
      </Cells>
    </Piece>
  </UnstructuredGrid>
</VTKFile>
