<?xml version="1.0"?>
<VTKFile type="UnstructuredGrid" version="0.1" byte_order="LittleEndian" header_type="UInt32" compressor="vtkZLibDataCompressor">
  <UnstructuredGrid>
    <Piece NumberOfPoints="20" NumberOfCells="26">
      <PointData>
        <DataArray type="Float64" Name="Velocity" NumberOfComponents="3" format="ascii" RangeMin="0" RangeMax="0.006272323873969314">
          0 0 0 0 0 0
          0 0 0 0 0 0
          0 0 0 0 0 0
          0 0 0 0 0 0
          0 0 0 -0.0016633325136834205 -0.00014416090887917066 -0.006046039146518997
          0 0 0 0 0 0
          0 0 0 0 0 0
          0 0 0 0 0 0
          0 0 0 0 0 0
          0 0 0 0 0 0
          <InformationKey name="L2_NORM_RANGE" location="vtkDataArray" length="2">
            <Value index="0">
              0
            </Value>
            <Value index="1">
              0.006272323874
            </Value>
          </InformationKey>
        </DataArray>
        <DataArray type="Float64" Name="Pressure" format="ascii" RangeMin="-0.5609047674832677" RangeMax="2.4122333102946625">
          -0.34913022455199644 0.9078889555931419 -0.3767282959608318 2.173590683504986 0.9091260201460817 0.9076394560882118
          2.1975872979660895 2.2772997533570303 2.375853738834951 0.9072301602037915 2.2731816996855043 2.4122333102946625
          0.9045935685698162 0.9067020444808209 -0.4566249065707618 -0.4606818185122568 -0.5609047674832677 2.197666587722748
          0.9091198521469116 -0.37680538406248487
        </DataArray>
        <DataArray type="Float64" Name="Temperature" format="ascii" RangeMin="239.99999999999997" RangeMax="960">
          641.7885922440245 960 593.3841369340365 620.7673780125393 632.9587085021438 600.1832882567852
          597.4734881044744 593.9841500791886 607.3425341844944 600.5408878131614 615.7686320318234 548.5854205260418
          239.99999999999997 569.4208437148102 586.70086093799 604.1455776362833 603.1597372241334 597.2896944449127
          632.1161674273477 593.477608738485
        </DataArray>
        <DataArray type="Float64" Name="Density" format="ascii" RangeMin="0.367323468983412" RangeMax="1.4692938759336482">
          0.5494496700090866 0.367323468983412 0.5942702345332087 0.568055833334967 0.557114588183095 0.5875380689926916
          0.5902028077309673 0.5936699323998185 0.5806122745833504 0.5871882121268401 0.572667251757396 0.6427996753649341
          1.4692938759336482 0.6192792801955941 0.6010397354118524 0.5836846999753615 0.5846387092198073 0.5903844206650685
          0.5578571604318365 0.5941766378914249
        </DataArray>
        <DataArray type="Float64" Name="stream" format="ascii" RangeMin="-0.0007348129052031829" RangeMax="0.00007651120508635868">
          0.00007408612006665822 0.00007651120508635868 -0.00023650554642941346 0.00005482949892061359 -0.0006319541507830083 -0.0006284283172546833
          0.00006815128118719835 0.000021587167095006833 0.00006781819639783675 0.00007087020682540459 0.000029351365992886738 0.00004416579829724544
          0.00001518907136719316 -0.00016744782098581518 0.000054334424381434825 -0.0007348129052031829 -0.00008651894819974711 0.00005523892716864282
          0.0000698551958731395 0.0000714299769871468
        </DataArray>
      </PointData>
      <CellData>
        <DataArray type="UInt8" Name="vtkGhostType" format="ascii" RangeMin="1" RangeMax="1">
          1 1 1 1 1 1
          1 1 1 1 1 1
          1 1 1 1 1 1
          1 1 1 1 1 1
          1 1
        </DataArray>
      </CellData>
      <Points>
        <DataArray type="Float32" Name="Points" NumberOfComponents="3" format="ascii" RangeMin="0" RangeMax="1.224744871391589">
          0.5 0 1 0.5 0 0.5
          0.5 0.5 1 0.5 0 0
          0.5 0.5 0.5 0 0.5 0.5
          0.5 0.5 0 0 0.5 0
          -0.5 0.5 0 0 0 0.5
          0 0 0 -0.5 0 0
          -0.5 0 0.5 -0.5 0.5 0.5
          0 0 1 0 0.5 1
          -0.5 0.5 1 0.5 -0.5 0
          0.5 -0.5 0.5 0.5 -0.5 1
          <InformationKey name="L2_NORM_RANGE" location="vtkDataArray" length="2">
            <Value index="0">
              0
            </Value>
            <Value index="1">
              1.2247448714
            </Value>
          </InformationKey>
        </DataArray>
      </Points>
      <Cells>
        <DataArray type="Int64" Name="connectivity" format="ascii" RangeMin="0" RangeMax="19">
          7 5 9 6 6 7
          10 9 4 1 9 6
          6 3 1 9 6 4
          5 9 3 10 9 6
          11 12 9 8 8 11
          10 9 13 5 9 8
          8 7 5 9 8 13
          12 9 7 10 9 8
          1 0 2 9 9 1
          4 2 14 15 2 9
          9 5 15 2 9 14
          0 2 5 4 2 9
          5 15 16 9 9 5
          13 16 3 1 9 17
          17 3 10 9 17 18
          1 9 14 0 19 9
          9 1 0 19 1 18
          19 9
        </DataArray>
        <DataArray type="Int64" Name="offsets" format="ascii" RangeMin="4" RangeMax="104">
          4 8 12 16 20 24
          28 32 36 40 44 48
          52 56 60 64 68 72
          76 80 84 88 92 96
          100 104
        </DataArray>
        <DataArray type="UInt8" Name="types" format="ascii" RangeMin="10" RangeMax="10">
          10 10 10 10 10 10
          10 10 10 10 10 10
          10 10 10 10 10 10
          10 10 10 10 10 10
          10 10
        </DataArray>
      </Cells>
    </Piece>
  </UnstructuredGrid>
</VTKFile>
