<?xml version="1.0"?>
<VTKFile type="UnstructuredGrid" version="0.1" byte_order="LittleEndian" header_type="UInt32" compressor="vtkZLibDataCompressor">
  <UnstructuredGrid>
    <Piece NumberOfPoints="27" NumberOfCells="48">
      <PointData>
        <DataArray type="Float64" Name="Velocity" NumberOfComponents="3" format="ascii" RangeMin="0" RangeMax="0.03040814275905347">
          0 0 0 0 0 0
          0 0 0 0.006075247720305102 -0.0012095948576463234 -0.029770512113033245
          0 0 0 0 0 0
          0 0 0 0 0 0
          0 0 0 0 0 0
          0 0 0 0 0 0
          0 0 0 0 0 0
          0 0 0 0 0 0
          0 0 0 0 0 0
          0 0 0 0 0 0
          0 0 0 0 0 0
          0 0 0 0 0 0
          0 0 0 0 0 0
          0 0 0
          <InformationKey name="L2_NORM_RANGE" location="vtkDataArray" length="2">
            <Value index="0">
              0
            </Value>
            <Value index="1">
              0.030408142759
            </Value>
          </InformationKey>
        </DataArray>
        <DataArray type="Float64" Name="Pressure" format="ascii" RangeMin="1.4744179122734575" RangeMax="4.351504922866704">
          1.5981991250215275 2.9057038578689918 2.904052209646044 2.9022153573130476 4.217465853693035 4.266108953598433
          4.26356694226186 4.326509135587822 4.351504922866704 4.265671790656428 2.9039638111789237 4.217792381144408
          2.9056020833761966 2.901246203956791 4.2040636508906974 2.896226500595635 4.326767795627901 2.90358555938219
          1.6181459118334376 1.5984883989451506 1.5497750494355116 1.5473838526416954 1.4911106109665957 1.4744179122734575
          2.9027862645131837 1.5477109826905395 1.4907791734504325
        </DataArray>
        <DataArray type="Float64" Name="Temperature" format="ascii" RangeMin="240" RangeMax="960.0000000000001">
          588.8571760873638 612.6681735710392 598.5945860086388 600.7984877503967 592.0400703391075 582.2806492908362
          640.9508436373159 614.7514494712547 439.45182691523877 582.1573791077144 599.0860674942004 589.5383839387583
          612.8536942554435 960.0000000000001 617.5295281208939 240 613.9796909498691 590.2448386026464
          710.4867257961982 589.3950040089003 562.3604017885846 611.7379720265523 611.477569177943 558.422460129941
          590.4428854216859 610.3882183755046 609.7493833791292
        </DataArray>
        <DataArray type="Float64" Name="Density" format="ascii" RangeMin="0.366075837299035" RangeMax="1.4643033491961401">
          0.5968048248000539 0.5736103472760606 0.5870965291390087 0.5849428901243795 0.593596314529489 0.6035453938493168
          0.5482991516365536 0.5716664907571013 0.7997072313340452 0.6036731928842378 0.5866148836961156 0.5961152206224807
          0.5734367061848744 0.366075837299035 0.5690947360468138 1.4643033491961401 0.5723850625472363 0.5954017397916777
          0.4946366920694328 0.5962602353544326 0.624924519381776 0.5744825724040878 0.5747272206232065 0.629331427187398
          0.5952020296697882 0.5757529277717411 0.5763561446499409
        </DataArray>
        <DataArray type="Float64" Name="stream" format="ascii" RangeMin="-0.001945887325145776" RangeMax="0.0026112776904596018">
          0.0004615912377702057 0.0005961888130346587 0.0019083919324791698 0.00016404446025905547 0.000015207464710646041 0.000430214824792398
          0.0001453618925181122 0.0000059861494489777335 0.000012404391550811329 0.00005769262410967011 -0.0012568446425572752 0.00000355969062189593
          -0.001610289255648309 0.0003345413212375351 0.00001344646688329819 0.00036544128947517423 0.000004438552773315363 -0.0002626718654756896
          0.0005419830861909631 -0.0002005191022251373 0.0005123297595527769 -0.001945887325145776 -0.00012789076969441925 0.0003177566408722964
          0.0021059733062003747 0.0026112776904596018 0.00005522949226022937
        </DataArray>
      </PointData>
      <CellData>
        <DataArray type="UInt8" Name="vtkGhostType" format="ascii" RangeMin="0" RangeMax="0">
          0 0 0 0 0 0
          0 0 0 0 0 0
          0 0 0 0 0 0
          0 0 0 0 0 0
          0 0 0 0 0 0
          0 0 0 0 0 0
          0 0 0 0 0 0
          0 0 0 0 0 0
        </DataArray>
      </CellData>
      <Points>
        <DataArray type="Float32" Name="Points" NumberOfComponents="3" format="ascii" RangeMin="0" RangeMax="1.224744871391589">
          0.5 -0.5 1 0.5 -0.5 0.5
          0 -0.5 0.5 0 0 0.5
          0.5 -0.5 0 0 -0.5 0
          0 0 0 -0.5 -0.5 0
          -0.5 0 0 0 0.5 0
          0 0.5 0.5 0.5 0.5 0
          0.5 0.5 0.5 0.5 0 0.5
          0.5 0 0 -0.5 0 0.5
          -0.5 0.5 0 -0.5 0.5 0.5
          0.5 0 1 0.5 0.5 1
          0 0 1 0 0.5 1
          -0.5 0.5 1 -0.5 0 1
          -0.5 -0.5 0.5 0 -0.5 1
          -0.5 -0.5 1
          <InformationKey name="L2_NORM_RANGE" location="vtkDataArray" length="2">
            <Value index="0">
              0
            </Value>
            <Value index="1">
              1.2247448714
            </Value>
          </InformationKey>
        </DataArray>
      </Points>
      <Cells>
        <DataArray type="Int64" Name="connectivity" format="ascii" RangeMin="0" RangeMax="26">
          9 10 3 11 11 9
          6 3 12 13 3 11
          11 14 13 3 11 12
          10 3 14 6 3 11
          8 15 3 16 16 8
          6 3 17 10 3 16
          16 9 10 3 16 17
          15 3 9 6 3 16
          13 18 19 3 3 13
          12 19 20 21 19 3
          3 10 21 19 3 20
          18 19 10 12 19 3
          10 21 22 3 3 10
          17 22 20 23 22 3
          3 15 23 22 3 20
          21 22 15 17 22 3
          14 13 3 4 4 14
          6 3 1 2 3 4
          4 5 2 3 4 1
          13 3 5 6 3 4
          5 2 3 7 7 5
          6 3 24 15 3 7
          7 8 15 3 7 24
          2 3 8 6 3 7
          2 25 0 3 3 2
          1 0 20 18 0 3
          3 13 18 0 3 20
          25 0 13 1 0 3
          15 23 26 3 3 15
          24 26 20 25 26 3
          3 2 25 26 3 20
          23 26 2 24 26 3
        </DataArray>
        <DataArray type="Int64" Name="offsets" format="ascii" RangeMin="4" RangeMax="192">
          4 8 12 16 20 24
          28 32 36 40 44 48
          52 56 60 64 68 72
          76 80 84 88 92 96
          100 104 108 112 116 120
          124 128 132 136 140 144
          148 152 156 160 164 168
          172 176 180 184 188 192
        </DataArray>
        <DataArray type="UInt8" Name="types" format="ascii" RangeMin="10" RangeMax="10">
          10 10 10 10 10 10
          10 10 10 10 10 10
          10 10 10 10 10 10
          10 10 10 10 10 10
          10 10 10 10 10 10
          10 10 10 10 10 10
          10 10 10 10 10 10
          10 10 10 10 10 10
        </DataArray>
      </Cells>
    </Piece>
  </UnstructuredGrid>
</VTKFile>
