<?xml version="1.0"?>
<VTKFile type="UnstructuredGrid" version="0.1" byte_order="LittleEndian" header_type="UInt32" compressor="vtkZLibDataCompressor">
  <UnstructuredGrid>
    <Piece NumberOfPoints="18" NumberOfCells="24">
      <PointData>
        <DataArray type="Float64" Name="Velocity" NumberOfComponents="3" format="ascii" RangeMin="0" RangeMax="0.006272323873969314">
          0 0 0 0 0 0
          0 0 0 0 0 0
          0 0 0 0 0 0
          0 0 0 0 0 0
          0 0 0 0 0 0
          -0.0016633325136834205 -0.00014416090887917066 -0.006046039146518997 0 0 0
          0 0 0 0 0 0
          0 0 0 0 0 0
          0 0 0 0 0 0
          <InformationKey name="L2_NORM_RANGE" location="vtkDataArray" length="2">
            <Value index="0">
              0
            </Value>
            <Value index="1">
              0.006272323874
            </Value>
          </InformationKey>
        </DataArray>
        <DataArray type="Float64" Name="Pressure" format="ascii" RangeMin="-0.5960163235203414" RangeMax="2.4122333102946625">
          -0.46067388890704974 -0.4566249065707618 -0.5608305501883546 0.9062657963558808 -0.4606818185122568 -0.5960163235203414
          0.9045935685698162 -0.5609047674832677 0.9067020444808209 2.4122333102946625 0.9072301602037915 2.375853738834951
          0.9076394560882118 -0.3767282959608318 -0.34913022455199644 2.3758162685343542 0.907615329327104 -0.37680538406248487
        </DataArray>
        <DataArray type="Float64" Name="Temperature" format="ascii" RangeMin="239.99999999999997" RangeMax="641.7885922440245">
          603.9484578882145 586.70086093799 603.3286695454755 570.684919990488 604.1455776362833 579.3099153357427
          239.99999999999997 603.1597372241334 569.4208437148102 548.5854205260418 600.5408878131614 607.3425341844944
          600.1832882567852 593.3841369340365 641.7885922440245 608.2187541467586 600.088905518145 593.477608738485
        </DataArray>
        <DataArray type="Float64" Name="Density" format="ascii" RangeMin="0.5494496700090866" RangeMax="1.4692938759336482">
          0.5838752059357759 0.6010397354118524 0.58447501009646 0.6179075666305552 0.5836846999753615 0.6087079141735495
          1.4692938759336482 0.5846387092198073 0.6192792801955941 0.6427996753649341 0.5871882121268401 0.5806122745833504
          0.5875380689926916 0.5942702345332087 0.5494496700090866 0.579775825424463 0.58763047771996 0.5941766378914249
        </DataArray>
        <DataArray type="Float64" Name="stream" format="ascii" RangeMin="-0.001016608728764596" RangeMax="0.0005702265562806041">
          0.0004137767373151941 0.00009169467390564631 -0.000009460397128336213 0.0005702265562806041 -0.0007894879219376078 0.00007377690004912752
          0.0000893917333132109 -0.00009033979670480337 -0.0002095416613854771 0.000008171548643351928 0.0000034352588709893557 -0.000006658851415971495
          -0.001016608728764596 0.000026792649740065546 0.00019638596282404666 0.000038622483760572085 0.0005421601057320456 0.00012386045313980354
        </DataArray>
      </PointData>
      <CellData>
        <DataArray type="UInt8" Name="vtkGhostType" format="ascii" RangeMin="1" RangeMax="1">
          1 1 1 1 1 1
          1 1 1 1 1 1
          1 1 1 1 1 1
          1 1 1 1 1 1
        </DataArray>
      </CellData>
      <Points>
        <DataArray type="Float32" Name="Points" NumberOfComponents="3" format="ascii" RangeMin="0.5" RangeMax="1.224744871391589">
          0 -0.5 1 0 0 1
          -0.5 -0.5 1 -0.5 -0.5 0.5
          0 0.5 1 -0.5 0 1
          -0.5 0 0.5 -0.5 0.5 1
          -0.5 0.5 0.5 -0.5 0 0
          0 0 0.5 -0.5 0.5 0
          0 0.5 0.5 0.5 0.5 1
          0.5 0 1 -0.5 -0.5 0
          0 -0.5 0.5 0.5 -0.5 1
          <InformationKey name="L2_NORM_RANGE" location="vtkDataArray" length="2">
            <Value index="0">
              0.5
            </Value>
            <Value index="1">
              1.2247448714
            </Value>
          </InformationKey>
        </DataArray>
      </Points>
      <Cells>
        <DataArray type="Int64" Name="connectivity" format="ascii" RangeMin="0" RangeMax="17">
          9 6 10 11 8 12
          10 11 11 8 6 10
          1 4 13 10 10 12
          4 13 10 1 14 13
          12 4 7 10 10 12
          8 7 1 5 7 10
          10 6 5 7 10 1
          4 7 6 8 7 10
          3 6 10 15 15 9
          6 10 15 3 16 10
          16 0 17 10 1 14
          17 10 10 1 0 17
          6 5 2 10 10 6
          3 2 1 0 2 10
          10 16 0 2 10 1
          5 2 16 3 2 10
        </DataArray>
        <DataArray type="Int64" Name="offsets" format="ascii" RangeMin="4" RangeMax="96">
          4 8 12 16 20 24
          28 32 36 40 44 48
          52 56 60 64 68 72
          76 80 84 88 92 96
        </DataArray>
        <DataArray type="UInt8" Name="types" format="ascii" RangeMin="10" RangeMax="10">
          10 10 10 10 10 10
          10 10 10 10 10 10
          10 10 10 10 10 10
          10 10 10 10 10 10
        </DataArray>
      </Cells>
    </Piece>
  </UnstructuredGrid>
</VTKFile>
