<?xml version="1.0"?>
<VTKFile type="UnstructuredGrid" version="0.1" byte_order="LittleEndian" header_type="UInt32" compressor="vtkZLibDataCompressor">
  <UnstructuredGrid>
    <Piece NumberOfPoints="18" NumberOfCells="24">
      <PointData>
        <DataArray type="Float64" Name="Velocity" NumberOfComponents="3" format="ascii" RangeMin="0" RangeMax="0.018573581657387272">
          0 0 0 0 0 0
          0 0 0 0 0 0
          0 0 0 0 0 0
          0 0 0 0 0 0
          0 0 0 0 0 0
          0.003685433193942651 -0.0008941205817120379 -0.01818230090340542 0 0 0
          0 0 0 0 0 0
          0 0 0 0 0 0
          0 0 0 0 0 0
          <InformationKey name="L2_NORM_RANGE" location="vtkDataArray" length="2">
            <Value index="0">
              0
            </Value>
            <Value index="1">
              0.018573581657
            </Value>
          </InformationKey>
        </DataArray>
        <DataArray type="Float64" Name="Pressure" format="ascii" RangeMin="0.20059681506291266" RangeMax="3.094992642478955">
          0.2814998037467767 0.28211131920599186 0.21966853056696942 1.6407534071487062 0.28096307281578725 0.20059681506291266
          1.6367926184251067 0.21901406521007932 1.6410544976039794 3.094992642478955 1.6424923599471557 3.0723636134444714
          1.6428165036256335 0.33410628315687657 0.3503616456820166 3.0717798197998016 1.642754315430442 0.33391110033799987
        </DataArray>
        <DataArray type="Float64" Name="Temperature" format="ascii" RangeMin="240" RangeMax="685.141854687256">
          608.281289516555 574.9615012248299 605.8155448978035 583.7344855597677 609.3195849420188 572.3936926254039
          240 606.8618898077009 583.2145274218728 494.4031393452565 600.8060986853887 612.3391973097025
          599.7774260688285 588.82829147182 685.141854687256 613.0771835716281 599.4056651939653 588.6921221469822
        </DataArray>
        <DataArray type="Float64" Name="Density" format="ascii" RangeMin="0.5140787114430013" RangeMax="1.4675701742220526">
          0.5790361266795248 0.6125920449681788 0.581392875735318 0.6033853584571708 0.5780494350051273 0.6153401869223543
          1.4675701742220526 0.5803904442325438 0.6039232996651912 0.712408182277599 0.5862404569194136 0.5751989148510316
          0.5872459124076359 0.5981656230085353 0.5140787114430013 0.5745065242215817 0.5876101316114799 0.5983039836319612
        </DataArray>
        <DataArray type="Float64" Name="stream" format="ascii" RangeMin="-0.0019197688433123103" RangeMax="0.0013577101744279623">
          0.001056725252986663 0.0002911129374021386 -0.00006186115942587239 0.0013577101744279623 -0.0018416163767233562 0.00016826169253928266
          0.00010324493787546467 -0.00024707376849397435 -0.0004391530136078065 -0.000030358271601549786 0.0000897202675044274 -0.000056951976866243337
          -0.0019197688433123103 0.000021070341978111112 0.0005629011986638634 0.0000016932742978193203 0.0010173721038161322 0.0004905320653592526
        </DataArray>
      </PointData>
      <CellData>
        <DataArray type="UInt8" Name="vtkGhostType" format="ascii" RangeMin="1" RangeMax="1">
          1 1 1 1 1 1
          1 1 1 1 1 1
          1 1 1 1 1 1
          1 1 1 1 1 1
        </DataArray>
      </CellData>
      <Points>
        <DataArray type="Float32" Name="Points" NumberOfComponents="3" format="ascii" RangeMin="0.5" RangeMax="1.224744871391589">
          0 -0.5 1 0 0 1
          -0.5 -0.5 1 -0.5 -0.5 0.5
          0 0.5 1 -0.5 0 1
          -0.5 0 0.5 -0.5 0.5 1
          -0.5 0.5 0.5 -0.5 0 0
          0 0 0.5 -0.5 0.5 0
          0 0.5 0.5 0.5 0.5 1
          0.5 0 1 -0.5 -0.5 0
          0 -0.5 0.5 0.5 -0.5 1
          <InformationKey name="L2_NORM_RANGE" location="vtkDataArray" length="2">
            <Value index="0">
              0.5
            </Value>
            <Value index="1">
              1.2247448714
            </Value>
          </InformationKey>
        </DataArray>
      </Points>
      <Cells>
        <DataArray type="Int64" Name="connectivity" format="ascii" RangeMin="0" RangeMax="17">
          9 6 10 11 8 12
          10 11 11 8 6 10
          1 4 13 10 10 12
          4 13 10 1 14 13
          12 4 7 10 10 12
          8 7 1 5 7 10
          10 6 5 7 10 1
          4 7 6 8 7 10
          3 6 10 15 15 9
          6 10 15 3 16 10
          16 0 17 10 1 14
          17 10 10 1 0 17
          6 5 2 10 10 6
          3 2 1 0 2 10
          10 16 0 2 10 1
          5 2 16 3 2 10
        </DataArray>
        <DataArray type="Int64" Name="offsets" format="ascii" RangeMin="4" RangeMax="96">
          4 8 12 16 20 24
          28 32 36 40 44 48
          52 56 60 64 68 72
          76 80 84 88 92 96
        </DataArray>
        <DataArray type="UInt8" Name="types" format="ascii" RangeMin="10" RangeMax="10">
          10 10 10 10 10 10
          10 10 10 10 10 10
          10 10 10 10 10 10
          10 10 10 10 10 10
        </DataArray>
      </Cells>
    </Piece>
  </UnstructuredGrid>
</VTKFile>
