<?xml version="1.0"?>
<VTKFile type="UnstructuredGrid" version="0.1" byte_order="LittleEndian" header_type="UInt32" compressor="vtkZLibDataCompressor">
  <UnstructuredGrid>
    <Piece NumberOfPoints="20" NumberOfCells="26">
      <PointData>
        <DataArray type="Float64" Name="Velocity" NumberOfComponents="3" format="ascii" RangeMin="0" RangeMax="0.03040814275905347">
          0 0 0 0 0 0
          0 0 0 0 0 0
          0 0 0 0 0 0
          0 0 0 0 0 0
          0 0 0 0.006075247720305102 -0.0012095948576463234 -0.029770512113033245
          0 0 0 0 0 0
          0 0 0 0 0 0
          0 0 0 0 0 0
          0 0 0 0 0 0
          0 0 0 0 0 0
          <InformationKey name="L2_NORM_RANGE" location="vtkDataArray" length="2">
            <Value index="0">
              0
            </Value>
            <Value index="1">
              0.030408142759
            </Value>
          </InformationKey>
        </DataArray>
        <DataArray type="Float64" Name="Pressure" format="ascii" RangeMin="1.4911106109665957" RangeMax="4.351504922866704">
          1.6181459118334376 2.901246203956791 1.5984883989451506 4.2040636508906974 2.9056020833761966 2.9039638111789237
          4.217792381144408 4.265671790656428 4.326767795627901 2.9022153573130476 4.26356694226186 4.351504922866704
          2.896226500595635 2.90358555938219 1.5497750494355116 1.5473838526416954 1.4911106109665957 4.217465853693035
          2.9057038578689918 1.5981991250215275
        </DataArray>
        <DataArray type="Float64" Name="Temperature" format="ascii" RangeMin="240" RangeMax="960.0000000000001">
          710.4867257961982 960.0000000000001 589.3950040089003 617.5295281208939 612.8536942554435 599.0860674942004
          589.5383839387583 582.1573791077144 613.9796909498691 600.7984877503967 640.9508436373159 439.45182691523877
          240 590.2448386026464 562.3604017885846 611.7379720265523 611.477569177943 592.0400703391075
          612.6681735710392 588.8571760873638
        </DataArray>
        <DataArray type="Float64" Name="Density" format="ascii" RangeMin="0.366075837299035" RangeMax="1.4643033491961401">
          0.4946366920694328 0.366075837299035 0.5962602353544326 0.5690947360468138 0.5734367061848744 0.5866148836961156
          0.5961152206224807 0.6036731928842378 0.5723850625472363 0.5849428901243795 0.5482991516365536 0.7997072313340452
          1.4643033491961401 0.5954017397916777 0.624924519381776 0.5744825724040878 0.5747272206232065 0.593596314529489
          0.5736103472760606 0.5968048248000539
        </DataArray>
        <DataArray type="Float64" Name="stream" format="ascii" RangeMin="-0.0023541591838418304" RangeMax="0.00039745800506243626">
          0.00039745800506243626 0.0003725102417594142 -0.0007079533887269075 0.00005596662767948506 -0.0023541591838418304 -0.0018737871813585365
          0.00034533993294486194 0.00020968395029510008 0.000359696330789524 0.0003686093810332376 0.00008554088920184778 0.0002682489784111241
          0.00017877531153258526 -0.0004014705618490994 0.00026820805859695864 -0.0021459834246002956 -0.00016258785440056934 0.00018233675005998513
          0.00017665765999168268 0.0003134046011456119
        </DataArray>
      </PointData>
      <CellData>
        <DataArray type="UInt8" Name="vtkGhostType" format="ascii" RangeMin="1" RangeMax="1">
          1 1 1 1 1 1
          1 1 1 1 1 1
          1 1 1 1 1 1
          1 1 1 1 1 1
          1 1
        </DataArray>
      </CellData>
      <Points>
        <DataArray type="Float32" Name="Points" NumberOfComponents="3" format="ascii" RangeMin="0" RangeMax="1.224744871391589">
          0.5 0 1 0.5 0 0.5
          0.5 0.5 1 0.5 0 0
          0.5 0.5 0.5 0 0.5 0.5
          0.5 0.5 0 0 0.5 0
          -0.5 0.5 0 0 0 0.5
          0 0 0 -0.5 0 0
          -0.5 0 0.5 -0.5 0.5 0.5
          0 0 1 0 0.5 1
          -0.5 0.5 1 0.5 -0.5 0
          0.5 -0.5 0.5 0.5 -0.5 1
          <InformationKey name="L2_NORM_RANGE" location="vtkDataArray" length="2">
            <Value index="0">
              0
            </Value>
            <Value index="1">
              1.2247448714
            </Value>
          </InformationKey>
        </DataArray>
      </Points>
      <Cells>
        <DataArray type="Int64" Name="connectivity" format="ascii" RangeMin="0" RangeMax="19">
          7 5 9 6 6 7
          10 9 4 1 9 6
          6 3 1 9 6 4
          5 9 3 10 9 6
          11 12 9 8 8 11
          10 9 13 5 9 8
          8 7 5 9 8 13
          12 9 7 10 9 8
          1 0 2 9 9 1
          4 2 14 15 2 9
          9 5 15 2 9 14
          0 2 5 4 2 9
          5 15 16 9 9 5
          13 16 3 1 9 17
          17 3 10 9 17 18
          1 9 14 0 19 9
          9 1 0 19 1 18
          19 9
        </DataArray>
        <DataArray type="Int64" Name="offsets" format="ascii" RangeMin="4" RangeMax="104">
          4 8 12 16 20 24
          28 32 36 40 44 48
          52 56 60 64 68 72
          76 80 84 88 92 96
          100 104
        </DataArray>
        <DataArray type="UInt8" Name="types" format="ascii" RangeMin="10" RangeMax="10">
          10 10 10 10 10 10
          10 10 10 10 10 10
          10 10 10 10 10 10
          10 10 10 10 10 10
          10 10
        </DataArray>
      </Cells>
    </Piece>
  </UnstructuredGrid>
</VTKFile>
