<?xml version="1.0"?>
<VTKFile type="UnstructuredGrid" version="0.1" byte_order="LittleEndian" header_type="UInt32" compressor="vtkZLibDataCompressor">
  <UnstructuredGrid>
    <Piece NumberOfPoints="418" NumberOfCells="757">
      <PointData>
        <DataArray type="Float64" Name="nsi_BC" NumberOfComponents="3" format="ascii" RangeMin="0" RangeMax="1">
          0 0 0 0 0 0
          0 0 0 0 0 0
          0 0 0 1 0 0
          0 0 0 0 0 0
          0 0 0 0 0 0
          0 0 0 0 0 0
          0 0 0 0 0 0
          0 0 0 0 0 0
          0 0 0 0 0 0
          0 0 0 0 0 0
          0 0 0 0 0 0
          0 0 0 0 0 0
          0 0 0 0 0 0
          0 0 0 0 0 0
          0 0 0 0 0 0
          0 0 0 0 0 0
          0 0 0 0 0 0
          0 0 0 0 0 0
          0 0 0 0 0 0
          0 0 0 0 0 0
          0 0 0 0 0 0
          0 0 0 0 0 0
          0 0 0 0 0 0
          0 0 0 0 0 0
          0 0 0 0 0 0
          0 0 0 0 0 0
          0 0 0 0 0 0
          0 0 0 0 0 0
          0 0 0 0 0 0
          0 0 0 0 0 0
          0 0 0 0 0 0
          0 0 0 0 0 0
          0 0 0 0 0 0
          0 0 0 0 0 0
          0 0 0 0 0 0
          0 0 0 0 0 0
          0 0 0 0 0 0
          0 0 0 0 0 0
          0 0 0 0 0 0
          0 0 0 0 0 0
          0 0 0 0 0 0
          0 0 0 0 0 0
          0 0 0 0 0 0
          0 0 0 0 0 0
          0 0 0 0 0 0
          0 0 0 0 0 0
          0 0 0 0 0 0
          0 0 0 0 0 0
          0 0 0 0 0 0
          0 0 0 0 0 0
          0 0 0 0 0 0
          0 0 0 0 0 0
          0 0 0 0 0 0
          0 0 0 0 0 0
          0 0 0 0 0 0
          0 0 0 0 0 0
          0 0 0 0 0 0
          0 0 0 0 0 0
          0 0 0 0 0 0
          0 0 0 0 0 0
          0 0 0 0 0 0
          0 0 0 0 0 0
          0 0 0 0 0 0
          0 0 0 0 0 0
          0 0 0 0 0 0
          0 0 0 0 0 0
          0 0 0 0 0 0
          0 0 0 0 0 0
          0 0 0 0 0 0
          0 0 0 0 0 0
          0 0 0 0 0 0
          0 0 0 0 0 0
          0 0 0 0 0 0
          0 0 0 0 0 0
          0 0 0 0 0 0
          0 0 0 0 0 0
          0 0 0 0 0 0
          0 0 0 0 0 0
          0 0 0 0 0 0
          0 0 0 0 0 0
          0 0 0 0 0 0
          0 0 0 0 0 0
          0 0 0 0 0 0
          0 0 0 0 0 0
          0 0 0 0 0 0
          0 0 0 0 0 0
          0 0 0 0 0 0
          0 0 0 0 0 0
          0 0 0 0 0 0
          0 0 0 0 0 0
          0 0 0 0 0 0
          0 0 0 0 0 0
          0 0 0 0 0 0
          0 0 0 0 0 0
          0 0 0 0 0 0
          0 0 0 0 0 0
          0 0 0 0 0 0
          0 0 0 0 0 0
          0 0 0 0 0 0
          0 0 0 0 0 0
          0 0 0 0 0 0
          0 0 0 0 0 0
          0 0 0 0 0 0
          0 0 0 0 0 0
          0 0 0 0 0 0
          0 0 0 0 0 0
          0 0 0 0 0 0
          0 0 0 0 0 0
          0 0 0 0 0 0
          0 0 0 0 0 0
          0 0 0 0 0 0
          0 0 0 0 0 0
          0 0 0 0 0 0
          0 0 0 0 0 0
          0 0 0 0 0 0
          0 0 0 0 0 0
          0 0 0 0 0 0
          0 0 0 0 0 0
          0 0 0 0 0 0
          0 0 0 0 0 0
          0 0 0 0 0 0
          0 0 0 0 0 0
          0 0 0 0 0 0
          0 0 0 0 0 0
          0 0 0 0 0 0
          0 0 0 0 0 0
          0 0 0 0 0 0
          0 0 0 0 0 0
          0 0 0 0 0 0
          0 0 0 0 0 0
          0 0 0 0 0 0
          0 0 0 0 0 0
          0 0 0 0 0 0
          0 0 0 0 0 0
          0 0 0 0 0 0
          0 0 0 0 0 0
          0 0 0 0 0 0
          0 0 0 0 0 0
          0 0 0 0 0 0
          0 0 0 0 0 0
          0 0 0 0 0 0
          0 0 0 0 0 0
          0 0 0 0 0 0
          0 0 0 0 0 0
          0 0 0 0 0 0
          0 0 0 0 0 0
          0 0 0 0 0 0
          0 0 0 0 0 0
          0 0 0 0 0 0
          0 0 0 0 0 0
          0 0 0 0 0 0
          0 0 0 0 0 0
          0 0 0 0 0 0
          0 0 0 0 0 0
          0 0 0 0 0 0
          0 0 0 0 0 0
          0 0 0 0 0 0
          0 0 0 0 0 0
          0 0 0 0 0 0
          0 0 0 0 0 0
          0 0 0 0 0 0
          0 0 0 0 0 0
          0 0 0 0 0 0
          0 0 0 0 0 0
          0 0 0 0 0 0
          0 0 0 0 0 0
          0 0 0 0 0 0
          0 0 0 0 0 0
          0 0 0 0 0 0
          0 0 0 0 0 0
          0 0 0 0 0 0
          0 0 0 0 0 0
          0 0 0 0 0 0
          0 0 0 0 0 0
          0 0 0 0 0 0
          0 0 0 0 0 0
          0 0 0 0 0 0
          0 0 0 0 0 0
          0 0 0 0 0 0
          0 0 0 0 0 0
          0 0 0 0 0 0
          0 0 0 0 0 0
          0 0 0 0 0 0
          0 0 0 0 0 0
          0 0 0 0 0 0
          0 0 0 0 0 0
          0 0 0 0 0 0
          0 0 0 0 0 0
          0 0 0 0 0 0
          0 0 0 0 0 0
          0 0 0 0 0 0
          0 0 0 0 0 0
          0 0 0 0 0 0
          0 0 0 0 0 0
          0 0 0 0 0 0
          0 0 0 0 0 0
          0 0 0 0 0 0
          0 0 0 0 0 0
          0 0 0 0 0 0
          0 0 0 0 0 0
          0 0 0 0 0 0
          0 0 0 0 0 0
          0 0 0 0 0 0
          0 0 0 0 0 0
          0 0 0 0 0 0
          0 0 0 0 0 0
          0 0 0 0 0 0
          0 0 0 0 0 0
          0 0 0 0 0 0
          <InformationKey name="L2_NORM_RANGE" location="vtkDataArray" length="2">
            <Value index="0">
              0
            </Value>
            <Value index="1">
              1
            </Value>
          </InformationKey>
        </DataArray>
        <DataArray type="Float64" Name="nsi_FIXNO" NumberOfComponents="3" format="ascii" RangeMin="1.4142135623730951" RangeMax="1.4142135623730951">
          1 1 0 -1 -1 0
          -1 -1 0 -1 -1 0
          1 1 0 1 1 0
          -1 -1 0 -1 -1 0
          -1 -1 0 -1 -1 0
          -1 -1 0 -1 -1 0
          -1 -1 0 -1 -1 0
          -1 -1 0 1 1 0
          -1 -1 0 -1 -1 0
          -1 -1 0 -1 -1 0
          -1 -1 0 -1 -1 0
          -1 -1 0 -1 -1 0
          -1 -1 0 -1 -1 0
          -1 -1 0 -1 -1 0
          -1 -1 0 -1 -1 0
          -1 -1 0 -1 -1 0
          1 1 0 -1 -1 0
          -1 -1 0 -1 -1 0
          1 1 0 -1 -1 0
          -1 -1 0 -1 -1 0
          -1 -1 0 -1 -1 0
          1 1 0 -1 -1 0
          -1 -1 0 -1 -1 0
          -1 -1 0 -1 -1 0
          -1 -1 0 -1 -1 0
          -1 -1 0 -1 -1 0
          -1 -1 0 -1 -1 0
          -1 -1 0 -1 -1 0
          -1 -1 0 -1 -1 0
          -1 -1 0 -1 -1 0
          1 1 0 -1 -1 0
          -1 -1 0 -1 -1 0
          -1 -1 0 -1 -1 0
          -1 -1 0 -1 -1 0
          -1 -1 0 1 1 0
          -1 -1 0 -1 -1 0
          -1 -1 0 -1 -1 0
          -1 -1 0 -1 -1 0
          -1 -1 0 -1 -1 0
          -1 -1 0 -1 -1 0
          -1 -1 0 -1 -1 0
          -1 -1 0 -1 -1 0
          -1 -1 0 -1 -1 0
          -1 -1 0 -1 -1 0
          1 1 0 -1 -1 0
          -1 -1 0 -1 -1 0
          -1 -1 0 -1 -1 0
          -1 -1 0 -1 -1 0
          -1 -1 0 -1 -1 0
          -1 -1 0 -1 -1 0
          -1 -1 0 -1 -1 0
          -1 -1 0 -1 -1 0
          -1 -1 0 -1 -1 0
          -1 -1 0 -1 -1 0
          -1 -1 0 -1 -1 0
          -1 -1 0 -1 -1 0
          -1 -1 0 -1 -1 0
          -1 -1 0 -1 -1 0
          -1 -1 0 -1 -1 0
          -1 -1 0 -1 -1 0
          -1 -1 0 1 1 0
          -1 -1 0 -1 -1 0
          -1 -1 0 -1 -1 0
          -1 -1 0 -1 -1 0
          -1 -1 0 -1 -1 0
          -1 -1 0 -1 -1 0
          -1 -1 0 -1 -1 0
          -1 -1 0 -1 -1 0
          -1 -1 0 -1 -1 0
          -1 -1 0 -1 -1 0
          -1 -1 0 -1 -1 0
          -1 -1 0 -1 -1 0
          -1 -1 0 -1 -1 0
          -1 -1 0 -1 -1 0
          1 1 0 -1 -1 0
          -1 -1 0 -1 -1 0
          -1 -1 0 -1 -1 0
          -1 -1 0 -1 -1 0
          -1 -1 0 -1 -1 0
          -1 -1 0 1 1 0
          -1 -1 0 -1 -1 0
          1 1 0 -1 -1 0
          1 1 0 -1 -1 0
          -1 -1 0 -1 -1 0
          -1 -1 0 1 1 0
          -1 -1 0 -1 -1 0
          -1 -1 0 -1 -1 0
          1 1 0 -1 -1 0
          1 1 0 -1 -1 0
          -1 -1 0 -1 -1 0
          -1 -1 0 -1 -1 0
          -1 -1 0 -1 -1 0
          1 1 0 -1 -1 0
          -1 -1 0 1 1 0
          1 1 0 -1 -1 0
          -1 -1 0 -1 -1 0
          -1 -1 0 -1 -1 0
          -1 -1 0 1 1 0
          -1 -1 0 -1 -1 0
          -1 -1 0 -1 -1 0
          -1 -1 0 -1 -1 0
          1 1 0 1 1 0
          -1 -1 0 1 1 0
          -1 -1 0 -1 -1 0
          -1 -1 0 -1 -1 0
          1 1 0 -1 -1 0
          -1 -1 0 -1 -1 0
          -1 -1 0 -1 -1 0
          1 1 0 -1 -1 0
          -1 -1 0 -1 -1 0
          1 1 0 -1 -1 0
          -1 -1 0 1 1 0
          1 1 0 -1 -1 0
          -1 -1 0 -1 -1 0
          -1 -1 0 -1 -1 0
          -1 -1 0 -1 -1 0
          -1 -1 0 1 1 0
          1 1 0 -1 -1 0
          1 1 0 1 1 0
          -1 -1 0 -1 -1 0
          1 1 0 -1 -1 0
          -1 -1 0 -1 -1 0
          -1 -1 0 1 1 0
          -1 -1 0 -1 -1 0
          -1 -1 0 1 1 0
          -1 -1 0 1 1 0
          -1 -1 0 -1 -1 0
          -1 -1 0 -1 -1 0
          -1 -1 0 -1 -1 0
          -1 -1 0 1 1 0
          1 1 0 -1 -1 0
          1 1 0 -1 -1 0
          1 1 0 -1 -1 0
          -1 -1 0 -1 -1 0
          1 1 0 -1 -1 0
          -1 -1 0 -1 -1 0
          -1 -1 0 -1 -1 0
          1 1 0 1 1 0
          -1 -1 0 -1 -1 0
          -1 -1 0 -1 -1 0
          -1 -1 0 -1 -1 0
          1 1 0 -1 -1 0
          -1 -1 0 -1 -1 0
          1 1 0 -1 -1 0
          1 1 0 1 1 0
          -1 -1 0 -1 -1 0
          -1 -1 0 -1 -1 0
          -1 -1 0 1 1 0
          1 1 0 -1 -1 0
          -1 -1 0 -1 -1 0
          -1 -1 0 1 1 0
          -1 -1 0 1 1 0
          -1 -1 0 -1 -1 0
          1 1 0 -1 -1 0
          -1 -1 0 1 1 0
          -1 -1 0 -1 -1 0
          1 1 0 -1 -1 0
          1 1 0 -1 -1 0
          -1 -1 0 1 1 0
          -1 -1 0 -1 -1 0
          -1 -1 0 -1 -1 0
          -1 -1 0 1 1 0
          -1 -1 0 -1 -1 0
          -1 -1 0 -1 -1 0
          -1 -1 0 -1 -1 0
          1 1 0 -1 -1 0
          -1 -1 0 -1 -1 0
          -1 -1 0 -1 -1 0
          -1 -1 0 1 1 0
          -1 -1 0 -1 -1 0
          -1 -1 0 -1 -1 0
          1 1 0 -1 -1 0
          -1 -1 0 -1 -1 0
          -1 -1 0 -1 -1 0
          -1 -1 0 1 1 0
          -1 -1 0 -1 -1 0
          -1 -1 0 -1 -1 0
          -1 -1 0 -1 -1 0
          1 1 0 -1 -1 0
          -1 -1 0 -1 -1 0
          -1 -1 0 -1 -1 0
          -1 -1 0 -1 -1 0
          -1 -1 0 -1 -1 0
          1 1 0 -1 -1 0
          -1 -1 0 -1 -1 0
          -1 -1 0 -1 -1 0
          -1 -1 0 -1 -1 0
          1 1 0 -1 -1 0
          -1 -1 0 -1 -1 0
          -1 -1 0 -1 -1 0
          -1 -1 0 -1 -1 0
          -1 -1 0 -1 -1 0
          1 1 0 -1 -1 0
          -1 -1 0 -1 -1 0
          -1 -1 0 -1 -1 0
          -1 -1 0 -1 -1 0
          -1 -1 0 -1 -1 0
          1 1 0 -1 -1 0
          -1 -1 0 -1 -1 0
          1 1 0 -1 -1 0
          -1 -1 0 -1 -1 0
          -1 -1 0 -1 -1 0
          -1 -1 0 -1 -1 0
          1 1 0 -1 -1 0
          -1 -1 0 -1 -1 0
          -1 -1 0 -1 -1 0
          -1 -1 0 -1 -1 0
          1 1 0 -1 -1 0
          -1 -1 0 1 1 0
          <InformationKey name="L2_NORM_RANGE" location="vtkDataArray" length="2">
            <Value index="0">
              1.4142135624
            </Value>
            <Value index="1">
              1.4142135624
            </Value>
          </InformationKey>
        </DataArray>
        <DataArray type="Float64" Name="Velocity" NumberOfComponents="3" format="ascii" RangeMin="0" RangeMax="1.4149730798898443">
          0 0 0 0.31853798241928466 0.024337158202907924 0
          0.7322425444594475 0.10039487950862853 0 0.5148696020861158 0.03667446525844385 0
          0 0 0 1 0 0
          0.717390042130286 0.02644897101315438 0 0.3695400971726442 0.02167724254596884 0
          0.6437174209441477 0.03808173809002558 0 0.31155927043618975 0.004827898677131896 0
          0.6663711541825775 0.028868919453853562 0 0.5619343086649199 0.03272917873025099 0
          0.7022472241265796 -0.09765637877207563 0 0.7198254309520793 0.03334254199590267 0
          0.686077058379345 0.047446955751205035 0 0 0 0
          0.5050327957924059 0.026586066757236605 0 0.7274756075431801 0.06109085875069439 0
          0.6054152024326882 -0.0045202180955303956 0 0.649190377040923 0.04390230203661583 0
          0.6610176080243311 0.05750952160327734 0 0.6875464666401542 0.06446341921573243 0
          0.42333283813333367 0.036368165386541876 0 0.3487332219224445 -0.028468973924227446 0
          0.7341986706280075 0.09919366971681748 0 0.6424939915693605 0.0800081544171392 0
          0.7441042403024434 0.11921067394612966 0 0.7156922216478353 0.1012197102966269 0
          0.32020620708785136 0.012122307096975874 0 0.5696645504288794 0.05035194800836049 0
          0.44455441182040417 0.003890207289834143 0 0.6006381141451804 0.09028086458490016 0
          0 0 0 0.6203102671942948 0.08436727416709004 0
          0.7370082294513121 0.1581237544626075 0 0.7586340304520138 0.1552511415697164 0
          0 0 0 0.7803389643145141 0.19145604301889568 0
          0.6536809954760623 0.1396377790331864 0 0.3208308478726024 0.01045437707134452 0
          0.564221240744462 0.0852486483919607 0 0.2003528400224055 0.005382028277182352 0
          0 0 0 0.4633852914977924 0.05372623346364621 0
          0.7659943746852773 0.18323153865767547 0 0.7595146197454152 0.22652066495222722 0
          0.8291968713382883 0.2463216571380948 0 0.6804661825507019 0.2103692706170382 0
          0.5149698894498018 0.09800730753486474 0 0.8149637225183731 0.2844202617564849 0
          0.30544150726021685 0.02662002799142929 0 0.4602175635623834 0.024731114780658127 0
          0.7948388467777844 0.1533905458445526 0 0.8783071606101065 0.2758672415550392 0
          0.5541658151726695 0.1682645682795321 0 0.6938449981271325 0.29122287411531406 0
          0.8727125636685357 0.34265445068319234 0 0.34473367104881675 0.04977208168619101 0
          0.801756357423428 0.3704198476588215 0 0.5905087826528536 0.254588545506291 0
          0 0 0 0.9501340231335271 0.3638498031306336 0
          0.7084549873801785 0.37252397897590434 0 0.18226117288516344 0.011509898727210286 0
          0.9838548903050219 0.2373803044351823 0 0.3665079896884472 0.09367953722276968 0
          0.4552457257158149 0.19077871061669643 0 0.8760353884022649 0.42331233071849356 0
          0.5928461624587678 0.3322790421908754 0 0 0 0
          0.7472508424445828 0.10280221804263204 0 0.4679737505986163 0.2665430130861423 0
          0.7449802441561222 0.4623257230084604 0 1.0546472108798397 0.3585836361994418 0
          0.9666253324465285 0.46218800994175363 0 0.32248408067855905 0.12559914298965116 0
          0.2099322409576886 0.036467067524074845 0 0.5679120968364713 0.4109201804226014 0
          0.8522870097461809 0.5115645626842642 0 1.1168452634266552 0.28651830918719046 0
          0.46454341904222446 0.3408158431929908 0 0.7283736234441198 0.5122429838403433 0
          0.3384451258283625 0.18874160786342148 0 0.23998124626752065 0.06439423333485111 0
          1.0348538475248465 0.19341596401234562 0 0.6091302539408799 0.4937641959287711 0
          0.9626861975524875 0.5219521815492074 0 0.34014851151830827 0.25856928717832334 0
          0 0 0 0.8325538568361908 0.0845255539035092 0
          1.1910333818553156 0.3824631648634173 0 0.7911131820130967 0.5625411025873374 0
          0.43865693416092494 0.4193361659469756 0 0.6422597555082761 0.5519294632459139 0
          1.2245349540173116 0.276319683890186 0 0.2285915999130121 0.11904340596840864 0
          0.312247054645897 0.305251382812549 0 0.11927017990418864 0.016232520266016053 0
          0.24010566342440282 0.18262421038880577 0 0.47733302070514005 0.011004983107178963 0
          0.9337573172937305 0.5624420956535072 0 0.42236856721459926 0.47652934583521556 0
          1.1486325811311644 0.47185028002365703 0 0.24335099163317628 0.24461820288616695 0
          0.6972796312131845 0.5855321562324914 0 0.27845334965069335 0.3451391853252361 0
          1.1689052101548658 0.1423677058844006 0 1.2947647676102199 0.33115802933306865 0
          0.13688138082207854 0.043600499785978915 0 0.5220302037231721 0.5565872462204701 0
          0.8064179897413386 0.5700356144683337 0 0.20070761682016627 0.2660670726963096 0
          0.3255813741670498 0.45348310668505093 0 1.0820613384031414 0.48501979304213083 0
          0.9178551197135453 0.029104667096731467 0 0.132581518615538 0.07040935914718235 0
          0.5573062982407848 0.5565843678574478 0 0.21653464429517788 0.3459024639836004 0
          1.27111540038667 0.35799018930693205 0 1.3480771456988305 0.19611906003957233 0
          0.13867623600158158 0.122422723273917 0 0 0 0
          0.1509318848297607 0.19044640945866276 0 0.326841876832902 0.47948736827100624 0
          1.3563255189208134 0.25977216214704546 0 0.16715702275671757 0.27752172455301893 0
          0.057487915234422635 0.008094085804569487 0 0.6567812289317028 0.5064388019454886 0
          0.15550541906593984 0.3265546510963328 0 0.9884035622955764 0.42332057756355623 0
          0.36408604677895856 0.45477964615258487 0 0.1090498726501028 0.1945086390144208 0
          1.1811028887388137 0.33993929304821746 0 0.07603047782759578 0.030467094672883402 0
          0.1005761958789119 0.1275577784391483 0 1.2501621470892543 0.05994649416438485 0
          1.3158789554616608 0.2561367296985625 0 0.16270569089162235 0.34198052334440526 0
          0.08349601782499745 0.1890473859654656 0 1.4027184402621644 0.15677200095865407 0
          0.4293347231610781 0.3578139600172543 0 0.0838888735694735 0.09314924229699113 0
          0.07391228345664912 0.23950992278988362 0 0.06843908093831476 0.04297366649683119 0
          0.7665869675813038 0.3082103325612498 0 0.07672350202597533 0.12609383436479707 0
          0.06775949582012526 0.2044542679964619 0 0.07088096175248176 0.20608976078900054 0
          0 0 0 0.08467391814090357 0.21610613640043236 0
          0.9965302763570453 0.2547873092614954 0 1.400112078002979 0.08354248131404396 0
          1.195835869848765 0.21241477734630781 0 0.0410437802707729 0.15401857290183263 0
          0.05713200472011176 0.05551440183742838 0 0.04645047198905995 0.11778131937477056 0
          0.9257029915127858 0.007875515991546062 0 0.032123944526067434 0.1357922375109527 0
          0.021622767621012347 0.1204530267725384 0 0 0 0
          0.05298283358869968 0.08316572854530056 0 0.40246723243334753 0.07077829622592809 0
          0 0 0 0.707895040759896 0.11326720848395119 0
          0 0 0 0.017523040258053964 0.09111962971300896 0
          0.0289335792186294 0.10531164097437372 0 0.03733070277211247 0.013383863211046003 0
          1.329936737010932 0.07355852571158586 0 0 0 0
          0.011047095171891388 0.0673880356925112 0 0.04001838504677315 0.05378908425323495 0
          0.9292074626790474 0.07730513979324394 0 0.03161458963194402 0.07273340822860491 0
          0 0 0 0.018396107374096585 0.07457455613550645 0
          0 0 0 1.41488117366762 0.016127033635787928 0
          0.3550793588252099 0.02813699761455624 0 0.006596346136066536 0.05415835612843186 0
          1.1313719496808237 0.032689085908919835 0 0.01775070865820873 0.0649921191698192 0
          0.6751043641513735 0.04067897748884106 0 0.030256346914970308 0.02154761988581575 0
          0 0 0 0.006779251350668346 0.04197070634242789 0
          1.40669957578942 -0.020898409608949217 0 0 0 0
          0 0 0 0.01325744676052357 0.0449106521867748 0
          0.023589858405203966 0.024878534380323357 0 0.004775610302691503 0.03344987555484091 0
          0.01816023772571754 0.03837505202764672 0 0.335990484526891 0.00043575210781468386 0
          0.012263720358664873 0.03806458509729426 0 0 0 0
          1.255010052136671 -0.04100965049384848 0 0.6599777430843055 -0.021043242704426316 0
          0.9413912381976568 -0.05115017851721053 0 0.0043039298798790305 0.025546453445370928 0
          1.153812964707598 -0.08744972822167907 0 0.016287501262293624 0.005560325329980325 0
          0 0 0 0 0 0
          0.013832371012159877 0.02199863008979171 0 0 0 0
          1.3146480208022902 -0.10598731644810758 0 0.007838620972431777 0.02467785588562998 0
          0.003597460489763243 0.01924794492125513 0 0.3415436835417926 -0.025730286772097353 0
          0 0 0 1.3933439949092492 -0.11491577828669286 0
          0.007435840152034111 0.01891439258523822 0 0.6735575306812315 -0.1184979854617706 0
          0.010936876845528475 0.009432844025021045 0 0.002811190743215354 0.013689925594487689 0
          0 0 0 0.9256417673630106 -0.16166037941508712 0
          0.0046346551637164776 0.01433231755617046 0 1.3756776528449355 -0.11500565260477538 0
          0 0 0 0.0024360995259587377 0.009806497794885698 0
          1.1290513772357507 -0.1869204593733988 0 0 0 0
          0 0 0 0.38887960061567123 -0.16599053516100115 0
          0.005854701627403751 0.007475160067601292 0 0.004565208635258219 0.009219242798688274 0
          0.9462237966836022 -0.04485755150378577 0 0.0014290383999743025 0.006361373375769863 0
          1.2800779354358274 -0.19485399426737088 0 1.2125939366405563 -0.08898042024828155 0
          0.005809334016979269 0.001949389623532265 0 0 0 0
          0 0 0 0.6681651086879467 -0.22910760435174285 0
          0 0 0 0 0 0
          0.0008444450780877223 0.004344502879037936 0 0.045644089252662286 -0.07150343793896437 0
          0 0 0 0.0025425910725518923 0.00505295178788945 0
          1.3574482583944019 -0.19533074562131814 0 0.8974815513074784 -0.2600287485163985 0
          0.0032013902885136354 0.002431009126083835 0 0 0 0
          0.02570885230437244 -0.03100954759555578 0 0.0009841192153730932 0.0024501027147119745 0
          0.0021455622281870037 0.0029867305794885803 0 0 0 0
          0.014754155414407949 -0.006065476388310585 0 0 0 0
          0.3075964141152953 -0.2027049601958311 0 1.325144795740823 -0.16999326725330707 0
          0.000949032958694384 0.0016635766814951918 0 1.0563481577101241 -0.29074466440010865 0
          0.006162406496305289 0.010828390421641944 0 0.0017915202371234572 0.00042181426359290213 0
          0.0007236562886288421 0.001315835341005541 0 0 0 0
          0 0 0 0.10086111059149816 -0.102181730305226 0
          0 0 0 0.0020742738872800053 0.016273885605900925 0
          0 0 0 1.2267303056490275 -0.28159335125388896 0
          0.06355576865318613 -0.0535048409317626 0 0.0009396311873406423 0.0006650736598318312 0
          0 0 0 0.0003236722998960853 0.00041795130269306724 0
          0.256474409640133 -0.007536585090953547 0 0.5360812207457167 -0.2735641316010983 0
          0.0011973277153643571 0.01941419135574154 0 1.166035037849625 -0.13880765736506348 0
          0 0 0 0 0 0
          0.0009365228718262109 0.020515167151355474 0 0.00017860164175690583 0.00011366257563365192 0
          0.28828024038323347 -0.2031182548832897 0 0.016535758049010828 0.00047990744293086566 0
          0.051422405229271696 -0.03265943732332047 0 0.7695295235475187 -0.3163183936455725 0
          0 0 0 1.2926895782924535 -0.2533404067183908 0
          0.13765861652613395 -0.11201471689194578 0 -0.000003814389873165221 0.021496120668132345 0
          0 0 0 0.010000474795994745 0.014988496610760385 0
          0 0 0 0 0 0
          0.004237566637110363 0.023815576184359664 0 0.0000945735951960967 -0.00015500414535071343 0
          -0.0006392435068406287 0.020884880406164444 0 0.0036946675507756326 0.02838635103038683 0
          0.7976304359352194 -0.08983548851960199 0 0 0 0
          0 0 0 0.4778700351526424 -0.27287960079337137 0
          -0.0005535124506241797 0.02002869567628738 0 0.9387106470239074 -0.33269278995465335 0
          1.2504170960365273 -0.22113716661771673 0 0 0 0
          0.033454700904244024 -0.006746415314316529 0 0 0 0
          0.3044164781851039 -0.20618741593778206 0 -0.00032127568792951754 0.03286172624043758 0
          0 0 0 -0.0009010197125378188 0.018630857777280102 0
          0.012369168771609105 0.025501409418884152 0 0 0 0
          -0.0008679957470008911 0.033706792190062965 0 0.15691693728921252 -0.11047273086270896 0
          0 0 0 -0.001207287702517375 0.016900506430645473 0
          0 0 0 -0.0020536273343327227 0.030309556208604954 0
          0.6568513615302487 -0.3158929221589633 0 0 0 0
          -0.001480937283306914 0.01443982048305542 0 -0.0027514524885638727 0.02822890552984047 0
          1.0967751900681235 -0.15990426814370953 0 0.4657721802243164 -0.26542145783064 0
          0.002790067380151132 0.035843602584024005 0 0 0 0
          -0.0016742465840241247 0.011800477284460561 0 1.216674716425147 -0.29664787594192693 0
          0.049820786512061885 -0.013155127466763191 0 -0.00493440876254355 0.027106466666843274 0
          1.0438858495967778 -0.35382229261975773 0 0.29748671384537867 -0.1914960651990929 0
          0 0 0 -0.001449401209220253 0.009292304103550489 0
          -0.004573709439424483 0.0373308158703982 0 0.13391381822053136 -0.08564475412695632 0
          -0.005417666844182722 0.02292250251979518 0 0.027291877986300193 0.009884894254419676 0
          0.8177391577189862 -0.3469234780034363 0 0 0 0
          -0.0013815752005885969 0.006782555018116317 0 -0.004781422197573463 0.01748864207545374 0
          0.6250674210665189 -0.30339124711752635 0 0.7163360000501882 -0.08072831446483436 0
          0 0 0 -0.0013542349782421567 0.00445671542037866 0
          -0.010929179124676752 0.030097030511272313 0 -0.005145117699081757 0.014298582023694864 0
          0.0033247708817000588 0.029435435409809693 0 0.45166381677458917 -0.2472575133148155 0
          0.07207116300861095 -0.03847194703107989 0 0 0 0
          -0.001157311226014438 0.0023466388164190715 0 1.11311032478624 -0.3448671996344853 0
          -0.004817147131241746 0.010159008206042753 0 -0.011245166065984316 0.022916297355173573 0
          0.29538830664597276 -0.17933414121934935 0 1.1618553664523417 -0.2896281078142652 0
          0 0 0 0.9584705976479934 -0.3500042740514659 0
          -0.004373863066189873 0.006646955704148146 0 -0.00046818213853680565 0.000581798471966159 0
          0.04059304450386678 -0.0062861742407785 0 -0.010738676380622505 0.015619845662711438 0
          0.15080490765467314 -0.09763558253724358 0 -0.003180586532943136 0.003457566014760637 0
          0.6737155976181392 -0.30546236789102116 0 -0.013476082363082701 0.02323541539872387 0
          0 0 0 1.0253991968164573 -0.20281662664901348 0
          0.32372876171004783 -0.01752783158354054 0 -0.008235533939162017 0.007331233332575728 0
          -0.01936813868464974 0.020728307850828423 0 -0.017164607171702026 0.017019604712745863 0
          0.09726204961422057 -0.056702141440447815 0 0.42433982812628657 -0.234420884164681 0
          0 0 0 -0.003708115087361406 0.0017006388852581432 0
          1.0514178121618207 -0.31282683389727944 0 -0.0027059687751326608 -0.005149075542401007 0
          -0.016202776547591804 0.009234343893831758 0 -0.020907914388929937 0.008752692196078642 0
          0.8267668454482812 -0.31497840351265294 0 0.19578769353382977 -0.12975165515395054 0
          0.565324705946134 -0.07268404570443203 0 -0.023979108853795564 0.010690947397474454 0
          0 0 0 -0.009509957361188941 0.002656121334527637 0
          0.5637043197327821 -0.2735211048271366 0 1.102945682430497 -0.2607076594089425 0
          0.04100495400845916 -0.05029885040353305 0 0.34014247795247743 -0.20558649243520669 0
          -0.00891710825328055 -0.015614747003751489 0 -0.023359604353492817 -0.001149082732528522 0
          -0.016756909733396858 0.002262193615444914 0 0.9865608794688109 -0.30457995182266007 0
          0 0 0 -0.022808692565767116 0.003206781267661941 0
          0.7487454111917129 -0.32060574606442893 0 0.4821638076214208 -0.26914974369695793 0
          0 0 0 0.12355152615111681 -0.11547908299975707 0
          0.023953070684417713 -0.054130635251641586 0 0.9891793261440789 -0.09099945800295069 0
          -0.009085028652705733 -0.024399715231452783 0 -0.016572345127039905 0.0011172339862692325 0
          -0.018857627087544675 -0.006857047570655251 0 0.26880740195651553 -0.2082287978448108 0
          0 0 0 1.0042686194310702 -0.3724584872284417 0
          -0.013751666319767835 -0.000029608399926507907 0 0.09024002712943431 -0.125410486157192 0
          0.0194099247807793 -0.05498387562381299 0 0.5607320322973528 -0.4097948838721552 0
          -0.00255170037981637 -0.016316737897233893 0 0.23298416626565904 -0.2787680831547956 0
          0 0 0 0.023125874441702707 -0.035254372109780274 0
          0.0863018552590003 -0.10798337023235396 0 0 0 0
          <InformationKey name="L2_NORM_RANGE" location="vtkDataArray" length="2">
            <Value index="0">
              0
            </Value>
            <Value index="1">
              1.4149730799
            </Value>
          </InformationKey>
        </DataArray>
        <DataArray type="Float64" Name="Pressure" format="ascii" RangeMin="-8.29926795689044" RangeMax="36.93698309869157">
          36.276899770100655 36.43490951774869 36.76132736888254 36.21165306569528 36.02903423060866 36.802924862920996
          36.07435510914261 35.52233192315644 35.38265485399118 34.618629189455824 36.12538390469087 34.405706681365146
          36.93698309869157 35.333546852295065 34.416090396931445 33.61617416592032 33.46500020069709 34.52734678495695
          36.511539398577156 35.56762526732547 33.33061163089857 34.784586148178754 32.40211723148234 36.901946969651135
          33.5284595640048 32.23791268134026 32.356322273183565 33.954515138798925 31.476855710470677 34.95271588159596
          35.927161720654475 30.922175391398994 36.722215839807255 34.22343734513399 33.12241297363242 31.20438396099006
          30.39678253047342 31.618664103788557 33.57439696856514 35.20900271490872 29.548110223553927 35.61958102624964
          36.74273233175663 34.388750065734634 29.710668116315738 32.18859977824429 30.20271612261891 32.85689434519973
          33.89852833232461 30.827349667466912 34.50312858607906 27.596736730192273 27.923664041164965 28.569807852898663
          33.455776285975176 32.13339302244166 29.409265008818174 34.025274638793135 30.288451920351847 32.84219812999433
          34.73310952772475 27.583838619783236 31.240076650941266 34.11227089279505 25.915891582181708 33.80005128991321