<?xml version="1.0"?>
<VTKFile type="UnstructuredGrid" version="0.1" byte_order="LittleEndian" header_type="UInt32" compressor="vtkZLibDataCompressor">
  <UnstructuredGrid>
    <Piece NumberOfPoints="418" NumberOfCells="757">
      <PointData>
        <DataArray type="Float64" Name="nsi_BC" NumberOfComponents="3" format="ascii" RangeMin="0" RangeMax="1">
          0 0 0 0 0 0
          0 0 0 0 0 0
          0 0 0 1 0 0
          0 0 0 0 0 0
          0 0 0 0 0 0
          0 0 0 0 0 0
          0 0 0 0 0 0
          0 0 0 0 0 0
          0 0 0 0 0 0
          0 0 0 0 0 0
          0 0 0 0 0 0
          0 0 0 0 0 0
          0 0 0 0 0 0
          0 0 0 0 0 0
          0 0 0 0 0 0
          0 0 0 0 0 0
          0 0 0 0 0 0
          0 0 0 0 0 0
          0 0 0 0 0 0
          0 0 0 0 0 0
          0 0 0 0 0 0
          0 0 0 0 0 0
          0 0 0 0 0 0
          0 0 0 0 0 0
          0 0 0 0 0 0
          0 0 0 0 0 0
          0 0 0 0 0 0
          0 0 0 0 0 0
          0 0 0 0 0 0
          0 0 0 0 0 0
          0 0 0 0 0 0
          0 0 0 0 0 0
          0 0 0 0 0 0
          0 0 0 0 0 0
          0 0 0 0 0 0
          0 0 0 0 0 0
          0 0 0 0 0 0
          0 0 0 0 0 0
          0 0 0 0 0 0
          0 0 0 0 0 0
          0 0 0 0 0 0
          0 0 0 0 0 0
          0 0 0 0 0 0
          0 0 0 0 0 0
          0 0 0 0 0 0
          0 0 0 0 0 0
          0 0 0 0 0 0
          0 0 0 0 0 0
          0 0 0 0 0 0
          0 0 0 0 0 0
          0 0 0 0 0 0
          0 0 0 0 0 0
          0 0 0 0 0 0
          0 0 0 0 0 0
          0 0 0 0 0 0
          0 0 0 0 0 0
          0 0 0 0 0 0
          0 0 0 0 0 0
          0 0 0 0 0 0
          0 0 0 0 0 0
          0 0 0 0 0 0
          0 0 0 0 0 0
          0 0 0 0 0 0
          0 0 0 0 0 0
          0 0 0 0 0 0
          0 0 0 0 0 0
          0 0 0 0 0 0
          0 0 0 0 0 0
          0 0 0 0 0 0
          0 0 0 0 0 0
          0 0 0 0 0 0
          0 0 0 0 0 0
          0 0 0 0 0 0
          0 0 0 0 0 0
          0 0 0 0 0 0
          0 0 0 0 0 0
          0 0 0 0 0 0
          0 0 0 0 0 0
          0 0 0 0 0 0
          0 0 0 0 0 0
          0 0 0 0 0 0
          0 0 0 0 0 0
          0 0 0 0 0 0
          0 0 0 0 0 0
          0 0 0 0 0 0
          0 0 0 0 0 0
          0 0 0 0 0 0
          0 0 0 0 0 0
          0 0 0 0 0 0
          0 0 0 0 0 0
          0 0 0 0 0 0
          0 0 0 0 0 0
          0 0 0 0 0 0
          0 0 0 0 0 0
          0 0 0 0 0 0
          0 0 0 0 0 0
          0 0 0 0 0 0
          0 0 0 0 0 0
          0 0 0 0 0 0
          0 0 0 0 0 0
          0 0 0 0 0 0
          0 0 0 0 0 0
          0 0 0 0 0 0
          0 0 0 0 0 0
          0 0 0 0 0 0
          0 0 0 0 0 0
          0 0 0 0 0 0
          0 0 0 0 0 0
          0 0 0 0 0 0
          0 0 0 0 0 0
          0 0 0 0 0 0
          0 0 0 0 0 0
          0 0 0 0 0 0
          0 0 0 0 0 0
          0 0 0 0 0 0
          0 0 0 0 0 0
          0 0 0 0 0 0
          0 0 0 0 0 0
          0 0 0 0 0 0
          0 0 0 0 0 0
          0 0 0 0 0 0
          0 0 0 0 0 0
          0 0 0 0 0 0
          0 0 0 0 0 0
          0 0 0 0 0 0
          0 0 0 0 0 0
          0 0 0 0 0 0
          0 0 0 0 0 0
          0 0 0 0 0 0
          0 0 0 0 0 0
          0 0 0 0 0 0
          0 0 0 0 0 0
          0 0 0 0 0 0
          0 0 0 0 0 0
          0 0 0 0 0 0
          0 0 0 0 0 0
          0 0 0 0 0 0
          0 0 0 0 0 0
          0 0 0 0 0 0
          0 0 0 0 0 0
          0 0 0 0 0 0
          0 0 0 0 0 0
          0 0 0 0 0 0
          0 0 0 0 0 0
          0 0 0 0 0 0
          0 0 0 0 0 0
          0 0 0 0 0 0
          0 0 0 0 0 0
          0 0 0 0 0 0
          0 0 0 0 0 0
          0 0 0 0 0 0
          0 0 0 0 0 0
          0 0 0 0 0 0
          0 0 0 0 0 0
          0 0 0 0 0 0
          0 0 0 0 0 0
          0 0 0 0 0 0
          0 0 0 0 0 0
          0 0 0 0 0 0
          0 0 0 0 0 0
          0 0 0 0 0 0
          0 0 0 0 0 0
          0 0 0 0 0 0
          0 0 0 0 0 0
          0 0 0 0 0 0
          0 0 0 0 0 0
          0 0 0 0 0 0
          0 0 0 0 0 0
          0 0 0 0 0 0
          0 0 0 0 0 0
          0 0 0 0 0 0
          0 0 0 0 0 0
          0 0 0 0 0 0
          0 0 0 0 0 0
          0 0 0 0 0 0
          0 0 0 0 0 0
          0 0 0 0 0 0
          0 0 0 0 0 0
          0 0 0 0 0 0
          0 0 0 0 0 0
          0 0 0 0 0 0
          0 0 0 0 0 0
          0 0 0 0 0 0
          0 0 0 0 0 0
          0 0 0 0 0 0
          0 0 0 0 0 0
          0 0 0 0 0 0
          0 0 0 0 0 0
          0 0 0 0 0 0
          0 0 0 0 0 0
          0 0 0 0 0 0
          0 0 0 0 0 0
          0 0 0 0 0 0
          0 0 0 0 0 0
          0 0 0 0 0 0
          0 0 0 0 0 0
          0 0 0 0 0 0
          0 0 0 0 0 0
          0 0 0 0 0 0
          0 0 0 0 0 0
          0 0 0 0 0 0
          0 0 0 0 0 0
          0 0 0 0 0 0
          0 0 0 0 0 0
          0 0 0 0 0 0
          0 0 0 0 0 0
          0 0 0 0 0 0
          0 0 0 0 0 0
          0 0 0 0 0 0
          <InformationKey name="L2_NORM_RANGE" location="vtkDataArray" length="2">
            <Value index="0">
              0
            </Value>
            <Value index="1">
              1
            </Value>
          </InformationKey>
        </DataArray>
        <DataArray type="Float64" Name="nsi_FIXNO" NumberOfComponents="3" format="ascii" RangeMin="1.4142135623730951" RangeMax="1.4142135623730951">
          1 1 0 -1 -1 0
          -1 -1 0 -1 -1 0
          1 1 0 1 1 0
          -1 -1 0 -1 -1 0
          -1 -1 0 -1 -1 0
          -1 -1 0 -1 -1 0
          -1 -1 0 -1 -1 0
          -1 -1 0 1 1 0
          -1 -1 0 -1 -1 0
          -1 -1 0 -1 -1 0
          -1 -1 0 -1 -1 0
          -1 -1 0 -1 -1 0
          -1 -1 0 -1 -1 0
          -1 -1 0 -1 -1 0
          -1 -1 0 -1 -1 0
          -1 -1 0 -1 -1 0
          1 1 0 -1 -1 0
          -1 -1 0 -1 -1 0
          1 1 0 -1 -1 0
          -1 -1 0 -1 -1 0
          -1 -1 0 -1 -1 0
          1 1 0 -1 -1 0
          -1 -1 0 -1 -1 0
          -1 -1 0 -1 -1 0
          -1 -1 0 -1 -1 0
          -1 -1 0 -1 -1 0
          -1 -1 0 -1 -1 0
          -1 -1 0 -1 -1 0
          -1 -1 0 -1 -1 0
          -1 -1 0 -1 -1 0
          1 1 0 -1 -1 0
          -1 -1 0 -1 -1 0
          -1 -1 0 -1 -1 0
          -1 -1 0 -1 -1 0
          -1 -1 0 1 1 0
          -1 -1 0 -1 -1 0
          -1 -1 0 -1 -1 0
          -1 -1 0 -1 -1 0
          -1 -1 0 -1 -1 0
          -1 -1 0 -1 -1 0
          -1 -1 0 -1 -1 0
          -1 -1 0 -1 -1 0
          -1 -1 0 -1 -1 0
          -1 -1 0 -1 -1 0
          1 1 0 -1 -1 0
          -1 -1 0 -1 -1 0
          -1 -1 0 -1 -1 0
          -1 -1 0 -1 -1 0
          -1 -1 0 -1 -1 0
          -1 -1 0 -1 -1 0
          -1 -1 0 -1 -1 0
          -1 -1 0 -1 -1 0
          -1 -1 0 -1 -1 0
          -1 -1 0 -1 -1 0
          -1 -1 0 -1 -1 0
          -1 -1 0 -1 -1 0
          -1 -1 0 -1 -1 0
          -1 -1 0 -1 -1 0
          -1 -1 0 -1 -1 0
          -1 -1 0 -1 -1 0
          -1 -1 0 1 1 0
          -1 -1 0 -1 -1 0
          -1 -1 0 -1 -1 0
          -1 -1 0 -1 -1 0
          -1 -1 0 -1 -1 0
          -1 -1 0 -1 -1 0
          -1 -1 0 -1 -1 0
          -1 -1 0 -1 -1 0
          -1 -1 0 -1 -1 0
          -1 -1 0 -1 -1 0
          -1 -1 0 -1 -1 0
          -1 -1 0 -1 -1 0
          -1 -1 0 -1 -1 0
          -1 -1 0 -1 -1 0
          1 1 0 -1 -1 0
          -1 -1 0 -1 -1 0
          -1 -1 0 -1 -1 0
          -1 -1 0 -1 -1 0
          -1 -1 0 -1 -1 0
          -1 -1 0 1 1 0
          -1 -1 0 -1 -1 0
          1 1 0 -1 -1 0
          1 1 0 -1 -1 0
          -1 -1 0 -1 -1 0
          -1 -1 0 1 1 0
          -1 -1 0 -1 -1 0
          -1 -1 0 -1 -1 0
          1 1 0 -1 -1 0
          1 1 0 -1 -1 0
          -1 -1 0 -1 -1 0
          -1 -1 0 -1 -1 0
          -1 -1 0 -1 -1 0
          1 1 0 -1 -1 0
          -1 -1 0 1 1 0
          1 1 0 -1 -1 0
          -1 -1 0 -1 -1 0
          -1 -1 0 -1 -1 0
          -1 -1 0 1 1 0
          -1 -1 0 -1 -1 0
          -1 -1 0 -1 -1 0
          -1 -1 0 -1 -1 0
          1 1 0 1 1 0
          -1 -1 0 1 1 0
          -1 -1 0 -1 -1 0
          -1 -1 0 -1 -1 0
          1 1 0 -1 -1 0
          -1 -1 0 -1 -1 0
          -1 -1 0 -1 -1 0
          1 1 0 -1 -1 0
          -1 -1 0 -1 -1 0
          1 1 0 -1 -1 0
          -1 -1 0 1 1 0
          1 1 0 -1 -1 0
          -1 -1 0 -1 -1 0
          -1 -1 0 -1 -1 0
          -1 -1 0 -1 -1 0
          -1 -1 0 1 1 0
          1 1 0 -1 -1 0
          1 1 0 1 1 0
          -1 -1 0 -1 -1 0
          1 1 0 -1 -1 0
          -1 -1 0 -1 -1 0
          -1 -1 0 1 1 0
          -1 -1 0 -1 -1 0
          -1 -1 0 1 1 0
          -1 -1 0 1 1 0
          -1 -1 0 -1 -1 0
          -1 -1 0 -1 -1 0
          -1 -1 0 -1 -1 0
          -1 -1 0 1 1 0
          1 1 0 -1 -1 0
          1 1 0 -1 -1 0
          1 1 0 -1 -1 0
          -1 -1 0 -1 -1 0
          1 1 0 -1 -1 0
          -1 -1 0 -1 -1 0
          -1 -1 0 -1 -1 0
          1 1 0 1 1 0
          -1 -1 0 -1 -1 0
          -1 -1 0 -1 -1 0
          -1 -1 0 -1 -1 0
          1 1 0 -1 -1 0
          -1 -1 0 -1 -1 0
          1 1 0 -1 -1 0
          1 1 0 1 1 0
          -1 -1 0 -1 -1 0
          -1 -1 0 -1 -1 0
          -1 -1 0 1 1 0
          1 1 0 -1 -1 0
          -1 -1 0 -1 -1 0
          -1 -1 0 1 1 0
          -1 -1 0 1 1 0
          -1 -1 0 -1 -1 0
          1 1 0 -1 -1 0
          -1 -1 0 1 1 0
          -1 -1 0 -1 -1 0
          1 1 0 -1 -1 0
          1 1 0 -1 -1 0
          -1 -1 0 1 1 0
          -1 -1 0 -1 -1 0
          -1 -1 0 -1 -1 0
          -1 -1 0 1 1 0
          -1 -1 0 -1 -1 0
          -1 -1 0 -1 -1 0
          -1 -1 0 -1 -1 0
          1 1 0 -1 -1 0
          -1 -1 0 -1 -1 0
          -1 -1 0 -1 -1 0
          -1 -1 0 1 1 0
          -1 -1 0 -1 -1 0
          -1 -1 0 -1 -1 0
          1 1 0 -1 -1 0
          -1 -1 0 -1 -1 0
          -1 -1 0 -1 -1 0
          -1 -1 0 1 1 0
          -1 -1 0 -1 -1 0
          -1 -1 0 -1 -1 0
          -1 -1 0 -1 -1 0
          1 1 0 -1 -1 0
          -1 -1 0 -1 -1 0
          -1 -1 0 -1 -1 0
          -1 -1 0 -1 -1 0
          -1 -1 0 -1 -1 0
          1 1 0 -1 -1 0
          -1 -1 0 -1 -1 0
          -1 -1 0 -1 -1 0
          -1 -1 0 -1 -1 0
          1 1 0 -1 -1 0
          -1 -1 0 -1 -1 0
          -1 -1 0 -1 -1 0
          -1 -1 0 -1 -1 0
          -1 -1 0 -1 -1 0
          1 1 0 -1 -1 0
          -1 -1 0 -1 -1 0
          -1 -1 0 -1 -1 0
          -1 -1 0 -1 -1 0
          -1 -1 0 -1 -1 0
          1 1 0 -1 -1 0
          -1 -1 0 -1 -1 0
          1 1 0 -1 -1 0
          -1 -1 0 -1 -1 0
          -1 -1 0 -1 -1 0
          -1 -1 0 -1 -1 0
          1 1 0 -1 -1 0
          -1 -1 0 -1 -1 0
          -1 -1 0 -1 -1 0
          -1 -1 0 -1 -1 0
          1 1 0 -1 -1 0
          -1 -1 0 1 1 0
          <InformationKey name="L2_NORM_RANGE" location="vtkDataArray" length="2">
            <Value index="0">
              1.4142135624
            </Value>
            <Value index="1">
              1.4142135624
            </Value>
          </InformationKey>
        </DataArray>
        <DataArray type="Float64" Name="Velocity" NumberOfComponents="3" format="ascii" RangeMin="0" RangeMax="1.4107017500066215">
          0 0 0 0.3261409869817188 0.029010263198992015 0
          0.7289442476611029 0.11923693519865214 0 0.5349576748834424 0.05742481706658746 0
          0 0 0 1 0 0
          0.6959760234124164 0.04401517577010761 0 0.40112177969823715 0.03450535100493117 0
          0.6411996266926403 0.05230384646592752 0 0.35221673052229885 0.005896079221044821 0
          0.6436341634361662 0.016911484129154896 0 0.5849129754103655 0.0422018576382349 0
          0.6991314368771447 -0.10255012249997289 0 0.6612822970506959 0.03329058196340599 0
          0.652183366510803 0.05247651065809315 0 0 0 0
          0.5559027083605895 0.023690035950132412 0 0.6591296830919195 0.05750317711539267 0
          0.6122779382541427 -0.02474033412703017 0 0.6234779890667379 0.02477503245697451 0
          0.6586061029274042 0.056198759039933203 0 0.6313005068618468 0.05116044398313721 0
          0.46863550991596703 0.03658424107088259 0 0.3475982575811099 -0.031514892546434733 0
          0.6712521112258456 0.09088954118367791 0 0.6673393197823607 0.07328505489512648 0
          0.7105224277390096 0.10886420244056871 0 0.6385274055167075 0.08841010130450075 0
          0.3561644495994156 0.010422879519477391 0 0.5658122657225567 0.03383802265367096 0
          0.4688430711624351 -0.01591747160983255 0 0.6386629220194239 0.08520257180813648 0
          0 0 0 0.5863733166860587 0.07055600198382549 0
          0.6531251419098082 0.14338104045987418 0 0.7480517025956575 0.14111540495497127 0
          0 0 0 0.7283743336807379 0.17557740416965006 0
          0.5950591478334466 0.12713757729022399 0 0.3665027474095482 0.004774125471915123 0
          0.606640363430727 0.07925014883263759 0 0.22691854519503177 0.00477205542660601 0
          0 0 0 0.4906154836006753 0.04269638192401311 0
          0.7730092727898811 0.16800266363123947 0 0.6815025957687549 0.2064876592737154 0
          0.7899378163358568 0.22430635351124453 0 0.6092345667603453 0.1965058053413236 0
          0.5168066703112517 0.0901341996821065 0 0.7468623031858588 0.26103790592421366 0
          0.3581604773591291 0.022327343580209276 0 0.48985807407602266 0.020838730719237766 0
          0.8145771923871734 0.13727748701568782 0 0.8539481406240054 0.2518835278691753 0
          0.527395283459073 0.163011160101509 0 0.6237206123567078 0.2786173318833327 0
          0.8156734114642595 0.31717812104523185 0 0.399404342512169 0.04745807579448805 0
          0.736183299533245 0.35058043705989694 0 0.5446792882966445 0.25045335778849037 0
          0 0 0 0.9068916115472078 0.3380702047185374 0
          0.6473140909748641 0.36470120017834784 0 0.2255349050956494 0.011084158164090724 0
          0.981280441070689 0.21253645479787125 0 0.40967134830788743 0.09644261195465853 0
          0.4525595704231446 0.19660123734109403 0 0.8199465275706261 0.40595706950041494 0
          0.546022510303706 0.33520568847819615 0 0 0 0
          0.7671364798871256 0.08913638118352539 0 0.45052993941267955 0.2788959383210451 0
          0.6915705152914798 0.45973502039123554 0 1.0255237937315438 0.3344763628688684 0
          0.9230053071234087 0.44583842875733615 0 0.3604862132978173 0.1372262363674587 0
          0.26775924819412045 0.037444393484784476 0 0.5302109267209547 0.4263126843642075 0
          0.8075651009447674 0.508910446537773 0 1.10357664978682 0.26214624272271664 0
          0.44237731829478305 0.3636814011097259 0 0.6883476523720669 0.5225026376427049 0
          0.3562270457096994 0.2091188654448391 0 0.2951067954374268 0.07243357331943079 0
          1.0357501339237698 0.1741295656822405 0 0.575929681380617 0.5159791843382966 0
          0.9308257687338343 0.5206947311671714 0 0.3425479152692072 0.28865450470298015 0
          0 0 0 0.8435592718426722 0.07479297952662736 0
          1.168284428310683 0.363084830304586 0 0.763138702883979 0.5778496236638525 0
          0.4190152452360123 0.455683899397155 0 0.6183389574270352 0.5791541373673061 0
          1.211911557623129 0.2542868115114197 0 0.27070068771318345 0.1403175009781271 0
          0.3093407322113891 0.3475394841271609 0 0.164450951836707 0.019278333646270088 0
          0.26534277242127635 0.21662079430605957 0 0.4798003508096454 0.008296387446157863 0
          0.9199985310592678 0.5746887212923397 0 0.40675467952575867 0.5193129415684631 0
          1.1332073374418876 0.4658244848531221 0 0.2529072319744057 0.2894307557999262 0
          0.6844683728998673 0.6137425915190685 0 0.2735107062415968 0.3948642063375862 0
          1.1629494130259812 0.1239246797124274 0 1.2801584891926758 0.3123286445830153 0
          0.18774765968774879 0.05387852367307589 0 0.5106459151111976 0.5940897069698933 0
          0.8039956499399018 0.5916427197244912 0 0.20448187154994843 0.318377182419331 0
          0.3170003345209082 0.49831421502741063 0 1.0819824809687315 0.4908208964904944 0
          0.9167286475159396 0.020535423640824217 0 0.17820910208832297 0.09018289030655514 0
          0.5539871727600538 0.587997337093082 0 0.21286983162034626 0.39730671223534997 0
          1.2686872410645802 0.3487962026809556 0 1.3357856731316478 0.17497508485176977 0
          0.16877040502479576 0.1597208174425467 0 0 0 0
          0.1634276159347309 0.24033641693935864 0 0.321988759564928 0.5171037602904882 0
          1.3472525528497574 0.2427617328112186 0 0.16727044800774366 0.33004903965773114 0
          0.08450248596002351 0.010673675297783536 0 0.6609867407795846 0.5276343891254901 0
          0.15210476408022486 0.3681296083363846 0 0.9982978362709817 0.4314714756928166 0
          0.36447868543283024 0.4807660846349239 0 0.11456399149119947 0.24587708556951743 0
          1.1917521750283024 0.33734135224848383 0 0.11427143754369276 0.040991270863876175 0
          0.12091745849066737 0.17084166172566911 0 1.2377617571228439 0.043426698133709946 0
          1.320432919412753 0.24308954176208694 0 0.16085350551237304 0.369959206428963 0
          0.08509117270282752 0.23458015368448948 0 1.3978806481134787 0.13324659293667002 0
          0.43401654087451264 0.3712380652404131 0 0.10676301815927192 0.1297070202192797 0
          0.07253751683767645 0.2670108020462131 0 0.1036783273284182 0.05985376733079409 0
          0.7775286009429001 0.3146473255675085 0 0.08797105201365578 0.17230545298999864 0
          0.06739027702306469 0.24202836652260223 0 0.070401518124941 0.23693262677831542 0
          0 0 0 0.08449113375727649 0.22986766912513307 0
          1.0126274652610001 0.2535627429044981 0 1.3850295741490677 0.05918458185527359 0
          1.212471116613923 0.20184654100809993 0 0.0406468215544491 0.16875617233912732 0
          0.08278158705852375 0.08251555375741121 0 0.05037530978622606 0.1587473682665687 0
          0.9163464188667853 0.0005947548928004444 0 0.03216283770343475 0.16712153988836861 0
          0.021321041741672465 0.1359174356187163 0 0 0 0
          0.06706844900940108 0.12144865046151664 0 0.407357896327895 0.07086902949359536 0
          0 0 0 0.720943991795625 0.11123046910806098 0
          0 0 0 0.01743311923787587 0.10682724214028325 0
          0.030103045365977778 0.1359378528112953 0 0.06092569664560856 0.019294216630894707 0
          1.3437620460119932 0.047156799858546844 0 0 0 0
          0.011073131191459112 0.08319928583093375 0 0.05671576483731668 0.08392921970167005 0
          0.9508815013938151 0.06689872427591187 0 0.03780539704903783 0.10736159674385512 0
          0 0 0 0.02000118644102774 0.10144764240976153 0
          0 0 0 1.4106289217266919 -0.014334317560835632 0
          0.36078194753570897 0.027196062735286918 0 0.0067110488832522654 0.06988464822416914 0
          1.155635675405956 0.010168096356224317 0 0.019774028549986496 0.09261258943337174 0
          0.6917520474972644 0.03479508051302902 0 0.05153432176321308 0.03348551829964984 0
          0 0 0 0.007216937545599731 0.05711566917023748 0
          1.3844331525677203 -0.047654140007269426 0 0 0 0
          0 0 0 0.015915659821413557 0.06804797821065409 0
          0.039364451631670294 0.041848062029522626 0 0.0052607092586442975 0.047778937580327134 0
          0.025595469221315868 0.06392073634982287 0 0.3441151084609969 -0.002440631717533263 0
          0.015290862002698264 0.06086015175479546 0 0 0 0
          1.2292663818896405 -0.05826458986103463 0 0.6819398089257467 -0.03327343113415693 0
          0.9724554455351372 -0.07689918146194419 0 0.004969575104655404 0.038875221943897705 0
          1.1816497283811571 -0.1271718398102818 0 0.029187946172260885 0.009120080549064356 0
          0 0 0 0 0 0
          0.022205778397756646 0.04013605575632037 0 0 0 0
          1.3243576531787966 -0.1496023359892224 0 0.0110357968684122 0.04234124758697425 0
          0.004421900349316379 0.031245301032978783 0 0.3545008160241455 -0.03223265738263977 0
          0 0 0 1.379165401780564 -0.1550305435528513 0
          0.0108276787251665 0.034287423911428735 0 0.704358111589355 -0.1486221068914766 0
          0.021408406765698877 0.016807019828165376 0 0.0037168999214851474 0.024209255798419996 0
          0 0 0 0.9608932861894308 -0.20887163551186533 0
          0.007859154299285132 0.027781856724856356 0 1.3423204354406904 -0.14512377529031534 0
          0 0 0 0.0035508398213776743 0.01866282916988724 0
          1.1543946897265134 -0.24308384373720424 0 0 0 0
          0 0 0 0.41407969951627516 -0.20241714086636664 0
          0.011511952721356838 0.016128851956794792 0 0.007793879916088396 0.019449808682321205 0
          0.922107448519064 -0.054124965597325575 0 0.002344568825817815 0.013494991658878103 0
          1.2822627533867295 -0.24978245086337034 0 1.1777792094111517 -0.10699806068736019 0
          0.01160386302188767 0.0038724625279696816 0 0 0 0
          0 0 0 0.70316353666488 -0.28833087957721903 0
          0 0 0 0 0 0
          0.001589358440793103 0.009944045302847997 0 0.05073835881991545 -0.10737647974908075 0
          0 0 0 0.005055396945566044 0.011742943357170329 0
          1.3322410015813346 -0.23992130399168063 0 0.9297516629573617 -0.33240596568522746 0
          0.007482182048359911 0.005582385214837626 0 0 0 0
          0.02811325517459234 -0.06308557508018901 0 0.001805964744832637 0.006538858612332037 0
          0.0044768665494431875 0.007615219958190033 0 0 0 0
          0.016126994023715514 -0.035635310094348845 0 0 0 0
          0.330307136944856 -0.27505713208829946 0 1.2800601853017397 -0.1981830544496056 0
          0.0026173910501760293 0.004678890299787318 0 1.071317275598297 -0.36821793194401586 0
          0.0068975944974878625 -0.016877011561371735 0 0.004046744957367825 0.0012772723799729646 0
          0.001530412074752802 0.004127094242371476 0 0 0 0
          0 0 0 0.10932982863032221 -0.17017408416217358 0
          0 0 0 0.0024415086503418106 -0.010485344955194998 0
          0 0 0 1.2112523899794585 -0.3439777173609263 0
          0.06921566433846674 -0.11816061332428232 0 0.0025116320255560523 0.002113052744837682 0
          0 0 0 0.0008446736356444517 0.00207101627136159 0
          0.24797668724812486 -0.007447151664389583 0 0.5647969010177333 -0.37051089456846903 0
          0.0018097045167960694 -0.006317742016243525 0 1.1218577501798987 -0.15053266085512762 0
          0 0 0 0 0 0
          0.001881107730529878 -0.0038988861091774304 0 0.0006088835902036979 0.0009940984716947155 0
          0.307182474081677 -0.30312197601637353 0 0.01879078327809663 -0.058597252539709044 0
          0.056367404807557746 -0.10691310139002609 0 0.7915231098674474 -0.41797264128993006 0
          0 0 0 1.2488465204984351 -0.29333763002872715 0
          0.14742401560184434 -0.2068407383801616 0 0.0010713355972161271 -0.0012830632668021573 0
          0 0 0 0.012400700857443686 -0.041378550417154214 0
          0 0 0 0 0 0
          0.007053346695663904 -0.023716478710704703 0 0.00032703861607820455 -0.00003862362763982708 0
          0.0004886509786566811 0.00018683003162672058 0 0.0070613667078731675 -0.017331814965677067 0
          0.76867867674205 -0.09125850949607839 0 0 0 0
          0 0 0 0.49851900319302733 -0.3926275145761059 0
          0.0009023807953377029 0.0017377738319734816 0 0.9364850517464768 -0.4250053346722632 0
          1.1895057150991946 -0.2390536672134437 0 0 0 0
          0.03979463323676862 -0.0951643333866858 0 0 0 0
          0.3202515337234856 -0.32981230858391003 0 0.004294566950439872 -0.013149344463978712 0
          0 0 0 0.000770733710762068 0.0029253781546132083 0
          0.019818089732739658 -0.04827588473379228 0 0 0 0
          0.00439494948189555 -0.007395400717155678 0 0.16874969620300181 -0.23006796736781626 0
          0 0 0 0.0002419731515262414 0.0037190300687580608 0
          0 0 0 0.0031783775124088194 -0.002243912642285706 0
          0.6631030251188919 -0.43393917450719177 0 0 0 0
          -0.00007980983433580976 0.0038870586648392653 0 0.0022633708707323636 0.00046342009206932426 0
          1.0449185648613517 -0.16118603306399065 0 0.4775980776709381 -0.3956686120557479 0
          0.01567890046863994 -0.03149661869047585 0 0 0 0
          0.00019710366712713705 0.004223911487108072 0 1.1484662782205726 -0.3245428320435393 0
          0.06474413498271996 -0.11904035692885041 0 0.0007456086457995491 0.0016903809827837363 0
          1.000024085585406 -0.41939062017175127 0 0.31096154622530153 -0.3262628072638593 0
          0 0 0 -0.000007669877985688381 0.004448770905992915 0
          0.007963677129582996 -0.013015667765175052 0 0.1525631985483585 -0.21497873900197356 0
          0.0011114057108804806 0.003560157066199108 0 0.04871706670882486 -0.0864505266033434 0
          0.7950442861658025 -0.4414331659509664 0 0 0 0
          -0.0004159419481177722 0.0040246606123736225 0 0.0008871280860645229 0.0048474304404230156 0
          0.6176771204753359 -0.41528507743649223 0 0.6864396557739254 -0.07607631016083893 0
          0 0 0 -0.0005433347673959553 0.003223424798595607 0
          0.00501654895837496 -0.003566901641619493 0 -0.0005812834328877831 0.0053553762310278126 0
          0.03010813855340399 -0.04842191388646891 0 0.4571571561780763 -0.37239865798449445 0
          0.10225295857816279 -0.15384864754239735 0 0 0 0
          -0.0007849130042100255 0.0020747687422975943 0 1.035629291642041 -0.37051638459914776 0
          -0.0013146170129129876 0.004973199953603908 0 0.002931300900681339 0.0012219564821993386 0
          0.31367606088138816 -0.3082755924847667 0 1.0769413395529792 -0.28931579497040766 0
          0 0 0 0.8981823470154676 -0.4010493470724258 0
          -0.0020109888188643036 0.003721474548502701 0 -0.00044077594577328366 0.0006882278398184106 0
          0.080777218108182 -0.1038849417798924 0 -0.000720306824067295 0.0031347881498518916 0
          0.18617188510903773 -0.21756144702202473 0 -0.0020972908347287934 0.0022917213352996787 0
          0.6492109160824708 -0.39199498620417805 0 0.026159550869833383 -0.03797557611455561 0
          0 0 0 0.9682957675616315 -0.19283016346772028 0
          0.31208287938958257 -0.017490788882085603 0 -0.0034833259107207633 0.002808005421491525 0
          0.013396786270397665 -0.018194027338185266 0 0.00564667499625949 -0.00664159007000725 0
          0.14692050312295718 -0.16216627895539998 0 0.43230445360028175 -0.3300761824642818 0
          0 0 0 -0.0022437050067188875 0.0009149962676429985 0
          0.958840267437847 -0.3151485707592924 0 0.05969807392427886 -0.07875445278482858 0
          -0.0022787695386460366 -0.0010118085632205853 0 0.03289043148130637 -0.04035625621664841 0
          0.7642830118112816 -0.3423094072803474 0 0.2460694779982448 -0.22265334086907543 0
          0.5416701964571549 -0.07304598245947824 0 0.016632535998988673 -0.01860196989277058 0
          0 0 0 -0.003671748247971536 0.00012525516046779935 0
          0.5471072127300519 -0.31392056697089327 0 1.0030405820677581 -0.23390381535963203 0
          0.12312301855066554 -0.11604329435237919 0 0.3744228880731195 -0.2609313980083779 0
          0.0700333572229666 -0.06574895920972075 0 0.03885933637225372 -0.032347136339425195 0
          -0.0019056204369608358 -0.001407340921462166 0 0.8861093637840542 -0.28247752135059306 0
          0 0 0 0.015707834042025345 -0.012799857195491269 0
          0.690883736235591 -0.3009880580967536 0 0.4868222307387025 -0.2702880216305334 0
          0 0 0 0.21580318674539664 -0.15159269942191264 0
          0.12422584617204768 -0.08859202013709741 0 0.9464179316956685 -0.08818245193952766 0
          0.07678784100012254 -0.048099250605365934 0 0.004694263210917765 -0.004836219734946538 0
          0.03717560303180491 -0.02019799597301525 0 0.33923367915984476 -0.20857009522913103 0
          0 0 0 0.8934125809775795 -0.3258993706797886 0
          0.014564612412350736 -0.002301139269538044 0 0.20135711712821228 -0.1297921511120862 0
          0.12160956609271834 -0.062448308301563026 0 0.5505869560420131 -0.3404546008223812 0
          0.04483538689594876 -0.016516760907351782 0 0.3239962546201488 -0.23503428188124598 0
          0 0 0 0.09952356800047892 -0.034496216859481045 0
          0.1879619414303886 -0.10678323080960989 0 0 0 0
          <InformationKey name="L2_NORM_RANGE" location="vtkDataArray" length="2">
            <Value index="0">
              0
            </Value>
            <Value index="1">
              1.41070175
            </Value>
          </InformationKey>
        </DataArray>
        <DataArray type="Float64" Name="Pressure" format="ascii" RangeMin="-9.25910702735298" RangeMax="37.17698916538474">
          36.64952813451315 36.87107686452349 36.833292286223745 36.63552383675017 36.66481586411014 36.54197323523924
          36.393670262915066 36.136017890994 35.84166627802398 35.208073938272605 36.378764731027054 34.94101594723526
          36.90668693364706 35.681364011997005 34.881628418883615 34.215442990299564 34.107838291564384 34.962631659996106
          36.7144111976351 35.92384224452982 33.86858634786777 35.18884267401232 32.92351387714729 37.14850383232322
          33.98430629623376 32.732238894720936 32.819263927627766 34.37081082918668 31.88563642728755 35.37436459090337
          36.36520337181393 31.305764390405077 36.902464120898024 34.64206576381155 33.518335231842535 31.62743822796747
          30.708158510851053 32.01289560404226 33.958900043053376 35.602972269140736 29.855305585516454 36.062665599138874
          37.17698916538474 34.85836000724749 30.06745576302534 32.57349377699925 30.604975658596555 33.22134862826607
          34.32997490748695 31.17768446260033 35.03854472593104 27.76569357711538 28.17868548815033 28.947253431884842
          33.849825403243884 32.49198192671313 29.77700039163435 34.54448832005063 30.600818184919593 33.202758019729664
          35.16933228566513 27.96248185928719 31.578433938582553 34.65921344023665 26.19674896422616 34.32090602256123