<?xml version="1.0"?>
<VTKFile type="UnstructuredGrid" version="0.1" byte_order="LittleEndian" header_type="UInt32" compressor="vtkZLibDataCompressor">
  <UnstructuredGrid>
    <Piece NumberOfPoints="418" NumberOfCells="757">
      <PointData>
        <DataArray type="Float64" Name="nsi_BC" NumberOfComponents="3" format="ascii" RangeMin="0" RangeMax="1">
          0 0 0 0 0 0
          0 0 0 0 0 0
          0 0 0 1 0 0
          0 0 0 0 0 0
          0 0 0 0 0 0
          0 0 0 0 0 0
          0 0 0 0 0 0
          0 0 0 0 0 0
          0 0 0 0 0 0
          0 0 0 0 0 0
          0 0 0 0 0 0
          0 0 0 0 0 0
          0 0 0 0 0 0
          0 0 0 0 0 0
          0 0 0 0 0 0
          0 0 0 0 0 0
          0 0 0 0 0 0
          0 0 0 0 0 0
          0 0 0 0 0 0
          0 0 0 0 0 0
          0 0 0 0 0 0
          0 0 0 0 0 0
          0 0 0 0 0 0
          0 0 0 0 0 0
          0 0 0 0 0 0
          0 0 0 0 0 0
          0 0 0 0 0 0
          0 0 0 0 0 0
          0 0 0 0 0 0
          0 0 0 0 0 0
          0 0 0 0 0 0
          0 0 0 0 0 0
          0 0 0 0 0 0
          0 0 0 0 0 0
          0 0 0 0 0 0
          0 0 0 0 0 0
          0 0 0 0 0 0
          0 0 0 0 0 0
          0 0 0 0 0 0
          0 0 0 0 0 0
          0 0 0 0 0 0
          0 0 0 0 0 0
          0 0 0 0 0 0
          0 0 0 0 0 0
          0 0 0 0 0 0
          0 0 0 0 0 0
          0 0 0 0 0 0
          0 0 0 0 0 0
          0 0 0 0 0 0
          0 0 0 0 0 0
          0 0 0 0 0 0
          0 0 0 0 0 0
          0 0 0 0 0 0
          0 0 0 0 0 0
          0 0 0 0 0 0
          0 0 0 0 0 0
          0 0 0 0 0 0
          0 0 0 0 0 0
          0 0 0 0 0 0
          0 0 0 0 0 0
          0 0 0 0 0 0
          0 0 0 0 0 0
          0 0 0 0 0 0
          0 0 0 0 0 0
          0 0 0 0 0 0
          0 0 0 0 0 0
          0 0 0 0 0 0
          0 0 0 0 0 0
          0 0 0 0 0 0
          0 0 0 0 0 0
          0 0 0 0 0 0
          0 0 0 0 0 0
          0 0 0 0 0 0
          0 0 0 0 0 0
          0 0 0 0 0 0
          0 0 0 0 0 0
          0 0 0 0 0 0
          0 0 0 0 0 0
          0 0 0 0 0 0
          0 0 0 0 0 0
          0 0 0 0 0 0
          0 0 0 0 0 0
          0 0 0 0 0 0
          0 0 0 0 0 0
          0 0 0 0 0 0
          0 0 0 0 0 0
          0 0 0 0 0 0
          0 0 0 0 0 0
          0 0 0 0 0 0
          0 0 0 0 0 0
          0 0 0 0 0 0
          0 0 0 0 0 0
          0 0 0 0 0 0
          0 0 0 0 0 0
          0 0 0 0 0 0
          0 0 0 0 0 0
          0 0 0 0 0 0
          0 0 0 0 0 0
          0 0 0 0 0 0
          0 0 0 0 0 0
          0 0 0 0 0 0
          0 0 0 0 0 0
          0 0 0 0 0 0
          0 0 0 0 0 0
          0 0 0 0 0 0
          0 0 0 0 0 0
          0 0 0 0 0 0
          0 0 0 0 0 0
          0 0 0 0 0 0
          0 0 0 0 0 0
          0 0 0 0 0 0
          0 0 0 0 0 0
          0 0 0 0 0 0
          0 0 0 0 0 0
          0 0 0 0 0 0
          0 0 0 0 0 0
          0 0 0 0 0 0
          0 0 0 0 0 0
          0 0 0 0 0 0
          0 0 0 0 0 0
          0 0 0 0 0 0
          0 0 0 0 0 0
          0 0 0 0 0 0
          0 0 0 0 0 0
          0 0 0 0 0 0
          0 0 0 0 0 0
          0 0 0 0 0 0
          0 0 0 0 0 0
          0 0 0 0 0 0
          0 0 0 0 0 0
          0 0 0 0 0 0
          0 0 0 0 0 0
          0 0 0 0 0 0
          0 0 0 0 0 0
          0 0 0 0 0 0
          0 0 0 0 0 0
          0 0 0 0 0 0
          0 0 0 0 0 0
          0 0 0 0 0 0
          0 0 0 0 0 0
          0 0 0 0 0 0
          0 0 0 0 0 0
          0 0 0 0 0 0
          0 0 0 0 0 0
          0 0 0 0 0 0
          0 0 0 0 0 0
          0 0 0 0 0 0
          0 0 0 0 0 0
          0 0 0 0 0 0
          0 0 0 0 0 0
          0 0 0 0 0 0
          0 0 0 0 0 0
          0 0 0 0 0 0
          0 0 0 0 0 0
          0 0 0 0 0 0
          0 0 0 0 0 0
          0 0 0 0 0 0
          0 0 0 0 0 0
          0 0 0 0 0 0
          0 0 0 0 0 0
          0 0 0 0 0 0
          0 0 0 0 0 0
          0 0 0 0 0 0
          0 0 0 0 0 0
          0 0 0 0 0 0
          0 0 0 0 0 0
          0 0 0 0 0 0
          0 0 0 0 0 0
          0 0 0 0 0 0
          0 0 0 0 0 0
          0 0 0 0 0 0
          0 0 0 0 0 0
          0 0 0 0 0 0
          0 0 0 0 0 0
          0 0 0 0 0 0
          0 0 0 0 0 0
          0 0 0 0 0 0
          0 0 0 0 0 0
          0 0 0 0 0 0
          0 0 0 0 0 0
          0 0 0 0 0 0
          0 0 0 0 0 0
          0 0 0 0 0 0
          0 0 0 0 0 0
          0 0 0 0 0 0
          0 0 0 0 0 0
          0 0 0 0 0 0
          0 0 0 0 0 0
          0 0 0 0 0 0
          0 0 0 0 0 0
          0 0 0 0 0 0
          0 0 0 0 0 0
          0 0 0 0 0 0
          0 0 0 0 0 0
          0 0 0 0 0 0
          0 0 0 0 0 0
          0 0 0 0 0 0
          0 0 0 0 0 0
          0 0 0 0 0 0
          0 0 0 0 0 0
          0 0 0 0 0 0
          0 0 0 0 0 0
          0 0 0 0 0 0
          0 0 0 0 0 0
          0 0 0 0 0 0
          0 0 0 0 0 0
          0 0 0 0 0 0
          0 0 0 0 0 0
          0 0 0 0 0 0
          <InformationKey name="L2_NORM_RANGE" location="vtkDataArray" length="2">
            <Value index="0">
              0
            </Value>
            <Value index="1">
              1
            </Value>
          </InformationKey>
        </DataArray>
        <DataArray type="Float64" Name="nsi_FIXNO" NumberOfComponents="3" format="ascii" RangeMin="1.4142135623730951" RangeMax="1.4142135623730951">
          1 1 0 -1 -1 0
          -1 -1 0 -1 -1 0
          1 1 0 1 1 0
          -1 -1 0 -1 -1 0
          -1 -1 0 -1 -1 0
          -1 -1 0 -1 -1 0
          -1 -1 0 -1 -1 0
          -1 -1 0 1 1 0
          -1 -1 0 -1 -1 0
          -1 -1 0 -1 -1 0
          -1 -1 0 -1 -1 0
          -1 -1 0 -1 -1 0
          -1 -1 0 -1 -1 0
          -1 -1 0 -1 -1 0
          -1 -1 0 -1 -1 0
          -1 -1 0 -1 -1 0
          1 1 0 -1 -1 0
          -1 -1 0 -1 -1 0
          1 1 0 -1 -1 0
          -1 -1 0 -1 -1 0
          -1 -1 0 -1 -1 0
          1 1 0 -1 -1 0
          -1 -1 0 -1 -1 0
          -1 -1 0 -1 -1 0
          -1 -1 0 -1 -1 0
          -1 -1 0 -1 -1 0
          -1 -1 0 -1 -1 0
          -1 -1 0 -1 -1 0
          -1 -1 0 -1 -1 0
          -1 -1 0 -1 -1 0
          1 1 0 -1 -1 0
          -1 -1 0 -1 -1 0
          -1 -1 0 -1 -1 0
          -1 -1 0 -1 -1 0
          -1 -1 0 1 1 0
          -1 -1 0 -1 -1 0
          -1 -1 0 -1 -1 0
          -1 -1 0 -1 -1 0
          -1 -1 0 -1 -1 0
          -1 -1 0 -1 -1 0
          -1 -1 0 -1 -1 0
          -1 -1 0 -1 -1 0
          -1 -1 0 -1 -1 0
          -1 -1 0 -1 -1 0
          1 1 0 -1 -1 0
          -1 -1 0 -1 -1 0
          -1 -1 0 -1 -1 0
          -1 -1 0 -1 -1 0
          -1 -1 0 -1 -1 0
          -1 -1 0 -1 -1 0
          -1 -1 0 -1 -1 0
          -1 -1 0 -1 -1 0
          -1 -1 0 -1 -1 0
          -1 -1 0 -1 -1 0
          -1 -1 0 -1 -1 0
          -1 -1 0 -1 -1 0
          -1 -1 0 -1 -1 0
          -1 -1 0 -1 -1 0
          -1 -1 0 -1 -1 0
          -1 -1 0 -1 -1 0
          -1 -1 0 1 1 0
          -1 -1 0 -1 -1 0
          -1 -1 0 -1 -1 0
          -1 -1 0 -1 -1 0
          -1 -1 0 -1 -1 0
          -1 -1 0 -1 -1 0
          -1 -1 0 -1 -1 0
          -1 -1 0 -1 -1 0
          -1 -1 0 -1 -1 0
          -1 -1 0 -1 -1 0
          -1 -1 0 -1 -1 0
          -1 -1 0 -1 -1 0
          -1 -1 0 -1 -1 0
          -1 -1 0 -1 -1 0
          1 1 0 -1 -1 0
          -1 -1 0 -1 -1 0
          -1 -1 0 -1 -1 0
          -1 -1 0 -1 -1 0
          -1 -1 0 -1 -1 0
          -1 -1 0 1 1 0
          -1 -1 0 -1 -1 0
          1 1 0 -1 -1 0
          1 1 0 -1 -1 0
          -1 -1 0 -1 -1 0
          -1 -1 0 1 1 0
          -1 -1 0 -1 -1 0
          -1 -1 0 -1 -1 0
          1 1 0 -1 -1 0
          1 1 0 -1 -1 0
          -1 -1 0 -1 -1 0
          -1 -1 0 -1 -1 0
          -1 -1 0 -1 -1 0
          1 1 0 -1 -1 0
          -1 -1 0 1 1 0
          1 1 0 -1 -1 0
          -1 -1 0 -1 -1 0
          -1 -1 0 -1 -1 0
          -1 -1 0 1 1 0
          -1 -1 0 -1 -1 0
          -1 -1 0 -1 -1 0
          -1 -1 0 -1 -1 0
          1 1 0 1 1 0
          -1 -1 0 1 1 0
          -1 -1 0 -1 -1 0
          -1 -1 0 -1 -1 0
          1 1 0 -1 -1 0
          -1 -1 0 -1 -1 0
          -1 -1 0 -1 -1 0
          1 1 0 -1 -1 0
          -1 -1 0 -1 -1 0
          1 1 0 -1 -1 0
          -1 -1 0 1 1 0
          1 1 0 -1 -1 0
          -1 -1 0 -1 -1 0
          -1 -1 0 -1 -1 0
          -1 -1 0 -1 -1 0
          -1 -1 0 1 1 0
          1 1 0 -1 -1 0
          1 1 0 1 1 0
          -1 -1 0 -1 -1 0
          1 1 0 -1 -1 0
          -1 -1 0 -1 -1 0
          -1 -1 0 1 1 0
          -1 -1 0 -1 -1 0
          -1 -1 0 1 1 0
          -1 -1 0 1 1 0
          -1 -1 0 -1 -1 0
          -1 -1 0 -1 -1 0
          -1 -1 0 -1 -1 0
          -1 -1 0 1 1 0
          1 1 0 -1 -1 0
          1 1 0 -1 -1 0
          1 1 0 -1 -1 0
          -1 -1 0 -1 -1 0
          1 1 0 -1 -1 0
          -1 -1 0 -1 -1 0
          -1 -1 0 -1 -1 0
          1 1 0 1 1 0
          -1 -1 0 -1 -1 0
          -1 -1 0 -1 -1 0
          -1 -1 0 -1 -1 0
          1 1 0 -1 -1 0
          -1 -1 0 -1 -1 0
          1 1 0 -1 -1 0
          1 1 0 1 1 0
          -1 -1 0 -1 -1 0
          -1 -1 0 -1 -1 0
          -1 -1 0 1 1 0
          1 1 0 -1 -1 0
          -1 -1 0 -1 -1 0
          -1 -1 0 1 1 0
          -1 -1 0 1 1 0
          -1 -1 0 -1 -1 0
          1 1 0 -1 -1 0
          -1 -1 0 1 1 0
          -1 -1 0 -1 -1 0
          1 1 0 -1 -1 0
          1 1 0 -1 -1 0
          -1 -1 0 1 1 0
          -1 -1 0 -1 -1 0
          -1 -1 0 -1 -1 0
          -1 -1 0 1 1 0
          -1 -1 0 -1 -1 0
          -1 -1 0 -1 -1 0
          -1 -1 0 -1 -1 0
          1 1 0 -1 -1 0
          -1 -1 0 -1 -1 0
          -1 -1 0 -1 -1 0
          -1 -1 0 1 1 0
          -1 -1 0 -1 -1 0
          -1 -1 0 -1 -1 0
          1 1 0 -1 -1 0
          -1 -1 0 -1 -1 0
          -1 -1 0 -1 -1 0
          -1 -1 0 1 1 0
          -1 -1 0 -1 -1 0
          -1 -1 0 -1 -1 0
          -1 -1 0 -1 -1 0
          1 1 0 -1 -1 0
          -1 -1 0 -1 -1 0
          -1 -1 0 -1 -1 0
          -1 -1 0 -1 -1 0
          -1 -1 0 -1 -1 0
          1 1 0 -1 -1 0
          -1 -1 0 -1 -1 0
          -1 -1 0 -1 -1 0
          -1 -1 0 -1 -1 0
          1 1 0 -1 -1 0
          -1 -1 0 -1 -1 0
          -1 -1 0 -1 -1 0
          -1 -1 0 -1 -1 0
          -1 -1 0 -1 -1 0
          1 1 0 -1 -1 0
          -1 -1 0 -1 -1 0
          -1 -1 0 -1 -1 0
          -1 -1 0 -1 -1 0
          -1 -1 0 -1 -1 0
          1 1 0 -1 -1 0
          -1 -1 0 -1 -1 0
          1 1 0 -1 -1 0
          -1 -1 0 -1 -1 0
          -1 -1 0 -1 -1 0
          -1 -1 0 -1 -1 0
          1 1 0 -1 -1 0
          -1 -1 0 -1 -1 0
          -1 -1 0 -1 -1 0
          -1 -1 0 -1 -1 0
          1 1 0 -1 -1 0
          -1 -1 0 1 1 0
          <InformationKey name="L2_NORM_RANGE" location="vtkDataArray" length="2">
            <Value index="0">
              1.4142135624
            </Value>
            <Value index="1">
              1.4142135624
            </Value>
          </InformationKey>
        </DataArray>
        <DataArray type="Float64" Name="Velocity" NumberOfComponents="3" format="ascii" RangeMin="0" RangeMax="1.4145246860445475">
          0 0 0 0.31848538365605916 0.024377300580836647 0
          0.7323663710898519 0.10034899610104804 0 0.5148157607056696 0.0367726750033533 0
          0 0 0 1 0 0
          0.7175097399416567 0.026440061165798657 0 0.36954879553148595 0.021861947268995763 0
          0.6434009535088702 0.03813667632592234 0 0.3117713533513878 0.004938408639774702 0
          0.6665937191862399 0.028691899631209647 0 0.56163508419178 0.03307750037575156 0
          0.7022800629155013 -0.09742664859696464 0 0.7194797280463535 0.03240458605021004 0
          0.6847049346145078 0.047148947219203985 0 0 0 0
          0.505347231824956 0.026842910172361147 0 0.7255319450712485 0.05928205297312396 0
          0.6052480201822323 -0.004796215307013276 0 0.6490643004764634 0.042419796017535434 0
          0.6595031295938666 0.05751841539872394 0 0.6865018988859112 0.06112896289090467 0
          0.42386514090389604 0.03651008850766285 0 0.3485448776753689 -0.028463016890819537 0
          0.7305199320222051 0.0976170596367224 0 0.6415244499775384 0.07995452883834227 0
          0.7404545650027753 0.11857520070495595 0 0.712388183797017 0.09778131539181999 0
          0.32088557199872 0.012109232499448374 0 0.5702341108662657 0.046977815601209255 0
          0.4447782388521302 0.002810059579025964 0 0.6005720516831062 0.09032649857602755 0
          0 0 0 0.6200311152370235 0.08021965293322329 0
          0.73165398254959 0.1557654623338957 0 0.755732000641946 0.15499756671913603 0
          0 0 0 0.7752139996073396 0.19097724636353894 0
          0.6512102791357623 0.1365434409920165 0 0.3225239455114275 0.009338896324820994 0
          0.5649187422401889 0.08530391313960374 0 0.20093914303251492 0.0051754573714065675 0
          0 0 0 0.46626967433151867 0.05055049626228451 0
          0.7643511544405551 0.18332981138945242 0 0.7536087202544257 0.22552119798295187 0
          0.8248427782728412 0.24647265783615474 0 0.6759127175134765 0.20918140253099235 0
          0.5173602858695536 0.09517449258292723 0 0.8089709670018591 0.2846817904267717 0
          0.3090142850477066 0.02503932919602886 0 0.4610964599896236 0.024709702920864662 0
          0.7946153391750516 0.15353137165788894 0 0.8753480256146627 0.2764326376353205 0
          0.554228052026895 0.1671786890106296 0 0.688667660277641 0.2920742596227409 0
          0.867660522754197 0.3437326795497107 0 0.35017858241217364 0.04837741975608555 0
          0.7960949724671342 0.37209760743955744 0 0.5880287681204861 0.2556109957641951 0
          0 0 0 0.9465039956075838 0.36506919183148806 0
          0.7035240355690497 0.37495612338809214 0 0.18601013062505087 0.011109389382715738 0
          0.9832646338050509 0.2377870682551888 0 0.3721909985118218 0.09324696580214899 0
          0.4571699170568144 0.19209736093469937 0 0.8712203611000348 0.4254549885434495 0
          0.5895111684349925 0.3352431981291234 0 0 0 0
          0.7483448905129141 0.10282717995887382 0 0.46788256491314084 0.26970900734918735 0
          0.7402238796459054 0.46558436989422325 0 1.0525208839921514 0.3596539323751278 0
          0.9630325494917916 0.46416428972823687 0 0.32754718562843754 0.127224716373378 0
          0.21574965764892798 0.036280803088260836 0 0.5648435061696211 0.4152056042717161 0
          0.8482012464412377 0.5145367429104987 0 1.1162425819931845 0.28701010175624386 0
          0.46328649509107417 0.345419369489428 0 0.7244597218428882 0.5160056022127292 0
          0.34163533516048394 0.19203969640031898 0 0.24619965098615787 0.06515125023924549 0
          1.0353404491652767 0.19354978596568714 0 0.6059185101228769 0.49825646722649963 0
          0.9595504505538509 0.5243761823263701 0 0.3414647290437191 0.2632498347507247 0
          0 0 0 0.8337471592220831 0.08450212347849947 0
          1.1896179591090954 0.38323044553068975 0 0.7879186504159296 0.565898663014691 0
          0.4368973423963385 0.42461965304408444 0 0.6394338334059547 0.5560171913149214 0
          1.2243802024021355 0.2764524764032738 0 0.2334082009434148 0.12191920048378597 0
          0.31256601775318377 0.31080373366157843 0 0.12391003859080808 0.01653099443513364 0
          0.24331793558858628 0.1870418469699032 0 0.47808157161075626 0.01094092489942872 0
          0.9313957362925213 0.5647348495585283 0 0.4206239065135497 0.48157566040501354 0
          1.1467932775773098 0.4729056254603089 0 0.2449038768935102 0.2500681593201387 0
          0.695033769774797 0.5888425017555986 0 0.2781349652874854 0.350823350173955 0
          1.169551370059918 0.14195711874811978 0 1.2938788475048417 0.33117433998390655 0
          0.14217714930452768 0.04483538317067316 0 0.5201877193880415 0.5605154444945356 0
          0.8046912716499495 0.5721975815330717 0 0.2013875514964504 0.2717055869464983 0
          0.32441403057250134 0.4579772494879699 0 1.0804372666421693 0.4860457742292999 0
          0.9188005838446831 0.028709298348788683 0 0.13720698430436723 0.07278761992967299 0
          0.555899710676688 0.5594030944107886 0 0.2161326809085279 0.351103163536693 0
          1.2699853988338554 0.35798744069312466 0 1.3480488989649975 0.19534556876359738 0
          0.14182229848622022 0.12650402290316914 0 0 0 0
          0.15241292156910755 0.1956132118040644 0 0.3258433666388324 0.482907698091747 0
          1.3556921626892497 0.25920520868500513 0 0.16725099682023822 0.28277043493330356 0
          0.06021666030899794 0.008406299597664566 0 0.6557173749120611 0.5080575118703209 0
          0.15505877341878477 0.33052246774876953 0 0.9871726120069506 0.42390256151477734 0
          0.363371005391563 0.4568849184824621 0 0.10973302131196436 0.19949644632040558 0
          1.1799746506742443 0.33981500356943584 0 0.07979169525551975 0.03167070765200531 0
          0.1026806580322593 0.13189185308664964 0 1.2505659412209635 0.058836176528448275 0
          1.3150331051898707 0.2553973350154371 0 0.1622584795553084 0.34446548913102376 0
          0.08369140874293585 0.1934301141323352 0 1.4022567990775054 0.15526975701516774 0
          0.42884060146619746 0.3586782046993446 0 0.0861558367700239 0.09675195915539321 0
          0.07371339324375864 0.24206514173340224 0 0.07176071584646809 0.04476950890948481 0
          0.7657156654272067 0.30844959032223 0 0.07792778796315958 0.13046969212457885 0
          0.06770736222788773 0.20798807407936173 0 0.07076856166768512 0.208994830294873 0
          0 0 0 0.08449871799727379 0.21730426125163332 0
          0.9955780567532937 0.2545299830640527 0 1.3998013025026281 0.08169590265742006 0
          1.1949745595518617 0.21158010907731153 0 0.04094710972461758 0.15541497711233784 0
          0.059495917814105674 0.058148616435128794 0 0.0469027392824128 0.12161549819482108 0
          0.9260280934247086 0.007164656520605799 0 0.032167130948786066 0.13875913692784456 0
          0.021576058369846534 0.12194902562022115 0 0 0 0
          0.05437664537138601 0.08670615847538472 0 0.40191155400849166 0.07067345093646321 0
          0 0 0 0.7071645548432441 0.1129745217125129 0
          0 0 0 0.017502011450152944 0.09266329004953172 0
          0.029056892932015115 0.10820655227152168 0 0.03954909983206729 0.013998804942603645 0
          1.3294880474735074 0.0714956433897567 0 0 0 0
          0.011059425036443448 0.06894328338212669 0 0.04156077842418707 0.056541856784209026 0
          0.9286307981556405 0.07647486660275905 0 0.032259030492347 0.07589181925986807 0
          0 0 0 0.018585116636969948 0.07709907446500566 0
          0 0 0 1.4144618061034746 0.013337409940541738 0
          0.35465219936327336 0.028036066335200352 0 0.0066193170927798545 0.05568465566776395 0
          1.1310258264674993 0.03099921773246044 0 0.017976553684705163 0.06755752532175939 0
          0.6746739409037904 0.04021451968571209 0 0.032169810358244504 0.022695876139025545 0
          0 0 0 0.006828042649907538 0.04343262935331151 0
          1.4060599869343924 -0.02390927882658687 0 0 0 0
          0 0 0 0.013537699323756359 0.04703473928442286 0
          0.024975510162754976 0.02643031833592684 0 0.0048348677369844896 0.03481441908422552 0
          0.01886018232442079 0.04064205162420631 0 0.33576441592046596 0.0002347679448617226 0
          0.012571659865939193 0.04012798237533112 0 0 0 0
          1.2539946946532732 -0.04343366484879313 0 0.6599496118207605 -0.02188487308797364 0
          0.9415303786866676 -0.052986557065561365 0 0.00437733840999824 0.026798758946028862 0
          1.1539953722404939 -0.09059770582503014 0 0.017475916855076528 0.005897516687044664 0
          0 0 0 0 0 0
          0.014574172772967185 0.023599664097417452 0 0 0 0
          1.3144490356845866 -0.10997402733147921 0 0.008142857150824278 0.026262910000172737 0
          0.0036842135186113322 0.020358471148874492 0 0.341663252035236 -0.026133486878018378 0
          0 0 0 1.3925798657751056 -0.11939110386263556 0
          0.007754645321432738 0.02028322914702648 0 0.6741959093344315 -0.12041869277834691 0
          0.011866375236330934 0.010108294327827396 0 0.002901682648772974 0.014649922794605868 0
          0 0 0 0.9263537243557718 -0.16499820489797692 0
          0.004924047820856491 0.015519594349275849 0 1.3741433514883579 -0.11932494676237168 0
          0 0 0 0.0025418646043094332 0.010607208658175426 0
          1.1294759270753936 -0.19151356637648204 0 0 0 0
          0 0 0 0.38980798130703936 -0.1681780913454497 0
          0.006343516717711756 0.008242681514173518 0 0.00484955024443129 0.010123433566232942 0
          0.9444214319450039 -0.04645290050944077 0 0.001513206534955811 0.0070004456555767544 0
          1.2798055071129721 -0.20044669706014712 0 1.2100869487681383 -0.09226867247021027 0
          0.006344572380593198 0.0021234244967667433 0 0 0 0
          0 0 0 0.6693449932530953 -0.233024757842362 0
          0 0 0 0 0 0
          0.0009111192001046441 0.004845857101850917 0 0.045926920509581734 -0.0737869695178774 0
          0 0 0 0.002760164900359682 0.005650094817041433 0
          1.3560785300358218 -0.20135511805352815 0 0.898503067423597 -0.2655539745043997 0
          0.0035870823329846846 0.002716856937636337 0 0 0 0
          0.025848153009619908 -0.033031659295271 0 0.0010562574870120257 0.0028187228907221506 0
          0.0023480007117834957 0.003406005549570329 0 0 0 0
          0.0148512636207027 -0.007914632248012246 0 0 0 0
          0.30864389862367086 -0.20754944097779612 0 1.3223641713407202 -0.17562671106384756 0
          0.001100992925032352 0.0019416500864092004 0 1.0568027822371082 -0.2979476933907613 0
          0.006238518640324286 0.009130682934682827 0 0.002003594502890529 0.0004998997342895071 0
          0.0007935247926313811 0.001573769134537408 0 0 0 0
          0 0 0 0.10139833214842116 -0.1067252922065074 0
          0 0 0 0.002134193213967229 0.014698901403355676 0
          0 0 0 1.2259016996997956 -0.2894374423594168 0
          0.06392298083831428 -0.05775456738811949 0 0.0010868053154991775 0.0008024697294174329 0
          0 0 0 0.00037027572441651705 0.0005748809442497707 0
          0.2560822769367947 -0.007637197701519975 0 0.5373879026081904 -0.28094090079678347 0
          0.00125426266481433 0.017941328263668687 0 1.161563260417693 -0.14288339373878306 0
          0 0 0 0 0 0
          0.0010136273908912924 0.019153030004542715 0 0.0002197842858939013 0.0001996630183029169 0
          0.2893679631830045 -0.21051134459313103 0 0.016827914956935055 -0.003303876886424733 0
          0.051815145862707086 -0.03755529317476228 0 0.7704862282506821 -0.32546191383123624 0
          0 0 0 1.28995587801607 -0.2614590748201425 0
          0.1384124044645787 -0.1189190977067632 0 0.00007895784710706318 0.020253330058964184 0
          0 0 0 0.010237257842403315 0.011458367403624395 0
          0 0 0 0 0 0
          0.004476095169327467 0.020938241081096 0 0.00011676303389637093 -0.0001419790732125854 0
          -0.0005633038376575221 0.019791965761125428 0 0.0039462911861403455 0.025650933313821886 0
          0.7937119649713674 -0.09200026861812782 0 0 0 0
          0 0 0 0.47910066188958483 -0.28324941468932113 0
          -0.000458081319295934 0.019090735317585344 0 0.9386406092631339 -0.34407876383154834 0
          1.2452932199418045 -0.22820943898590618 0 0 0 0
          0.03410264626977873 -0.01292743056003122 0 0 0 0
          0.3056356029725548 -0.2165550334456671 0 0.00002142495675350203 0.030126661406724733 0
          0 0 0 -0.000784203343339908 0.01787542679608393 0
          0.012954632115893436 0.020625059267262123 0 0 0 0
          -0.0005215438183621833 0.031317116983316524 0 0.15801405323692636 -0.12021562590880729 0
          0 0 0 -0.0011155603686857773 0.01631222628969115 0
          0 0 0 -0.001671229506236351 0.028507548180698634 0
          0.6574918479448824 -0.32913048273180123 0 0 0 0
          -0.0014024293510142168 0.014012366458116545 0 -0.0024102820811529417 0.02676808708174177 0
          1.0891263316562076 -0.16466557517977992 0 0.4670393862205229 -0.2790511590244891 0
          0.003718744129876589 0.03132065063360069 0 0 0 0
          -0.0015587271656162063 0.01155825671028016 0 1.2113353334561654 -0.3073681001014136 0
          0.051179550776867984 -0.021726972530551794 0 -0.004583628449367959 0.02581927488625695 0
          1.0415331203336 -0.36750949603842287 0 0.299030215228163 -0.2048893076077634 0
          0 0 0 -0.0013665732272410565 0.009219348488589178 0
          -0.0036611360698275116 0.03416249890395163 0 0.1357448655404234 -0.09742120079448004 0
          -0.00500641438939422 0.022048659871960124 0 0.029025594341064973 0.002164059754862409 0
          0.8169054870226471 -0.36259230221711386 0 0 0 0
          -0.001342309429298796 0.006811214248086927 0 -0.0044193743067171025 0.017037805797537903 0
          0.6254745580553549 -0.3198848802680632 0 0.71023382888154 -0.08251733466482737 0
          0 0 0 -0.001332309355644461 0.004537718978043254 0
          -0.009848650408556672 0.028192530960945678 0 -0.004912041098504606 0.014088625914289311 0
          0.005381410871643318 0.023358734492415337 0 0.453224118476192 -0.26419462239833774 0
          0.07483819072965225 -0.0495022578178626 0 0 0 0
          -0.0011725909254141971 0.002425989543646003 0 1.107061108610704 -0.35848652074819876 0
          -0.004675750858753358 0.010136027416884184 0 -0.010319851418107097 0.021887953926009437 0
          0.29778226202475505 -0.1957267264089277 0 1.1522736542229437 -0.2998914672840628 0
          0 0 0 0.9547762597336671 -0.36706463162805125 0
          -0.0043427136329631435 0.006683420775988512 0 -0.00048377199122528894 0.0006188676569225043 0
          0.04392397373895127 -0.015837851321802328 0 -0.010218970451436202 0.015183623006491327 0
          0.15464255507706684 -0.11224606717364789 0 -0.003218661684633057 0.003514609049590088 0
          0.6734830134512032 -0.32449520447301206 0 -0.010338433008824905 0.01822189417904873 0
          0 0 0 1.0122688224142955 -0.2080586029808736 0
          0.31957851685004546 -0.017656334177981788 0 -0.008155256620090258 0.007273659998926103 0
          -0.01694790019101826 0.017831593134641062 0 -0.015623343535622126 0.015530646631520439 0
          0.10202890276789044 -0.07022285150039953 0 0.4269496008286462 -0.2538523896593138 0
          0 0 0 -0.0037445364662148165 0.0017141105191696853 0
          1.0429119645120037 -0.32948230575435855 0 0.003069806700052131 -0.01347578380332697 0
          -0.01559664841806939 0.008735894953387453 0 -0.016457559839801076 0.003831518106660899 0
          0.823726701472183 -0.33477891004904176 0 0.2018707748830782 -0.14704888354600001 0
          0.5557478027564838 -0.07382697462628914 0 -0.020914439290866383 0.008093695696423745 0
          0 0 0 -0.009416762151597358 0.0025684500848702175 0
          0.5651384463588588 -0.2941552583702153 0 1.0882536653286534 -0.2744907261083362 0
          0.04986408660366341 -0.061828200573134685 0 0.34632796252652087 -0.22537818588881778 0
          -0.001216467998900311 -0.023118076923099036 0 -0.017790182495808795 -0.005194575375844128 0
          -0.016117166694978025 0.0019706725704399628 0 0.976935194540539 -0.32151288043054077 0
          0 0 0 -0.019814718144154014 0.0014649785626470748 0
          0.7466681690818009 -0.33956412828052684 0 0.48661182285932797 -0.28816659142939144 0
          0 0 0 0.1359465489657388 -0.1301516404242697 0
          0.03568514440866622 -0.06394776093090158 0 0.9654192407977606 -0.09790485794901346 0
          0.00045585567643579813 -0.030092889434293824 0 -0.01509339512626208 0.0003790324772166512 0
          -0.013316561122157589 -0.009523861228413987 0 0.28115422422719083 -0.22500603738723773 0
          0 0 0 0.9910121669391837 -0.38532228078400005 0
          -0.010928820770418552 -0.00032311271055185105 0 0.10708074684321091 -0.1372672103566434 0
          0.03372138244346464 -0.06166546809834789 0 0.5652723549701335 -0.4239763921477921 0
          0.004077979373201385 -0.017815095844313532 0 0.2517896593731823 -0.28988643260637403 0
          0 0 0 0.03637993463271713 -0.0376804739918116 0
          0.10885135368665963 -0.11561686804824452 0 0 0 0
          <InformationKey name="L2_NORM_RANGE" location="vtkDataArray" length="2">
            <Value index="0">
              0
            </Value>
            <Value index="1">
              1.414524686
            </Value>
          </InformationKey>
        </DataArray>
        <DataArray type="Float64" Name="Pressure" format="ascii" RangeMin="-8.45207861197216" RangeMax="36.90729109237301">
          36.24561565068893 36.404896053767814 36.730011829931435 36.18097559437874 35.99998827005716 36.77196639414345
          36.04146604730676 35.4913147105748 35.34898216596918 34.5857448400827 36.09312590915268 34.37139878720459
          36.90729109237301 35.29778871753079 34.3798669645795 33.58158072315996 33.42891247138702 34.48895424060968
          36.4815317962971 35.53328542208147 33.29237871479955 34.74712270414501 32.36055043247628 36.87392600959509
          33.48597656864195 32.19420636496086 32.30944905352587 33.91276546469862 31.42916410851902 34.91750708100843
          35.89854019280261 30.871543950006892 36.69409418000003 34.18465621973962 33.07493852893352 31.15246235737433
          30.342336143184045 31.562669387455966 33.52897632835706 35.18313650997012 29.490820588691097 35.598184702486854
          36.7169031059052 34.35798740404654 29.653592825065132 32.135487521294245 30.14429314442484 32.804646872485456
          33.86096765686853 30.765319526795068 34.48003482993697 27.52895337962329 27.858675334295853 28.50698809387768
          33.41055585414551 32.07279080989055 29.342531257984696 33.99646345433993 30.217151742083605 32.78754803669455
          34.71590265583624 27.512435530214926 31.170131196982872 34.0904199408174 25.843194453658516 33.76726816015355