<?xml version="1.0"?>
<VTKFile type="UnstructuredGrid" version="0.1" byte_order="LittleEndian" header_type="UInt32" compressor="vtkZLibDataCompressor">
  <UnstructuredGrid>
    <Piece NumberOfPoints="418" NumberOfCells="757">
      <PointData>
        <DataArray type="Float64" Name="nsi_BC" NumberOfComponents="3" format="ascii" RangeMin="0" RangeMax="1">
          0 0 0 0 0 0
          0 0 0 0 0 0
          0 0 0 1 0 0
          0 0 0 0 0 0
          0 0 0 0 0 0
          0 0 0 0 0 0
          0 0 0 0 0 0
          0 0 0 0 0 0
          0 0 0 0 0 0
          0 0 0 0 0 0
          0 0 0 0 0 0
          0 0 0 0 0 0
          0 0 0 0 0 0
          0 0 0 0 0 0
          0 0 0 0 0 0
          0 0 0 0 0 0
          0 0 0 0 0 0
          0 0 0 0 0 0
          0 0 0 0 0 0
          0 0 0 0 0 0
          0 0 0 0 0 0
          0 0 0 0 0 0
          0 0 0 0 0 0
          0 0 0 0 0 0
          0 0 0 0 0 0
          0 0 0 0 0 0
          0 0 0 0 0 0
          0 0 0 0 0 0
          0 0 0 0 0 0
          0 0 0 0 0 0
          0 0 0 0 0 0
          0 0 0 0 0 0
          0 0 0 0 0 0
          0 0 0 0 0 0
          0 0 0 0 0 0
          0 0 0 0 0 0
          0 0 0 0 0 0
          0 0 0 0 0 0
          0 0 0 0 0 0
          0 0 0 0 0 0
          0 0 0 0 0 0
          0 0 0 0 0 0
          0 0 0 0 0 0
          0 0 0 0 0 0
          0 0 0 0 0 0
          0 0 0 0 0 0
          0 0 0 0 0 0
          0 0 0 0 0 0
          0 0 0 0 0 0
          0 0 0 0 0 0
          0 0 0 0 0 0
          0 0 0 0 0 0
          0 0 0 0 0 0
          0 0 0 0 0 0
          0 0 0 0 0 0
          0 0 0 0 0 0
          0 0 0 0 0 0
          0 0 0 0 0 0
          0 0 0 0 0 0
          0 0 0 0 0 0
          0 0 0 0 0 0
          0 0 0 0 0 0
          0 0 0 0 0 0
          0 0 0 0 0 0
          0 0 0 0 0 0
          0 0 0 0 0 0
          0 0 0 0 0 0
          0 0 0 0 0 0
          0 0 0 0 0 0
          0 0 0 0 0 0
          0 0 0 0 0 0
          0 0 0 0 0 0
          0 0 0 0 0 0
          0 0 0 0 0 0
          0 0 0 0 0 0
          0 0 0 0 0 0
          0 0 0 0 0 0
          0 0 0 0 0 0
          0 0 0 0 0 0
          0 0 0 0 0 0
          0 0 0 0 0 0
          0 0 0 0 0 0
          0 0 0 0 0 0
          0 0 0 0 0 0
          0 0 0 0 0 0
          0 0 0 0 0 0
          0 0 0 0 0 0
          0 0 0 0 0 0
          0 0 0 0 0 0
          0 0 0 0 0 0
          0 0 0 0 0 0
          0 0 0 0 0 0
          0 0 0 0 0 0
          0 0 0 0 0 0
          0 0 0 0 0 0
          0 0 0 0 0 0
          0 0 0 0 0 0
          0 0 0 0 0 0
          0 0 0 0 0 0
          0 0 0 0 0 0
          0 0 0 0 0 0
          0 0 0 0 0 0
          0 0 0 0 0 0
          0 0 0 0 0 0
          0 0 0 0 0 0
          0 0 0 0 0 0
          0 0 0 0 0 0
          0 0 0 0 0 0
          0 0 0 0 0 0
          0 0 0 0 0 0
          0 0 0 0 0 0
          0 0 0 0 0 0
          0 0 0 0 0 0
          0 0 0 0 0 0
          0 0 0 0 0 0
          0 0 0 0 0 0
          0 0 0 0 0 0
          0 0 0 0 0 0
          0 0 0 0 0 0
          0 0 0 0 0 0
          0 0 0 0 0 0
          0 0 0 0 0 0
          0 0 0 0 0 0
          0 0 0 0 0 0
          0 0 0 0 0 0
          0 0 0 0 0 0
          0 0 0 0 0 0
          0 0 0 0 0 0
          0 0 0 0 0 0
          0 0 0 0 0 0
          0 0 0 0 0 0
          0 0 0 0 0 0
          0 0 0 0 0 0
          0 0 0 0 0 0
          0 0 0 0 0 0
          0 0 0 0 0 0
          0 0 0 0 0 0
          0 0 0 0 0 0
          0 0 0 0 0 0
          0 0 0 0 0 0
          0 0 0 0 0 0
          0 0 0 0 0 0
          0 0 0 0 0 0
          0 0 0 0 0 0
          0 0 0 0 0 0
          0 0 0 0 0 0
          0 0 0 0 0 0
          0 0 0 0 0 0
          0 0 0 0 0 0
          0 0 0 0 0 0
          0 0 0 0 0 0
          0 0 0 0 0 0
          0 0 0 0 0 0
          0 0 0 0 0 0
          0 0 0 0 0 0
          0 0 0 0 0 0
          0 0 0 0 0 0
          0 0 0 0 0 0
          0 0 0 0 0 0
          0 0 0 0 0 0
          0 0 0 0 0 0
          0 0 0 0 0 0
          0 0 0 0 0 0
          0 0 0 0 0 0
          0 0 0 0 0 0
          0 0 0 0 0 0
          0 0 0 0 0 0
          0 0 0 0 0 0
          0 0 0 0 0 0
          0 0 0 0 0 0
          0 0 0 0 0 0
          0 0 0 0 0 0
          0 0 0 0 0 0
          0 0 0 0 0 0
          0 0 0 0 0 0
          0 0 0 0 0 0
          0 0 0 0 0 0
          0 0 0 0 0 0
          0 0 0 0 0 0
          0 0 0 0 0 0
          0 0 0 0 0 0
          0 0 0 0 0 0
          0 0 0 0 0 0
          0 0 0 0 0 0
          0 0 0 0 0 0
          0 0 0 0 0 0
          0 0 0 0 0 0
          0 0 0 0 0 0
          0 0 0 0 0 0
          0 0 0 0 0 0
          0 0 0 0 0 0
          0 0 0 0 0 0
          0 0 0 0 0 0
          0 0 0 0 0 0
          0 0 0 0 0 0
          0 0 0 0 0 0
          0 0 0 0 0 0
          0 0 0 0 0 0
          0 0 0 0 0 0
          0 0 0 0 0 0
          0 0 0 0 0 0
          0 0 0 0 0 0
          0 0 0 0 0 0
          0 0 0 0 0 0
          0 0 0 0 0 0
          0 0 0 0 0 0
          0 0 0 0 0 0
          0 0 0 0 0 0
          0 0 0 0 0 0
          <InformationKey name="L2_NORM_RANGE" location="vtkDataArray" length="2">
            <Value index="0">
              0
            </Value>
            <Value index="1">
              1
            </Value>
          </InformationKey>
        </DataArray>
        <DataArray type="Float64" Name="nsi_FIXNO" NumberOfComponents="3" format="ascii" RangeMin="1.4142135623730951" RangeMax="1.4142135623730951">
          1 1 0 -1 -1 0
          -1 -1 0 -1 -1 0
          1 1 0 1 1 0
          -1 -1 0 -1 -1 0
          -1 -1 0 -1 -1 0
          -1 -1 0 -1 -1 0
          -1 -1 0 -1 -1 0
          -1 -1 0 1 1 0
          -1 -1 0 -1 -1 0
          -1 -1 0 -1 -1 0
          -1 -1 0 -1 -1 0
          -1 -1 0 -1 -1 0
          -1 -1 0 -1 -1 0
          -1 -1 0 -1 -1 0
          -1 -1 0 -1 -1 0
          -1 -1 0 -1 -1 0
          1 1 0 -1 -1 0
          -1 -1 0 -1 -1 0
          1 1 0 -1 -1 0
          -1 -1 0 -1 -1 0
          -1 -1 0 -1 -1 0
          1 1 0 -1 -1 0
          -1 -1 0 -1 -1 0
          -1 -1 0 -1 -1 0
          -1 -1 0 -1 -1 0
          -1 -1 0 -1 -1 0
          -1 -1 0 -1 -1 0
          -1 -1 0 -1 -1 0
          -1 -1 0 -1 -1 0
          -1 -1 0 -1 -1 0
          1 1 0 -1 -1 0
          -1 -1 0 -1 -1 0
          -1 -1 0 -1 -1 0
          -1 -1 0 -1 -1 0
          -1 -1 0 1 1 0
          -1 -1 0 -1 -1 0
          -1 -1 0 -1 -1 0
          -1 -1 0 -1 -1 0
          -1 -1 0 -1 -1 0
          -1 -1 0 -1 -1 0
          -1 -1 0 -1 -1 0
          -1 -1 0 -1 -1 0
          -1 -1 0 -1 -1 0
          -1 -1 0 -1 -1 0
          1 1 0 -1 -1 0
          -1 -1 0 -1 -1 0
          -1 -1 0 -1 -1 0
          -1 -1 0 -1 -1 0
          -1 -1 0 -1 -1 0
          -1 -1 0 -1 -1 0
          -1 -1 0 -1 -1 0
          -1 -1 0 -1 -1 0
          -1 -1 0 -1 -1 0
          -1 -1 0 -1 -1 0
          -1 -1 0 -1 -1 0
          -1 -1 0 -1 -1 0
          -1 -1 0 -1 -1 0
          -1 -1 0 -1 -1 0
          -1 -1 0 -1 -1 0
          -1 -1 0 -1 -1 0
          -1 -1 0 1 1 0
          -1 -1 0 -1 -1 0
          -1 -1 0 -1 -1 0
          -1 -1 0 -1 -1 0
          -1 -1 0 -1 -1 0
          -1 -1 0 -1 -1 0
          -1 -1 0 -1 -1 0
          -1 -1 0 -1 -1 0
          -1 -1 0 -1 -1 0
          -1 -1 0 -1 -1 0
          -1 -1 0 -1 -1 0
          -1 -1 0 -1 -1 0
          -1 -1 0 -1 -1 0
          -1 -1 0 -1 -1 0
          1 1 0 -1 -1 0
          -1 -1 0 -1 -1 0
          -1 -1 0 -1 -1 0
          -1 -1 0 -1 -1 0
          -1 -1 0 -1 -1 0
          -1 -1 0 1 1 0
          -1 -1 0 -1 -1 0
          1 1 0 -1 -1 0
          1 1 0 -1 -1 0
          -1 -1 0 -1 -1 0
          -1 -1 0 1 1 0
          -1 -1 0 -1 -1 0
          -1 -1 0 -1 -1 0
          1 1 0 -1 -1 0
          1 1 0 -1 -1 0
          -1 -1 0 -1 -1 0
          -1 -1 0 -1 -1 0
          -1 -1 0 -1 -1 0
          1 1 0 -1 -1 0
          -1 -1 0 1 1 0
          1 1 0 -1 -1 0
          -1 -1 0 -1 -1 0
          -1 -1 0 -1 -1 0
          -1 -1 0 1 1 0
          -1 -1 0 -1 -1 0
          -1 -1 0 -1 -1 0
          -1 -1 0 -1 -1 0
          1 1 0 1 1 0
          -1 -1 0 1 1 0
          -1 -1 0 -1 -1 0
          -1 -1 0 -1 -1 0
          1 1 0 -1 -1 0
          -1 -1 0 -1 -1 0
          -1 -1 0 -1 -1 0
          1 1 0 -1 -1 0
          -1 -1 0 -1 -1 0
          1 1 0 -1 -1 0
          -1 -1 0 1 1 0
          1 1 0 -1 -1 0
          -1 -1 0 -1 -1 0
          -1 -1 0 -1 -1 0
          -1 -1 0 -1 -1 0
          -1 -1 0 1 1 0
          1 1 0 -1 -1 0
          1 1 0 1 1 0
          -1 -1 0 -1 -1 0
          1 1 0 -1 -1 0
          -1 -1 0 -1 -1 0
          -1 -1 0 1 1 0
          -1 -1 0 -1 -1 0
          -1 -1 0 1 1 0
          -1 -1 0 1 1 0
          -1 -1 0 -1 -1 0
          -1 -1 0 -1 -1 0
          -1 -1 0 -1 -1 0
          -1 -1 0 1 1 0
          1 1 0 -1 -1 0
          1 1 0 -1 -1 0
          1 1 0 -1 -1 0
          -1 -1 0 -1 -1 0
          1 1 0 -1 -1 0
          -1 -1 0 -1 -1 0
          -1 -1 0 -1 -1 0
          1 1 0 1 1 0
          -1 -1 0 -1 -1 0
          -1 -1 0 -1 -1 0
          -1 -1 0 -1 -1 0
          1 1 0 -1 -1 0
          -1 -1 0 -1 -1 0
          1 1 0 -1 -1 0
          1 1 0 1 1 0
          -1 -1 0 -1 -1 0
          -1 -1 0 -1 -1 0
          -1 -1 0 1 1 0
          1 1 0 -1 -1 0
          -1 -1 0 -1 -1 0
          -1 -1 0 1 1 0
          -1 -1 0 1 1 0
          -1 -1 0 -1 -1 0
          1 1 0 -1 -1 0
          -1 -1 0 1 1 0
          -1 -1 0 -1 -1 0
          1 1 0 -1 -1 0
          1 1 0 -1 -1 0
          -1 -1 0 1 1 0
          -1 -1 0 -1 -1 0
          -1 -1 0 -1 -1 0
          -1 -1 0 1 1 0
          -1 -1 0 -1 -1 0
          -1 -1 0 -1 -1 0
          -1 -1 0 -1 -1 0
          1 1 0 -1 -1 0
          -1 -1 0 -1 -1 0
          -1 -1 0 -1 -1 0
          -1 -1 0 1 1 0
          -1 -1 0 -1 -1 0
          -1 -1 0 -1 -1 0
          1 1 0 -1 -1 0
          -1 -1 0 -1 -1 0
          -1 -1 0 -1 -1 0
          -1 -1 0 1 1 0
          -1 -1 0 -1 -1 0
          -1 -1 0 -1 -1 0
          -1 -1 0 -1 -1 0
          1 1 0 -1 -1 0
          -1 -1 0 -1 -1 0
          -1 -1 0 -1 -1 0
          -1 -1 0 -1 -1 0
          -1 -1 0 -1 -1 0
          1 1 0 -1 -1 0
          -1 -1 0 -1 -1 0
          -1 -1 0 -1 -1 0
          -1 -1 0 -1 -1 0
          1 1 0 -1 -1 0
          -1 -1 0 -1 -1 0
          -1 -1 0 -1 -1 0
          -1 -1 0 -1 -1 0
          -1 -1 0 -1 -1 0
          1 1 0 -1 -1 0
          -1 -1 0 -1 -1 0
          -1 -1 0 -1 -1 0
          -1 -1 0 -1 -1 0
          -1 -1 0 -1 -1 0
          1 1 0 -1 -1 0
          -1 -1 0 -1 -1 0
          1 1 0 -1 -1 0
          -1 -1 0 -1 -1 0
          -1 -1 0 -1 -1 0
          -1 -1 0 -1 -1 0
          1 1 0 -1 -1 0
          -1 -1 0 -1 -1 0
          -1 -1 0 -1 -1 0
          -1 -1 0 -1 -1 0
          1 1 0 -1 -1 0
          -1 -1 0 1 1 0
          <InformationKey name="L2_NORM_RANGE" location="vtkDataArray" length="2">
            <Value index="0">
              1.4142135624
            </Value>
            <Value index="1">
              1.4142135624
            </Value>
          </InformationKey>
        </DataArray>
        <DataArray type="Float64" Name="Velocity" NumberOfComponents="3" format="ascii" RangeMin="0" RangeMax="1.4149885017475303">
          0 0 0 0.31853515799789445 0.024337569133295926 0
          0.7322394358171495 0.10039563859172418 0 0.51487382997706 0.036689021925758875 0
          0 0 0 1 0 0
          0.7173909571326516 0.026489211892545824 0 0.36956989182477845 0.021710285722083524 0
          0.6437554746252343 0.038162580503803833 0 0.3116230501447747 0.004845432798121002 0
          0.6663681581620081 0.028899329940002026 0 0.562039490183304 0.03282180930006654 0
          0.7022483581511081 -0.09765976977050261 0 0.7198240117011904 0.03346560541688717 0
          0.6861452086544403 0.04760729683273254 0 0 0 0
          0.5052159453244564 0.0266637691015057 0 0.7274909624906514 0.061279615202689146 0
          0.6054109166929676 -0.004505507818446606 0 0.6491511552107216 0.04398526242878021 0
          0.6611974186002338 0.057656716901695826 0 0.6874889583223518 0.06465029052025767 0
          0.42352914943612685 0.03641360131296518 0 0.3487368975415629 -0.028470163753113523 0
          0.7342875748258564 0.0994190726276485 0 0.6427584117149401 0.08010383955358542 0
          0.7443352986593558 0.11936291043027032 0 0.7156572115898626 0.10146552820321854 0
          0.3203764192104147 0.012130428049994445 0 0.5695734309599927 0.050494980404504425 0
          0.44453220376408015 0.003925926500281659 0 0.6009303643302955 0.09030971651176195 0
          0 0 0 0.6201737437403954 0.08458277109865911 0
          0.7370344017660753 0.15835026535129035 0 0.7589426702298177 0.1553170654043971 0
          0 0 0 0.7805754516274124 0.19155144861417545 0
          0.6535570187626846 0.1398601001600081 0 0.3207658043053998 0.010491737057725423 0
          0.564485389748368 0.0852339021848199 0 0.20033041063476603 0.0053883925002568105 0
          0 0 0 0.46321111351799377 0.05386219511057633 0
          0.7663267295617268 0.18320880195548472 0 0.7596144518082876 0.22663360141400904 0
          0.8294951077359437 0.24629871930985697 0 0.6804056870913507 0.21050105078262812 0
          0.5147290182049398 0.0981765467506681 0 0.8151817998523242 0.28440355217824537 0
          0.30529814605222844 0.026685913701832105 0 0.46037624366075686 0.024715409986902 0
          0.7951301321951451 0.1533128960399212 0 0.8786178994352182 0.2757494723112222 0
          0.5539390114087942 0.1683837933704163 0 0.6938371943343264 0.29119935820143533 0
          0.8729669644652102 0.3425110897103762 0 0.344479514399846 0.049851532839490266 0
          0.801924324466699 0.370260443358999 0 0.5903633598756584 0.2545796057021176 0
          0 0 0 0.9503888474290817 0.36363142505673174 0
          0.7084829715785187 0.37233818408019037 0 0.1821176927427931 0.01153151253655941 0
          0.9841001495172199 0.23721859641015522 0 0.3661753437193311 0.09374609927433164 0
          0.45496113383968095 0.1907648490198698 0 0.8762196073064376 0.42304739262076757 0
          0.5927607315138552 0.33210406211227783 0 0 0 0
          0.7473736897553549 0.10272226148157854 0 0.4677565422251356 0.2663959613855612 0
          0.7450530779275659 0.4620124650425449 0 1.0548557561161271 0.35834124702023457 0
          0.9668029198919 0.4618746014367379 0 0.32215003131629516 0.12556358894730593 0
          0.20968276970729627 0.036493447949886806 0 0.567850681409745 0.4106006568567128 0
          0.8523972871428567 0.5112025853955392 0 1.1170177338434166 0.286316125704811 0
          0.46439470370279096 0.3405279304999244 0 0.7284215348680464 0.5118554589598636 0
          0.3381427113254536 0.18860504094421932 0 0.23966035931014984 0.06439207722457879 0
          1.0349870336045863 0.19328407326444885 0 0.6091202864657654 0.49335738888118374 0
          0.9627842940113404 0.5215868506916662 0 0.3399147106295616 0.2583137221690847 0
          0 0 0 0.8326116708719911 0.08447165557994782 0
          1.1911563952448545 0.3822061322897434 0 0.7911592358416423 0.5621290319377368 0
          0.43857179718989797 0.4189282896570652 0 0.6422621279159132 0.5514952721232739 0
          1.2246371937222402 0.27613978803605466 0 0.22828351390920604 0.11892734307951605 0
          0.31207433237302573 0.3048993605958479 0 0.11906446985390193 0.016228912206493164 0
          0.23983760486193023 0.18239880745478626 0 0.4773308255469639 0.010996049385909427 0
          0.9337863053222323 0.5620728002918832 0 0.4223163513913726 0.4760841537418988 0
          1.1486922251928826 0.47155914643436214 0 0.24314741659889247 0.24429591737345047 0
          0.6972761813154184 0.5851171458381741 0 0.27833971067890556 0.3447301854276381 0
          1.1689594085848634 0.14228387317473698 0 1.2948313106816882 0.33096392108145023 0
          0.13661964228204446 0.04355561288546389 0 0.5220069881395932 0.5561577969384757 0
          0.8064018244029741 0.5696886599482576 0 0.20056699426064498 0.26569627259891476 0
          0.3255377086659804 0.4530631886443455 0 1.082067093268809 0.4847470800918618 0
          0.9178540907434821 0.029088262835235718 0 0.1323252808648275 0.07030640599700481 0
          0.5572773956266349 0.5562160470251583 0 0.21646293586385978 0.34549117518580635 0
          1.271137859089526 0.3578045311022234 0 1.348118598253049 0.19602385856483653 0
          0.13845828396457247 0.12221166520040595 0 0 0 0
          0.15077435806700948 0.1901356566645352 0 0.326811412310892 0.479113673087924 0
          1.3563642456425191 0.25964678063931185 0 0.1670688484605788 0.27714262673464324 0
          0.057363098417833915 0.008082980060412604 0 0.6567392959062339 0.5061642512900946 0
          0.1554706268944117 0.3262041114563656 0 0.9883804593250813 0.42311749721251707 0
          0.3640537599138591 0.4544959285022686 0 0.10895191729765127 0.1941826362405347 0
          1.1810936403978385 0.33979060708416864 0 0.07584807169426683 0.03041611111717856 0
          0.10042074877039747 0.1273138309823032 0 1.250180100445477 0.059942345191348355 0
          1.3158863525641404 0.25603753175228616 0 0.1626880052579793 0.3417064154653586 0
          0.08344004977690768 0.18873836657050677 0 1.4027386990969901 0.15674035055597293 0
          0.42929105020865616 0.3576489836734354 0 0.08373799726932951 0.09295520000900344 0
          0.07389655655179765 0.23926657407034024 0 0.06826602277761395 0.0428887424714992 0
          0.7665565273726829 0.3080882957422255 0 0.07661880924456937 0.12583491390881896 0
          0.06773028978313277 0.20417423773817947 0 0.0708578411676833 0.2058409905417017 0
          0 0 0 0.08466484328599243 0.21595330601697554 0
          0.9965126046108146 0.2546964841480812 0 1.4001445928215375 0.08356179860401074 0
          1.1958252824311602 0.21235287908303302 0 0.041037279512002665 0.15387280794004338 0
          0.05699581720767704 0.055382540528919603 0 0.04639848901567255 0.1175384864115191 0
          0.9257044668251352 0.007894889490429968 0 0.0321036805246529 0.13557364604568 0
          0.02161688184834386 0.12031495910721389 0 0 0 0
          0.052885863537286186 0.08296804277391899 0 0.4024658543840887 0.07076174264071378 0
          0 0 0 0.7078929648068688 0.11323936623272517 0
          0 0 0 0.017516315563116835 0.09099203369952531 0
          0.02891022154490186 0.10511348687809088 0 0.03722286207011165 0.013355126624875773 0
          1.329928549003862 0.07359740133293442 0 0 0 0
          0.011040407025524385 0.06727185415511472 0 0.03992487807282365 0.053644258280340466 0
          0.9292033038593661 0.07730506900249835 0 0.03156327510468599 0.07255001769735335 0
          0 0 0 0.01837457520140096 0.07441224794115489 0
          0 0 0 1.4148955260264984 0.016220681487492228 0
          0.35508951308347775 0.028131332171294366 0 0.006591018344384505 0.05405178887248283 0
          1.131357658232875 0.03273354963470205 0 0.01772749276193075 0.06483534107886117 0
          0.6751045834191178 0.04068033659545214 0 0.030159891786402476 0.021491603816786546 0
          0 0 0 0.006772439451619817 0.04187513846477036 0
          1.4067416801132826 -0.020774143372763437 0 0 0 0
          0 0 0 0.013235150655289955 0.04478719077926748 0
          0.023515666011107095 0.024802275084829704 0 0.00476931647042585 0.03336515483056684 0
          0.01811661336688413 0.03825380882792975 0 0.3359999559225711 0.0004420646144952881 0
          0.012240731049355207 0.03794946141262074 0 0 0 0
          1.255079755447428 -0.0408944634846838 0 0.6599698873566627 -0.02100841753972298 0
          0.9413659876821463 -0.05106880211762759 0 0.004297275669805293 0.025472886733622323 0
          1.1537856264037947 -0.08729745790388647 0 0.0162311379722947 0.005544186173694673 0
          0 0 0 0 0 0
          0.013790430537725287 0.021918533246376375 0 0 0 0
          1.3146435947393214 -0.105785962380878 0 0.007819535856379158 0.024592953367813884 0
          0.003590853188718222 0.01918560397547499 0 0.3415385752408459 -0.025710565223955997 0
          0 0 0 1.393384811439151 -0.11467990470826318 0
          0.007416428467726144 0.01884319739485327 0 0.6735195550936904 -0.11839736423678035 0
          0.010892232301987995 0.009400853561084098 0 0.0028049855130181135 0.013638627164300988 0
          0 0 0 0.9255934545227203 -0.16148034781953158 0
          0.0046186191302194255 0.014272727013542147 0 1.3757711281122351 -0.11476809210155749 0
          0 0 0 0.0024296657628019294 0.009765167618033976 0
          1.129016686000964 -0.1866644853024836 0 0 0 0
          0 0 0 0.3888306462856168 -0.16587246972865763 0
          0.005829958293231728 0.007439442369145232 0 0.004549324490808067 0.009175542430429786 0
          0.9463330182716839 -0.04477746120475033 0 0.001424292168124356 0.006329732113256674 0
          1.2800851574334358 -0.1945331963807935 0 1.2127521201178892 -0.08879793031934081 0
          0.005784915034571746 0.0019414062389851482 0 0 0 0
          0 0 0 0.6680971093877186 -0.228887617711017 0
          0 0 0 0 0 0
          0.00084082079680761 0.004320413530954402 0 0.04562865390229974 -0.07138187098407137 0
          0 0 0 0.002531520173814524 0.0050252311425192505 0
          1.3575297425527977 -0.19497663960450548 0 0.8974177505500917 -0.2597073915217797 0
          0.003183908972103829 0.002418218469663579 0 0 0 0
          0.025700416178670287 -0.03090508116864364 0 0.000980221689606974 0.002433283088670411 0
          0.0021355064568269458 0.002967938962299545 0 0 0 0
          0.014747138393201926 -0.005972934893051013 0 0 0 0
          0.30753695174309914 -0.2024338655915417 0 1.325317513331028 -0.16965732919295037 0
          0.0009422567370034674 0.0016516546942494145 0 1.0563146835744666 -0.29031158420299086 0
          0.006156208372475401 0.010909129338231266 0 0.0017822566806084516 0.00041848760541099433 0
          0.0007201755836670851 0.0013045730848648565 0 0 0 0
          0 0 0 0.1008263883208014 -0.10193477742255214 0
          0 0 0 0.0020689991918687277 0.016344185374930938 0
          0 0 0 1.226775733391796 -0.28111326716965374 0
          0.06353028682299201 -0.053281020900820146 0 0.0009333212297926458 0.0006594173184856716 0
          0 0 0 0.0003215256723544978 0.0004115866886376389 0
          0.2564893017807085 -0.0075300791151186935 0 0.5360004671898924 -0.2731298188439838 0
          0.0011926892003031814 0.019475936863617288 0 1.1663153741880699 -0.13856536407642434 0
          0 0 0 0 0 0
          0.0009308183147204802 0.020568532720769264 0 0.0001768860530708047 0.00011036130192688032 0
          0.2882081614665358 -0.2026928678388468 0 0.016510828107466794 0.000666614851187748 0
          0.051391614457147315 -0.03240600632473957 0 0.769465865736808 -0.31576066537175473 0
          0 0 0 1.2928620430269822 -0.25283408368124755 0
          0.13760209042204305 -0.11162843540805507 0 -0.000009146506563134687 0.021541108847379673 0
          0 0 0 0.00998077293995321 0.01515418617777179 0
          0 0 0 0 0 0
          0.0042196886836005695 0.023941885231386864 0 0.00009366575575251643 -0.00015533781843147078 0
          -0.0006435683168409423 0.020920793014345462 0 0.0036768815830925347 0.028500974582647512 0
          0.7978605477957392 -0.08970185779756158 0 0 0 0
          0 0 0 0.4777817767396667 -0.2722541945500356 0
          -0.0005586946052039408 0.020055966307816815 0 0.9387078654570232 -0.33197184101011024 0
          1.250744115527028 -0.2206951495121941 0 0 0 0
          0.033400933981983974 -0.006429396101999812 0 0 0 0
          0.3043211611662025 -0.20557468808835222 0 -0.00034212067543272484 0.03297065605499468 0
          0 0 0 -0.0009069984930189116 0.01864857373799981 0
          0.012326666644570593 0.02572890943044297 0 0 0 0
          -0.000887615148922648 0.0337950545839211 0 0.15682489248318124 -0.1099159470254513 0
          0 0 0 -0.0012112485050119073 0.016910149606096294 0
          0 0 0 -0.0020739979181170847 0.03036862250048849 0
          0.6567925138125843 -0.3150594037754791 0 0 0 0
          -0.0014836704607654155 0.014443043416191846 0 -0.002768420510451159 0.028270606207951035 0
          1.0972580242439827 -0.15960215228279875 0 0.4656616281500258 -0.26457519374008037 0
          0.0027342381945580684 0.036042969447731686 0 0 0 0
          -0.0016786691453896541 0.011796386931024213 0 1.2170252934637815 -0.2959472827131158 0
          0.04971649684615963 -0.012694971040114746 0 -0.004948583693056394 0.027138014635833856 0
          1.0440307557883894 -0.35292429478623566 0 0.2973498765607263 -0.1906833929527212 0
          0 0 0 -0.001451942593728655 0.009282119313278972 0
          -0.004621780542697533 0.03745281264471868 0 0.1337637536608057 -0.08496543869121052 0
          -0.00543428279068921 0.02293569147119857 0 0.027174932614701854 0.010281859137258155 0
          0.8177712149291043 -0.3458962450603252 0 0 0 0
          -0.0013817894665763253 0.0067703635997612595 0 -0.004795090972409049 0.017486071145007713 0
          0.6250065569337003 -0.3023184719616104 0 0.7167039525794531 -0.08061377284726243 0
          0 0 0 -0.0013533683818496875 0.004445129332703545 0
          -0.01097692948271098 0.030154614864247656 0 -0.005150525986038436 0.014286666892915452 0
          0.0032059836636138157 0.02972743730917361 0 0.4515097389393825 -0.24616730509629867 0
          0.07187247184463247 -0.03784675636018255 0 0 0 0
          -0.0011546183818589694 0.0023385621017840974 0 1.1135116155516276 -0.3439477990121943 0
          -0.004817710430726269 0.010143262828404744 0 -0.011281082707596757 0.02293452687519235 0
          0.29518006182381196 -0.17829857288994955 0 1.1624931784179031 -0.288929276601762 0
          0 0 0 0.9587029566360821 -0.3488387564610565 0
          -0.004368436379289101 0.0066336737087616246 0 -0.00046666035831444873 0.0005788625868439238 0
          0.0403820438728844 -0.005757300720220573 0 -0.01075081853353904 0.015616338169760803 0
          0.15051541091966528 -0.09673621468163773 0 -0.00317335537830058 0.0034485034754824966 0
          0.6736868237663083 -0.30416819223332936 0 -0.013639788616010926 0.02347383731919639 0
          0 0 0 1.0262600637888684 -0.20244572248091205 0
          0.3239777257212759 -0.017516310446918745 0 -0.00822626548189011 0.007321149869267796 0
          -0.019477457183108088 0.0208511624041804 0 -0.017224309425644055 0.017070424923715886 0
          0.09693642704107565 -0.055874489691665 0 0.4240986023231367 -0.23309910814424312 0
          0 0 0 -0.0036997756631374 0.0016968723306672487 0
          1.0520011556071829 -0.31162918449475074 0 -0.003038221183028434 -0.004676440922116038 0
          -0.0162086540085977 0.009243190774115395 0 -0.021131176174347316 0.00900992820982826 0
          0.8269445699673814 -0.3135476024396196 0 0.19533900392426146 -0.1285980191036899 0
          0.5659424536489309 -0.07258496673904827 0 -0.024113053527735663 0.010814134093762324 0
          0 0 0 -0.009498111395115784 0.0026553842129760437 0
          0.5635433147724872 -0.27201935102155356 0 1.1039654414783666 -0.25965809791732875 0
          0.04045416548962808 -0.049552188747458085 0 0.3396538410378622 -0.20415974986161695 0
          -0.009346368020431666 -0.015154018460002031 0 -0.023638165317450898 -0.0009160490167273695 0
          -0.016761416906990796 0.002273619863557595 0 0.9872390234918461 -0.3032778847655764 0
          0 0 0 -0.022937021030970787 0.0032982577974661332 0
          0.748853741707556 -0.31913018736563387 0 0.48179114758932123 -0.2676846368750571 0
          0 0 0 0.12272289277356745 -0.11440451530417037 0
          0.023243002812394435 -0.05344287994069061 0 0.9908261224278293 -0.09040608099469351 0
          -0.009622989775484496 -0.024012402306114938 0 -0.016624667879588103 0.0011572225233285713 0
          -0.01914275887275374 -0.00668549506751393 0 0.26791928518564545 -0.2069014209502849 0
          0 0 0 1.0052318387986365 -0.3713916787089632 0
          -0.013890121965285133 -0.000013570897578636183 0 0.08913208250379713 -0.12447087448418258 0
          0.018530477702033202 -0.0544711623946345 0 0.5603599309321411 -0.408590240154718 0
          -0.002942374185706176 -0.016194265398562044 0 0.23165473707858697 -0.27777236753048057 0
          0 0 0 0.022281930135660783 -0.035049001929535674 0
          0.08477439786855297 -0.10734526136559884 0 0 0 0
          <InformationKey name="L2_NORM_RANGE" location="vtkDataArray" length="2">
            <Value index="0">
              0
            </Value>
            <Value index="1">
              1.4149885017
            </Value>
          </InformationKey>
        </DataArray>
        <DataArray type="Float64" Name="Pressure" format="ascii" RangeMin="-8.287509012469823" RangeMax="36.942403475693375">
          36.28279345576453 36.44081927142855 36.767034489974044 36.21752124054757 36.03513209947885 36.808486444351736
          36.08004834239226 35.52841616638654 35.388472404141496 34.62499474663967 36.13087990754675 34.41181777987512
          36.942403475693375 35.3391303028049 34.42191050476123 33.62282699483532 33.471398027830936 34.53295235192151
          36.51683533707371 35.57295899778277 33.336730239973335 34.78992525491821 32.40850067684783 36.907225135016034
          33.53415247356506 32.24417584489594 32.36241674254722 33.95978027562927 31.483068557657194 34.9577529218962
          35.93217749507196 30.928261796124747 36.72751185671397 34.22836078378411 33.12757865964852 31.210443550814848
          30.402721579992324 31.624569590883453 33.57921989872062 35.21356643740641 29.55394568491513 35.62415578950415
          36.74786880124416 34.39314690462934 29.716494912482563 32.19383065476637 30.208504227853364 32.861619712589125
          33.902812594256936 30.83295850703407 34.507130772014115 27.602168805652898 27.92923006468196 28.575449164551994
          33.45991744508284 32.13804865704827 29.41494402293929 34.02901354177029 30.293897912909326 32.84631953778516
          34.73707249011339 27.58975051237099 31.244937062019307 34.115797245754415 25.921708651115733 33.80342443709153