<?xml version="1.0"?>
<VTKFile type="UnstructuredGrid" version="0.1" byte_order="LittleEndian" header_type="UInt32" compressor="vtkZLibDataCompressor">
  <UnstructuredGrid>
    <Piece NumberOfPoints="418" NumberOfCells="757">
      <PointData>
        <DataArray type="Float64" Name="nsi_BC" NumberOfComponents="3" format="ascii" RangeMin="0" RangeMax="1">
          0 0 0 0 0 0
          0 0 0 0 0 0
          0 0 0 1 0 0
          0 0 0 0 0 0
          0 0 0 0 0 0
          0 0 0 0 0 0
          0 0 0 0 0 0
          0 0 0 0 0 0
          0 0 0 0 0 0
          0 0 0 0 0 0
          0 0 0 0 0 0
          0 0 0 0 0 0
          0 0 0 0 0 0
          0 0 0 0 0 0
          0 0 0 0 0 0
          0 0 0 0 0 0
          0 0 0 0 0 0
          0 0 0 0 0 0
          0 0 0 0 0 0
          0 0 0 0 0 0
          0 0 0 0 0 0
          0 0 0 0 0 0
          0 0 0 0 0 0
          0 0 0 0 0 0
          0 0 0 0 0 0
          0 0 0 0 0 0
          0 0 0 0 0 0
          0 0 0 0 0 0
          0 0 0 0 0 0
          0 0 0 0 0 0
          0 0 0 0 0 0
          0 0 0 0 0 0
          0 0 0 0 0 0
          0 0 0 0 0 0
          0 0 0 0 0 0
          0 0 0 0 0 0
          0 0 0 0 0 0
          0 0 0 0 0 0
          0 0 0 0 0 0
          0 0 0 0 0 0
          0 0 0 0 0 0
          0 0 0 0 0 0
          0 0 0 0 0 0
          0 0 0 0 0 0
          0 0 0 0 0 0
          0 0 0 0 0 0
          0 0 0 0 0 0
          0 0 0 0 0 0
          0 0 0 0 0 0
          0 0 0 0 0 0
          0 0 0 0 0 0
          0 0 0 0 0 0
          0 0 0 0 0 0
          0 0 0 0 0 0
          0 0 0 0 0 0
          0 0 0 0 0 0
          0 0 0 0 0 0
          0 0 0 0 0 0
          0 0 0 0 0 0
          0 0 0 0 0 0
          0 0 0 0 0 0
          0 0 0 0 0 0
          0 0 0 0 0 0
          0 0 0 0 0 0
          0 0 0 0 0 0
          0 0 0 0 0 0
          0 0 0 0 0 0
          0 0 0 0 0 0
          0 0 0 0 0 0
          0 0 0 0 0 0
          0 0 0 0 0 0
          0 0 0 0 0 0
          0 0 0 0 0 0
          0 0 0 0 0 0
          0 0 0 0 0 0
          0 0 0 0 0 0
          0 0 0 0 0 0
          0 0 0 0 0 0
          0 0 0 0 0 0
          0 0 0 0 0 0
          0 0 0 0 0 0
          0 0 0 0 0 0
          0 0 0 0 0 0
          0 0 0 0 0 0
          0 0 0 0 0 0
          0 0 0 0 0 0
          0 0 0 0 0 0
          0 0 0 0 0 0
          0 0 0 0 0 0
          0 0 0 0 0 0
          0 0 0 0 0 0
          0 0 0 0 0 0
          0 0 0 0 0 0
          0 0 0 0 0 0
          0 0 0 0 0 0
          0 0 0 0 0 0
          0 0 0 0 0 0
          0 0 0 0 0 0
          0 0 0 0 0 0
          0 0 0 0 0 0
          0 0 0 0 0 0
          0 0 0 0 0 0
          0 0 0 0 0 0
          0 0 0 0 0 0
          0 0 0 0 0 0
          0 0 0 0 0 0
          0 0 0 0 0 0
          0 0 0 0 0 0
          0 0 0 0 0 0
          0 0 0 0 0 0
          0 0 0 0 0 0
          0 0 0 0 0 0
          0 0 0 0 0 0
          0 0 0 0 0 0
          0 0 0 0 0 0
          0 0 0 0 0 0
          0 0 0 0 0 0
          0 0 0 0 0 0
          0 0 0 0 0 0
          0 0 0 0 0 0
          0 0 0 0 0 0
          0 0 0 0 0 0
          0 0 0 0 0 0
          0 0 0 0 0 0
          0 0 0 0 0 0
          0 0 0 0 0 0
          0 0 0 0 0 0
          0 0 0 0 0 0
          0 0 0 0 0 0
          0 0 0 0 0 0
          0 0 0 0 0 0
          0 0 0 0 0 0
          0 0 0 0 0 0
          0 0 0 0 0 0
          0 0 0 0 0 0
          0 0 0 0 0 0
          0 0 0 0 0 0
          0 0 0 0 0 0
          0 0 0 0 0 0
          0 0 0 0 0 0
          0 0 0 0 0 0
          0 0 0 0 0 0
          0 0 0 0 0 0
          0 0 0 0 0 0
          0 0 0 0 0 0
          0 0 0 0 0 0
          0 0 0 0 0 0
          0 0 0 0 0 0
          0 0 0 0 0 0
          0 0 0 0 0 0
          0 0 0 0 0 0
          0 0 0 0 0 0
          0 0 0 0 0 0
          0 0 0 0 0 0
          0 0 0 0 0 0
          0 0 0 0 0 0
          0 0 0 0 0 0
          0 0 0 0 0 0
          0 0 0 0 0 0
          0 0 0 0 0 0
          0 0 0 0 0 0
          0 0 0 0 0 0
          0 0 0 0 0 0
          0 0 0 0 0 0
          0 0 0 0 0 0
          0 0 0 0 0 0
          0 0 0 0 0 0
          0 0 0 0 0 0
          0 0 0 0 0 0
          0 0 0 0 0 0
          0 0 0 0 0 0
          0 0 0 0 0 0
          0 0 0 0 0 0
          0 0 0 0 0 0
          0 0 0 0 0 0
          0 0 0 0 0 0
          0 0 0 0 0 0
          0 0 0 0 0 0
          0 0 0 0 0 0
          0 0 0 0 0 0
          0 0 0 0 0 0
          0 0 0 0 0 0
          0 0 0 0 0 0
          0 0 0 0 0 0
          0 0 0 0 0 0
          0 0 0 0 0 0
          0 0 0 0 0 0
          0 0 0 0 0 0
          0 0 0 0 0 0
          0 0 0 0 0 0
          0 0 0 0 0 0
          0 0 0 0 0 0
          0 0 0 0 0 0
          0 0 0 0 0 0
          0 0 0 0 0 0
          0 0 0 0 0 0
          0 0 0 0 0 0
          0 0 0 0 0 0
          0 0 0 0 0 0
          0 0 0 0 0 0
          0 0 0 0 0 0
          0 0 0 0 0 0
          0 0 0 0 0 0
          0 0 0 0 0 0
          0 0 0 0 0 0
          0 0 0 0 0 0
          0 0 0 0 0 0
          0 0 0 0 0 0
          0 0 0 0 0 0
          <InformationKey name="L2_NORM_RANGE" location="vtkDataArray" length="2">
            <Value index="0">
              0
            </Value>
            <Value index="1">
              1
            </Value>
          </InformationKey>
        </DataArray>
        <DataArray type="Float64" Name="nsi_FIXNO" NumberOfComponents="3" format="ascii" RangeMin="1.4142135623730951" RangeMax="1.4142135623730951">
          1 1 0 -1 -1 0
          -1 -1 0 -1 -1 0
          1 1 0 1 1 0
          -1 -1 0 -1 -1 0
          -1 -1 0 -1 -1 0
          -1 -1 0 -1 -1 0
          -1 -1 0 -1 -1 0
          -1 -1 0 1 1 0
          -1 -1 0 -1 -1 0
          -1 -1 0 -1 -1 0
          -1 -1 0 -1 -1 0
          -1 -1 0 -1 -1 0
          -1 -1 0 -1 -1 0
          -1 -1 0 -1 -1 0
          -1 -1 0 -1 -1 0
          -1 -1 0 -1 -1 0
          1 1 0 -1 -1 0
          -1 -1 0 -1 -1 0
          1 1 0 -1 -1 0
          -1 -1 0 -1 -1 0
          -1 -1 0 -1 -1 0
          1 1 0 -1 -1 0
          -1 -1 0 -1 -1 0
          -1 -1 0 -1 -1 0
          -1 -1 0 -1 -1 0
          -1 -1 0 -1 -1 0
          -1 -1 0 -1 -1 0
          -1 -1 0 -1 -1 0
          -1 -1 0 -1 -1 0
          -1 -1 0 -1 -1 0
          1 1 0 -1 -1 0
          -1 -1 0 -1 -1 0
          -1 -1 0 -1 -1 0
          -1 -1 0 -1 -1 0
          -1 -1 0 1 1 0
          -1 -1 0 -1 -1 0
          -1 -1 0 -1 -1 0
          -1 -1 0 -1 -1 0
          -1 -1 0 -1 -1 0
          -1 -1 0 -1 -1 0
          -1 -1 0 -1 -1 0
          -1 -1 0 -1 -1 0
          -1 -1 0 -1 -1 0
          -1 -1 0 -1 -1 0
          1 1 0 -1 -1 0
          -1 -1 0 -1 -1 0
          -1 -1 0 -1 -1 0
          -1 -1 0 -1 -1 0
          -1 -1 0 -1 -1 0
          -1 -1 0 -1 -1 0
          -1 -1 0 -1 -1 0
          -1 -1 0 -1 -1 0
          -1 -1 0 -1 -1 0
          -1 -1 0 -1 -1 0
          -1 -1 0 -1 -1 0
          -1 -1 0 -1 -1 0
          -1 -1 0 -1 -1 0
          -1 -1 0 -1 -1 0
          -1 -1 0 -1 -1 0
          -1 -1 0 -1 -1 0
          -1 -1 0 1 1 0
          -1 -1 0 -1 -1 0
          -1 -1 0 -1 -1 0
          -1 -1 0 -1 -1 0
          -1 -1 0 -1 -1 0
          -1 -1 0 -1 -1 0
          -1 -1 0 -1 -1 0
          -1 -1 0 -1 -1 0
          -1 -1 0 -1 -1 0
          -1 -1 0 -1 -1 0
          -1 -1 0 -1 -1 0
          -1 -1 0 -1 -1 0
          -1 -1 0 -1 -1 0
          -1 -1 0 -1 -1 0
          1 1 0 -1 -1 0
          -1 -1 0 -1 -1 0
          -1 -1 0 -1 -1 0
          -1 -1 0 -1 -1 0
          -1 -1 0 -1 -1 0
          -1 -1 0 1 1 0
          -1 -1 0 -1 -1 0
          1 1 0 -1 -1 0
          1 1 0 -1 -1 0
          -1 -1 0 -1 -1 0
          -1 -1 0 1 1 0
          -1 -1 0 -1 -1 0
          -1 -1 0 -1 -1 0
          1 1 0 -1 -1 0
          1 1 0 -1 -1 0
          -1 -1 0 -1 -1 0
          -1 -1 0 -1 -1 0
          -1 -1 0 -1 -1 0
          1 1 0 -1 -1 0
          -1 -1 0 1 1 0
          1 1 0 -1 -1 0
          -1 -1 0 -1 -1 0
          -1 -1 0 -1 -1 0
          -1 -1 0 1 1 0
          -1 -1 0 -1 -1 0
          -1 -1 0 -1 -1 0
          -1 -1 0 -1 -1 0
          1 1 0 1 1 0
          -1 -1 0 1 1 0
          -1 -1 0 -1 -1 0
          -1 -1 0 -1 -1 0
          1 1 0 -1 -1 0
          -1 -1 0 -1 -1 0
          -1 -1 0 -1 -1 0
          1 1 0 -1 -1 0
          -1 -1 0 -1 -1 0
          1 1 0 -1 -1 0
          -1 -1 0 1 1 0
          1 1 0 -1 -1 0
          -1 -1 0 -1 -1 0
          -1 -1 0 -1 -1 0
          -1 -1 0 -1 -1 0
          -1 -1 0 1 1 0
          1 1 0 -1 -1 0
          1 1 0 1 1 0
          -1 -1 0 -1 -1 0
          1 1 0 -1 -1 0
          -1 -1 0 -1 -1 0
          -1 -1 0 1 1 0
          -1 -1 0 -1 -1 0
          -1 -1 0 1 1 0
          -1 -1 0 1 1 0
          -1 -1 0 -1 -1 0
          -1 -1 0 -1 -1 0
          -1 -1 0 -1 -1 0
          -1 -1 0 1 1 0
          1 1 0 -1 -1 0
          1 1 0 -1 -1 0
          1 1 0 -1 -1 0
          -1 -1 0 -1 -1 0
          1 1 0 -1 -1 0
          -1 -1 0 -1 -1 0
          -1 -1 0 -1 -1 0
          1 1 0 1 1 0
          -1 -1 0 -1 -1 0
          -1 -1 0 -1 -1 0
          -1 -1 0 -1 -1 0
          1 1 0 -1 -1 0
          -1 -1 0 -1 -1 0
          1 1 0 -1 -1 0
          1 1 0 1 1 0
          -1 -1 0 -1 -1 0
          -1 -1 0 -1 -1 0
          -1 -1 0 1 1 0
          1 1 0 -1 -1 0
          -1 -1 0 -1 -1 0
          -1 -1 0 1 1 0
          -1 -1 0 1 1 0
          -1 -1 0 -1 -1 0
          1 1 0 -1 -1 0
          -1 -1 0 1 1 0
          -1 -1 0 -1 -1 0
          1 1 0 -1 -1 0
          1 1 0 -1 -1 0
          -1 -1 0 1 1 0
          -1 -1 0 -1 -1 0
          -1 -1 0 -1 -1 0
          -1 -1 0 1 1 0
          -1 -1 0 -1 -1 0
          -1 -1 0 -1 -1 0
          -1 -1 0 -1 -1 0
          1 1 0 -1 -1 0
          -1 -1 0 -1 -1 0
          -1 -1 0 -1 -1 0
          -1 -1 0 1 1 0
          -1 -1 0 -1 -1 0
          -1 -1 0 -1 -1 0
          1 1 0 -1 -1 0
          -1 -1 0 -1 -1 0
          -1 -1 0 -1 -1 0
          -1 -1 0 1 1 0
          -1 -1 0 -1 -1 0
          -1 -1 0 -1 -1 0
          -1 -1 0 -1 -1 0
          1 1 0 -1 -1 0
          -1 -1 0 -1 -1 0
          -1 -1 0 -1 -1 0
          -1 -1 0 -1 -1 0
          -1 -1 0 -1 -1 0
          1 1 0 -1 -1 0
          -1 -1 0 -1 -1 0
          -1 -1 0 -1 -1 0
          -1 -1 0 -1 -1 0
          1 1 0 -1 -1 0
          -1 -1 0 -1 -1 0
          -1 -1 0 -1 -1 0
          -1 -1 0 -1 -1 0
          -1 -1 0 -1 -1 0
          1 1 0 -1 -1 0
          -1 -1 0 -1 -1 0
          -1 -1 0 -1 -1 0
          -1 -1 0 -1 -1 0
          -1 -1 0 -1 -1 0
          1 1 0 -1 -1 0
          -1 -1 0 -1 -1 0
          1 1 0 -1 -1 0
          -1 -1 0 -1 -1 0
          -1 -1 0 -1 -1 0
          -1 -1 0 -1 -1 0
          1 1 0 -1 -1 0
          -1 -1 0 -1 -1 0
          -1 -1 0 -1 -1 0
          -1 -1 0 -1 -1 0
          1 1 0 -1 -1 0
          -1 -1 0 1 1 0
          <InformationKey name="L2_NORM_RANGE" location="vtkDataArray" length="2">
            <Value index="0">
              1.4142135624
            </Value>
            <Value index="1">
              1.4142135624
            </Value>
          </InformationKey>
        </DataArray>
        <DataArray type="Float64" Name="Velocity" NumberOfComponents="3" format="ascii" RangeMin="0" RangeMax="1.4146322172975696">
          0 0 0 0.3185125727491652 0.024340913971387646 0
          0.7323009148451903 0.10034480976731215 0 0.5147989750023385 0.036628983613639 0
          0 0 0 1 0 0
          0.7174845575408445 0.026302862006257057 0 0.3693929044453704 0.02164401686535118 0
          0.6434895898377282 0.03785797718561173 0 0.3113963335437074 0.004839167096611778 0
          0.6664925930142296 0.02875661584157186 0 0.5614776827548633 0.0326763925272094 0
          0.7022618974079401 -0.09756637785913833 0 0.7198063687036826 0.03259587347286 0
          0.6853422299132387 0.04691515533999234 0 0 0 0
          0.5046539131249601 0.0266159998898727 0 0.7266574767077421 0.05974808178193453 0
          0.6053535501326452 -0.004625677209121493 0 0.6492657831781222 0.04307795118844158 0
          0.6598312901262697 0.05726572651177581 0 0.6873147042910897 0.062382476120912585 0
          0.4230960805803151 0.03642661181925219 0 0.3486616028401817 -0.028462871093792887 0
          0.7322824851570227 0.09793211370785115 0 0.6413561488688377 0.0799465183220518 0
          0.7417391820222156 0.11872721036310657 0 0.7142875156015419 0.09889894384069892 0
          0.32018465857980016 0.012137648509280764 0 0.5701541498476206 0.048364287065299834 0
          0.44467176373953643 0.0033559696918851914 0 0.5999808364785518 0.0903971039468726 0
          0 0 0 0.6205489809194391 0.08170487475512075 0
          0.7343422160166162 0.15645412209729156 0 0.7564482248623092 0.155201542984262 0
          0 0 0 0.7771652790902905 0.19120482091389213 0
          0.6527712714938979 0.13750192925680518 0 0.3217156189453951 0.009817921201105105 0
          0.5641124146385841 0.08541174805875268 0 0.20062314610392767 0.005276419220142558 0
          0 0 0 0.4651487045066548 0.05172120241831998 0
          0.7644645356870585 0.18350605676535864 0 0.756286975953258 0.22588157404640485 0
          0.8262626087208803 0.24663847789741025 0 0.6782864054957597 0.20949755520414912 0
          0.5166901125573721 0.09605355101821719 0 0.8113503452002209 0.28475765371883754 0
          0.307474203214082 0.025609668333112574 0 0.46047538921592107 0.02477079967163844 0
          0.7942103896066536 0.15369742347853016 0 0.8761047014824824 0.27651166195541926 0
          0.5546578042220636 0.16738187011562286 0 0.691154705275308 0.2917794927046917 0
          0.8694817984701232 0.34361679883044294 0 0.34800577200277966 0.04879009032849647 0
          0.7983811691980643 0.37170688808037716 0 0.5894857133800486 0.25514993824447485 0
          0 0 0 0.9476537856131343 0.36496585883866517 0
          0.7057749909063775 0.3742265141556981 0 0.18445540875584499 0.01122762955988695 0
          0.9830957152749104 0.23792437762584423 0 0.37010870282563696 0.09322730801465053 0
          0.4567892549461714 0.19146619970812742 0 0.873053316549069 0.4249972038829408 0
          0.5912240123088623 0.3342136965456414 0 0 0 0
          0.7477241541477265 0.10295373467581698 0 0.4683061357216705 0.2685011594906323 0
          0.7422736667023048 0.464676805292609 0 1.0530716866591123 0.35959673598512093 0
          0.9643002446132611 0.46381929096046987 0 0.3257671986737001 0.12649279268661467 0
          0.21346679765059398 0.036275685069498756 0 0.5663668508412644 0.4138081602626499 0
          0.8498402761670235 0.5138179408023186 0 1.1161790195243826 0.2871265966637514 0
          0.46411595394067323 0.3438085062281036 0 0.726159960696255 0.5149648772616556 0
          0.3406736799062735 0.19073711242752106 0 0.24388621184332987 0.0647637830555062 0
          1.0349197660359397 0.19369321471547646 0 0.6074004909493115 0.49691027869448223 0
          0.9607609694497041 0.52388985640198 0 0.34124530238786455 0.2615353534744468 0
          0 0 0 0.8331899413267687 0.08459188580514565 0
          1.1899801708864501 0.3832855973989261 0 0.7892778715767688 0.5650683129559472 0
          0.43784512283805976 0.4229018388995059 0 0.6407150691017723 0.5548882728200333 0
          1.2242305605494683 0.27665502539195436 0 0.2317134057975253 0.12078726258865993 0
          0.31269819149759714 0.3088612631948163 0 0.12213942641330437 0.01638994727441227 0
          0.24228614884277438 0.18539848978356382 0 0.4777907668434177 0.010979681106811214 0
          0.9323919402160513 0.5643004560095832 0 0.4215055832886264 0.4800245689463381 0
          1.1474745896611611 0.47288317629981746 0 0.244520550879681 0.24812209474870636 0
          0.6960540354841692 0.5880259742101568 0 0.27846154695587094 0.34891788614310015 0
          1.1691760077929478 0.14224556679245537 0 1.2940985899736546 0.331447314792266 0
          0.14021270694836374 0.04433812910699216 0 0.5210640077847675 0.5594412293718846 0
          0.8054918357877345 0.5717838417511356 0 0.20129949627196045 0.2697583531138107 0
          0.32501794893348757 0.4566287877225216 0 1.0811386179850175 0.48601041641335385 0
          0.9184338184958276 0.02889628502271352 0 0.13553156723485482 0.07187587583045185 0
          0.5565856528497867 0.5587280694851631 0 0.21642847465868856 0.3494200561570987 0
          1.2704109657037075 0.3582598647314577 0 1.347936473181522 0.1958112889034889 0
          0.14074649254111257 0.1250024990408891 0 0 0 0
          0.15198951399203844 0.19378438504077938 0 0.32634849739611244 0.48196809776268695 0
          1.355846660354674 0.2596286055275496 0 0.1673467228417049 0.28101321071898067 0
          0.0591915043844913 0.008282014223384843 0 0.6562680128815326 0.5077698008347135 0
          0.1553177942476185 0.32929478161226156 0 0.9877627856434087 0.4239574893444381 0
          0.3637497434298975 0.4563924676926618 0 0.10957548024941473 0.19777331986960603 0
          1.1804823334839518 0.34009024534088506 0 0.07840002188250406 0.031208723509354042 0
          0.10197493199979707 0.13033413698809002 0 1.250350795866496 0.059325491096297325 0
          1.3153605011143812 0.25586152006156604 0 0.16249109592831512 0.3437842954863508 0
          0.08368931712234091 0.19194969909553833 0 1.4023659066923393 0.15596644257389145 0
          0.42913809361308114 0.3585541801963026 0 0.08537293956555797 0.09544573072813294 0
          0.07382920142942986 0.24130155613964002 0 0.07054821328886669 0.04410016434162404 0
          0.7661666436060165 0.30853353711214987 0 0.07754686587301754 0.12891812776142533 0
          0.06777676617500064 0.20684171725803113 0 0.07085663302628857 0.20808168572499722 0
          0 0 0 0.0845933906202818 0.21700872326100087 0
          0.9960425362150036 0.2547791363410214 0 1.399823764825574 0.08247504442217578 0
          1.1953710731754155 0.21203434085561718 0 0.041001723960903236 0.15501773823362924 0
          0.05865259682230289 0.05717998530563357 0 0.04677809376930081 0.12027950974513937 0
          0.9259314746071755 0.0074628008449017375 0 0.03217857443627917 0.13777075626904078 0
          0.021606753543955654 0.12149414407603999 0 0 0 0
          0.05390085967911645 0.08543563518577248 0 0.40217372657377437 0.0707461541375551 0
          0 0 0 0.7075135454920836 0.11314506427707706 0
          0 0 0 0.017522214288707087 0.09217005020503712 0
          0.029036996024468947 0.10721917656928708 0 0.038732289606126506 0.013769504664741005 0
          1.3296714845950393 0.07234064809783781 0 0 0 0
          0.011064188781374985 0.06842695111353043 0 0.04101658093760232 0.0555425877520079 0
          0.9289150173988789 0.07683647753778645 0 0.032048100226895145 0.0747684554603177 0
          0 0 0 0.018532645588454497 0.07622278032632654 0
          0 0 0 1.4145585707396018 0.014434686119662365 0
          0.3548411126451583 0.028088664163200033 0 0.006617013006955622 0.055166741134797824 0
          1.1312081429101164 0.03167288143137134 0 0.017910157678475966 0.06665557648674812 0
          0.674889104398873 0.040414613476036074 0 0.031469662553098944 0.022273407923883128 0
          0 0 0 0.0068164401550364255 0.0429269886818334 0
          1.4062117747986882 -0.022740728500907234 0 0 0 0
          0 0 0 0.013445886715093931 0.046279434862987086 0
          0.0244750814682149 0.02586037312469264 0 0.004817678767568969 0.03433623849127454 0
          0.018614498198446263 0.039822809198394316 0 0.3358674408255213 0.00031314914004222 0
          0.012468782083566606 0.039388007177366964 0 0 0 0
          1.2543284638361323 -0.04249639017455384 0 0.6600015201831425 -0.02156759696582315 0
          0.9415311881294369 -0.05229854841201791 0 0.004354460959871756 0.026354195764971982 0
          1.1539580801302987 -0.08942883265763425 0 0.01703726400101874 0.005773258126575687 0
          0 0 0 0 0 0
          0.01430903359783874 0.02301422165569124 0 0 0 0
          1.3145061548694625 -0.10849649748834987 0 0.008036218799498136 0.025690024664450393 0
          0.0036553734063517443 0.01996048704203003 0 0.34163731744479964 -0.02598525106122079 0
          0 0 0 1.3927780373466319 -0.11773097379317274 0
          0.007642145121017609 0.019785969409741498 0 0.673999438239208 -0.11971546715682083 0
          0.011523922728769965 0.0098591409322432 0 0.002870693215405927 0.014302542899183398 0
          0 0 0 0.9261363612509544 -0.1637800906617825 0
          0.004820118194787252 0.01508573690700587 0 1.374612207925582 -0.11771897018390465 0
          0 0 0 0.002504515939819453 0.010315718627997988 0
          1.1293414412701632 -0.18984227282636149 0 0 0 0
          0 0 0 0.38949008156683695 -0.16737388836719225 0
          0.006165360684383712 0.007958719529266092 0 0.004747723268097195 0.009790917610103424 0
          0.9451266599249999 -0.045837233515759065 0 0.0014830454192223616 0.006766206856895082 0
          1.2798736505343982 -0.19841120629254252 0 1.210958093392683 -0.09104068688170949 0
          0.0061458148194437736 0.0020589580640577865 0 0 0 0
          0 0 0 0.668957068579603 -0.2315959955654101 0
          0 0 0 0 0 0
          0.0008870974448249826 0.004661198025251543 0 0.04583094754959259 -0.07292152374374168 0
          0 0 0 0.0026809391143848057 0.005428994277101434 0
          1.3564783625883048 -0.19915514450809327 0 0.8981747204734273 -0.2635516092419864 0
          0.0034436142032707143 0.0026105564242346474 0 0 0 0
          0.025804552134014603 -0.032246455489419026 0 0.0010302664199849953 0.002681794544338848 0
          0.002273965159370278 0.003249841448004082 0 0 0 0
          0.014824382843772113 -0.007179612336363098 0 0 0 0
          0.30829777962178384 -0.20575393051209354 0 1.323275303064194 -0.17356779156350274 0
          0.0010443320573536442 0.001837353135257904 0 1.056659073917386 -0.29534715445521237 0
          0.006218681458755579 0.009825475971295272 0 0.0019242519811921272 0.00047066377176675485 0
          0.000767991655728584 0.001477250821334363 0 0 0 0
          0 0 0 0.10123516559064367 -0.10500045614670052 0
          0 0 0 0.002119177598820744 0.015361814852632763 0
          0 0 0 1.2261582016879655 -0.2866042665372335 0
          0.0638182759941757 -0.05610617635007362 0 0.0010315360965699528 0.0007506340818373438 0
          0 0 0 0.00035300076029181753 0.0005154632776172764 0
          0.2562633242259249 -0.007597964161594342 0 0.536979695375962 -0.2782560719234438 0
          0.0012383026475649077 0.018576938703720514 0 1.163133514569192 -0.14138666170365563 0
          0 0 0 0 0 0
          0.000989125936354359 0.019754302513912244 0 0.00020424958466483813 0.00016682706361139277 0
          0.28904611720633255 -0.20777614492787477 0 0.016751875067271323 -0.0017785276638015563 0
          0.051711909029488023 -0.035630638288209185 0 0.7702046814497298 -0.3221766449106261 0
          0 0 0 1.2908260840554722 -0.25854370943781135 0
          0.13820929493385276 -0.1163131317360302 0 0.00004951362246129209 0.02081495736157528 0
          0 0 0 0.010173475914966945 0.012914956956628927 0
          0 0 0 0 0 0
          0.0044014891333152215 0.02215802557388518 0 0.00010834911204667028 -0.00014718653302342048 0
          -0.000592470298258593 0.020297961719665424 0 0.003863419750854908 0.026830006718978 0
          0.7952055094281127 -0.09121069347630968 0 0 0 0
          0 0 0 0.47876620201902426 -0.27948964778009006 0
          -0.0004956248782341053 0.019536534947422073 0 0.9386993959482742 -0.34004419308984823 0
          1.2470287781175182 -0.22567412628557298 0 0 0 0
          0.0339264234843971 -0.010472808460488616 0 0 0 0
          0.30532438905973336 -0.21274472027746247 0 -0.0001051763211979368 0.031324738408008986 0
          0 0 0 -0.0008314229007782882 0.01824815106036717 0
          0.01276634514924434 0.022644372891010484 0 0 0 0
          -0.0006547680292534963 0.0323863217523901 0 0.1577403922659684 -0.11655634029706101 0
          0 0 0 -0.0011549920362286244 0.016615692038325126 0
          0 0 0 -0.0018227806660235204 0.029338085321854612 0
          0.6573859517023344 -0.32442800426096385 0 0 0 0
          -0.0014383767661578976 0.01424497784707686 0 -0.00254973799606292 0.02746092644899138 0
          1.0918029945137544 -0.16298692293036832 0 0.46676476672260225 -0.2741654017031165 0
          0.0033736521832263464 0.03323106882450236 0 0 0 0
          -0.0016100316281667212 0.011709184953849013 0 1.2130933275856888 -0.30364661754899025 0
          0.05076781480308675 -0.01839036883875417 0 -0.0047373299566772 0.02644501556627156 0
          1.042351502074482 -0.3627525842522976 0 0.2986752810658194 -0.20001766169434237 0
          0 0 0 -0.0014050781342799393 0.009294312288650528 0
          -0.004024446521383505 0.035556687689278374 0 0.1352396632146584 -0.09300704591290558 0
          -0.005186395700302093 0.022499196438453318 0 0.028430147748324933 0.005228149507265376 0
          0.8172978438657577 -0.3571540626223414 0 0 0 0
          -0.0013638801257566207 0.006835258756798741 0 -0.004579577500574567 0.017300724499495018 0
          0.6255194681368788 -0.3141345653398725 0 0.7124969374367642 -0.08189998546239904 0
          0 0 0 -0.0013474708213127202 0.00453025982284192 0
          -0.010307276524185031 0.029077212118332797 0 -0.0050260769129350565 0.014245610616811222 0
          0.004599773039049472 0.02583464568824935 0 0.45293036203869164 -0.2582495060225904 0
          0.07393694421454648 -0.04533010121999975 0 0 0 0
          -0.0011728041171078013 0.002408020512706959 0 1.10908647716553 -0.3538891234593202 0
          -0.004753560670816323 0.010200462278069757 0 -0.010725571789828834 0.022405869250796517 0
          0.2971786763827615 -0.18990048597094114 0 1.155483094356736 -0.2964948303016987 0
          0 0 0 0.9560816211203537 -0.3613574849879816 0
          -0.0043777832130713285 0.0067064809687037 0 -0.00047999346729802234 0.0006077802638968443 0
          0.04272800252597638 -0.01218828059183746 0 -0.01047149349442782 0.015439605344687657 0
          0.15345252818028512 -0.1069712244351584 0 -0.003220901188222397 0.0035124357335832843 0
          0.6737860193546814 -0.31808873682689665 0 -0.011587213033122289 0.0202609224686026 0
          0 0 0 1.0167273684923765 -0.20642884451744553 0
          0.3211195840361062 -0.01762821141568406 0 -0.008230184807334374 0.007339109596568112 0
          -0.017958990690438027 0.019054361435815636 0 -0.016294748144669247 0.01619897203403443 0
          0.10040721226234871 -0.06533378940905597 0 0.4263521252864416 -0.2473115125969934 0
          0 0 0 -0.003751448791239136 0.0017190097888471298 0
          1.0457255844275428 -0.3242654531553543 0 0.0008775726702530632 -0.010350321317356963 0
          -0.015916257346052395 0.008986180519901087 0 -0.01824400448884505 0.005745603991759639 0
          0.824911916463606 -0.32854006975947486 0 0.19993389897924072 -0.14115142499600145 0
          0.5590599451196206 -0.07357127824182032 0 -0.02219803509783296 0.009143421619298698 0
          0 0 0 -0.00950764999412905 0.0026201650423148728 0
          0.5649649803560222 -0.28767795122308354 0 1.093049235808601 -0.2705566321126577 0
          0.04665045898075951 -0.05783978048772224 0 0.3445043583948383 -0.2190822923254145 0
          -0.004164058580857945 -0.020438501423642282 0 -0.02000506354530759 -0.0037005974566397086 0
          -0.016459925602671416 0.0020961083119169447 0 0.9801089697865049 -0.31664639621186946 0
          0 0 0 -0.0210685968086091 0.0021380362525098553 0
          0.7475874212378535 -0.3341444667791972 0 0.48544676076422066 -0.282601192108403 0
          0 0 0 0.1316729072026968 -0.12557608260574135 0
          0.031394083981752134 -0.06077126515246341 0 0.9730310508545055 -0.09628780221690086 0
          -0.0031303407346453954 -0.02820610995600212 0 -0.015747119708056388 0.0006581592216083314 0
          -0.015477857599369971 -0.008609210855186464 0 0.27715541580081615 -0.2202144543542467 0
          0 0 0 0.9952727431431776 -0.38202707717633866 0
          -0.012044426335868809 -0.00021133399468615727 0 0.10125713078954254 -0.13387846668468825 0
          0.028615513992585277 -0.059690907338073244 0 0.5641114992255739 -0.4204408738177168 0
          0.0016824089103670361 -0.0173931433114288 0 0.2456591391272693 -0.28723633436445606 0
          0 0 0 0.03180814129240209 -0.03702291969499143 0
          0.10141173066205032 -0.11353956538531475 0 0 0 0
          <InformationKey name="L2_NORM_RANGE" location="vtkDataArray" length="2">
            <Value index="0">
              0
            </Value>
            <Value index="1">
              1.4146322173
            </Value>
          </InformationKey>
        </DataArray>
        <DataArray type="Float64" Name="Pressure" format="ascii" RangeMin="-8.40456051799316" RangeMax="36.90793382203805">
          36.24602023243564 36.404634910156645 36.73100696366594 36.18141360761567 35.99894557877556 36.77307364920863
          36.0434612844922 35.49171498871189 35.3514490418174 34.58707987120434 36.09511590232179 34.37388410127538
          36.90793382203805 35.30188644293177 34.383952341882484 33.583941871299615 33.432018751218045 34.494343101812575
          36.48283780328208 35.53693705335034 33.297119695584755 34.75262619828671 32.367345424848835 36.873943206114134
          33.4936266512092 32.20198357764709 32.31890919924484 33.92088760417268 31.440144187527252 34.92228288488895
          35.89970579556808 30.883888794207632 36.6939616455397 34.19182354422132 33.08638451182558 31.164789216176963
          30.357864092650168 31.576994448552263 33.54001983702877 35.184294315254 29.50724690810768 35.59673867935973
          36.71601327417935 34.36214582926453 29.669330911425735 32.14966824251319 30.160134539963256 32.81936399532187
          33.86916470439896 30.78312418288059 34.481441245015084 27.55123650846682 27.878998655293334 28.525523363504025
          33.42294414083727 32.09143987119409 29.36231318268607 34.00163760123547 30.239284178992694 32.804489538319686
          34.714491996712525 27.53401744775412 31.19271358579142 34.09278512460207 25.866261393031564 33.775244379070685