<?xml version="1.0"?>
<VTKFile type="UnstructuredGrid" version="0.1" byte_order="LittleEndian" header_type="UInt32" compressor="vtkZLibDataCompressor">
  <UnstructuredGrid>
    <Piece NumberOfPoints="418" NumberOfCells="757">
      <PointData>
        <DataArray type="Float64" Name="nsi_BC" NumberOfComponents="3" format="ascii" RangeMin="0" RangeMax="1">
          0 0 0 0 0 0
          0 0 0 0 0 0
          0 0 0 1 0 0
          0 0 0 0 0 0
          0 0 0 0 0 0
          0 0 0 0 0 0
          0 0 0 0 0 0
          0 0 0 0 0 0
          0 0 0 0 0 0
          0 0 0 0 0 0
          0 0 0 0 0 0
          0 0 0 0 0 0
          0 0 0 0 0 0
          0 0 0 0 0 0
          0 0 0 0 0 0
          0 0 0 0 0 0
          0 0 0 0 0 0
          0 0 0 0 0 0
          0 0 0 0 0 0
          0 0 0 0 0 0
          0 0 0 0 0 0
          0 0 0 0 0 0
          0 0 0 0 0 0
          0 0 0 0 0 0
          0 0 0 0 0 0
          0 0 0 0 0 0
          0 0 0 0 0 0
          0 0 0 0 0 0
          0 0 0 0 0 0
          0 0 0 0 0 0
          0 0 0 0 0 0
          0 0 0 0 0 0
          0 0 0 0 0 0
          0 0 0 0 0 0
          0 0 0 0 0 0
          0 0 0 0 0 0
          0 0 0 0 0 0
          0 0 0 0 0 0
          0 0 0 0 0 0
          0 0 0 0 0 0
          0 0 0 0 0 0
          0 0 0 0 0 0
          0 0 0 0 0 0
          0 0 0 0 0 0
          0 0 0 0 0 0
          0 0 0 0 0 0
          0 0 0 0 0 0
          0 0 0 0 0 0
          0 0 0 0 0 0
          0 0 0 0 0 0
          0 0 0 0 0 0
          0 0 0 0 0 0
          0 0 0 0 0 0
          0 0 0 0 0 0
          0 0 0 0 0 0
          0 0 0 0 0 0
          0 0 0 0 0 0
          0 0 0 0 0 0
          0 0 0 0 0 0
          0 0 0 0 0 0
          0 0 0 0 0 0
          0 0 0 0 0 0
          0 0 0 0 0 0
          0 0 0 0 0 0
          0 0 0 0 0 0
          0 0 0 0 0 0
          0 0 0 0 0 0
          0 0 0 0 0 0
          0 0 0 0 0 0
          0 0 0 0 0 0
          0 0 0 0 0 0
          0 0 0 0 0 0
          0 0 0 0 0 0
          0 0 0 0 0 0
          0 0 0 0 0 0
          0 0 0 0 0 0
          0 0 0 0 0 0
          0 0 0 0 0 0
          0 0 0 0 0 0
          0 0 0 0 0 0
          0 0 0 0 0 0
          0 0 0 0 0 0
          0 0 0 0 0 0
          0 0 0 0 0 0
          0 0 0 0 0 0
          0 0 0 0 0 0
          0 0 0 0 0 0
          0 0 0 0 0 0
          0 0 0 0 0 0
          0 0 0 0 0 0
          0 0 0 0 0 0
          0 0 0 0 0 0
          0 0 0 0 0 0
          0 0 0 0 0 0
          0 0 0 0 0 0
          0 0 0 0 0 0
          0 0 0 0 0 0
          0 0 0 0 0 0
          0 0 0 0 0 0
          0 0 0 0 0 0
          0 0 0 0 0 0
          0 0 0 0 0 0
          0 0 0 0 0 0
          0 0 0 0 0 0
          0 0 0 0 0 0
          0 0 0 0 0 0
          0 0 0 0 0 0
          0 0 0 0 0 0
          0 0 0 0 0 0
          0 0 0 0 0 0
          0 0 0 0 0 0
          0 0 0 0 0 0
          0 0 0 0 0 0
          0 0 0 0 0 0
          0 0 0 0 0 0
          0 0 0 0 0 0
          0 0 0 0 0 0
          0 0 0 0 0 0
          0 0 0 0 0 0
          0 0 0 0 0 0
          0 0 0 0 0 0
          0 0 0 0 0 0
          0 0 0 0 0 0
          0 0 0 0 0 0
          0 0 0 0 0 0
          0 0 0 0 0 0
          0 0 0 0 0 0
          0 0 0 0 0 0
          0 0 0 0 0 0
          0 0 0 0 0 0
          0 0 0 0 0 0
          0 0 0 0 0 0
          0 0 0 0 0 0
          0 0 0 0 0 0
          0 0 0 0 0 0
          0 0 0 0 0 0
          0 0 0 0 0 0
          0 0 0 0 0 0
          0 0 0 0 0 0
          0 0 0 0 0 0
          0 0 0 0 0 0
          0 0 0 0 0 0
          0 0 0 0 0 0
          0 0 0 0 0 0
          0 0 0 0 0 0
          0 0 0 0 0 0
          0 0 0 0 0 0
          0 0 0 0 0 0
          0 0 0 0 0 0
          0 0 0 0 0 0
          0 0 0 0 0 0
          0 0 0 0 0 0
          0 0 0 0 0 0
          0 0 0 0 0 0
          0 0 0 0 0 0
          0 0 0 0 0 0
          0 0 0 0 0 0
          0 0 0 0 0 0
          0 0 0 0 0 0
          0 0 0 0 0 0
          0 0 0 0 0 0
          0 0 0 0 0 0
          0 0 0 0 0 0
          0 0 0 0 0 0
          0 0 0 0 0 0
          0 0 0 0 0 0
          0 0 0 0 0 0
          0 0 0 0 0 0
          0 0 0 0 0 0
          0 0 0 0 0 0
          0 0 0 0 0 0
          0 0 0 0 0 0
          0 0 0 0 0 0
          0 0 0 0 0 0
          0 0 0 0 0 0
          0 0 0 0 0 0
          0 0 0 0 0 0
          0 0 0 0 0 0
          0 0 0 0 0 0
          0 0 0 0 0 0
          0 0 0 0 0 0
          0 0 0 0 0 0
          0 0 0 0 0 0
          0 0 0 0 0 0
          0 0 0 0 0 0
          0 0 0 0 0 0
          0 0 0 0 0 0
          0 0 0 0 0 0
          0 0 0 0 0 0
          0 0 0 0 0 0
          0 0 0 0 0 0
          0 0 0 0 0 0
          0 0 0 0 0 0
          0 0 0 0 0 0
          0 0 0 0 0 0
          0 0 0 0 0 0
          0 0 0 0 0 0
          0 0 0 0 0 0
          0 0 0 0 0 0
          0 0 0 0 0 0
          0 0 0 0 0 0
          0 0 0 0 0 0
          0 0 0 0 0 0
          0 0 0 0 0 0
          0 0 0 0 0 0
          0 0 0 0 0 0
          0 0 0 0 0 0
          0 0 0 0 0 0
          0 0 0 0 0 0
          <InformationKey name="L2_NORM_RANGE" location="vtkDataArray" length="2">
            <Value index="0">
              0
            </Value>
            <Value index="1">
              1
            </Value>
          </InformationKey>
        </DataArray>
        <DataArray type="Float64" Name="nsi_FIXNO" NumberOfComponents="3" format="ascii" RangeMin="1.4142135623730951" RangeMax="1.4142135623730951">
          1 1 0 -1 -1 0
          -1 -1 0 -1 -1 0
          1 1 0 1 1 0
          -1 -1 0 -1 -1 0
          -1 -1 0 -1 -1 0
          -1 -1 0 -1 -1 0
          -1 -1 0 -1 -1 0
          -1 -1 0 1 1 0
          -1 -1 0 -1 -1 0
          -1 -1 0 -1 -1 0
          -1 -1 0 -1 -1 0
          -1 -1 0 -1 -1 0
          -1 -1 0 -1 -1 0
          -1 -1 0 -1 -1 0
          -1 -1 0 -1 -1 0
          -1 -1 0 -1 -1 0
          1 1 0 -1 -1 0
          -1 -1 0 -1 -1 0
          1 1 0 -1 -1 0
          -1 -1 0 -1 -1 0
          -1 -1 0 -1 -1 0
          1 1 0 -1 -1 0
          -1 -1 0 -1 -1 0
          -1 -1 0 -1 -1 0
          -1 -1 0 -1 -1 0
          -1 -1 0 -1 -1 0
          -1 -1 0 -1 -1 0
          -1 -1 0 -1 -1 0
          -1 -1 0 -1 -1 0
          -1 -1 0 -1 -1 0
          1 1 0 -1 -1 0
          -1 -1 0 -1 -1 0
          -1 -1 0 -1 -1 0
          -1 -1 0 -1 -1 0
          -1 -1 0 1 1 0
          -1 -1 0 -1 -1 0
          -1 -1 0 -1 -1 0
          -1 -1 0 -1 -1 0
          -1 -1 0 -1 -1 0
          -1 -1 0 -1 -1 0
          -1 -1 0 -1 -1 0
          -1 -1 0 -1 -1 0
          -1 -1 0 -1 -1 0
          -1 -1 0 -1 -1 0
          1 1 0 -1 -1 0
          -1 -1 0 -1 -1 0
          -1 -1 0 -1 -1 0
          -1 -1 0 -1 -1 0
          -1 -1 0 -1 -1 0
          -1 -1 0 -1 -1 0
          -1 -1 0 -1 -1 0
          -1 -1 0 -1 -1 0
          -1 -1 0 -1 -1 0
          -1 -1 0 -1 -1 0
          -1 -1 0 -1 -1 0
          -1 -1 0 -1 -1 0
          -1 -1 0 -1 -1 0
          -1 -1 0 -1 -1 0
          -1 -1 0 -1 -1 0
          -1 -1 0 -1 -1 0
          -1 -1 0 1 1 0
          -1 -1 0 -1 -1 0
          -1 -1 0 -1 -1 0
          -1 -1 0 -1 -1 0
          -1 -1 0 -1 -1 0
          -1 -1 0 -1 -1 0
          -1 -1 0 -1 -1 0
          -1 -1 0 -1 -1 0
          -1 -1 0 -1 -1 0
          -1 -1 0 -1 -1 0
          -1 -1 0 -1 -1 0
          -1 -1 0 -1 -1 0
          -1 -1 0 -1 -1 0
          -1 -1 0 -1 -1 0
          1 1 0 -1 -1 0
          -1 -1 0 -1 -1 0
          -1 -1 0 -1 -1 0
          -1 -1 0 -1 -1 0
          -1 -1 0 -1 -1 0
          -1 -1 0 1 1 0
          -1 -1 0 -1 -1 0
          1 1 0 -1 -1 0
          1 1 0 -1 -1 0
          -1 -1 0 -1 -1 0
          -1 -1 0 1 1 0
          -1 -1 0 -1 -1 0
          -1 -1 0 -1 -1 0
          1 1 0 -1 -1 0
          1 1 0 -1 -1 0
          -1 -1 0 -1 -1 0
          -1 -1 0 -1 -1 0
          -1 -1 0 -1 -1 0
          1 1 0 -1 -1 0
          -1 -1 0 1 1 0
          1 1 0 -1 -1 0
          -1 -1 0 -1 -1 0
          -1 -1 0 -1 -1 0
          -1 -1 0 1 1 0
          -1 -1 0 -1 -1 0
          -1 -1 0 -1 -1 0
          -1 -1 0 -1 -1 0
          1 1 0 1 1 0
          -1 -1 0 1 1 0
          -1 -1 0 -1 -1 0
          -1 -1 0 -1 -1 0
          1 1 0 -1 -1 0
          -1 -1 0 -1 -1 0
          -1 -1 0 -1 -1 0
          1 1 0 -1 -1 0
          -1 -1 0 -1 -1 0
          1 1 0 -1 -1 0
          -1 -1 0 1 1 0
          1 1 0 -1 -1 0
          -1 -1 0 -1 -1 0
          -1 -1 0 -1 -1 0
          -1 -1 0 -1 -1 0
          -1 -1 0 1 1 0
          1 1 0 -1 -1 0
          1 1 0 1 1 0
          -1 -1 0 -1 -1 0
          1 1 0 -1 -1 0
          -1 -1 0 -1 -1 0
          -1 -1 0 1 1 0
          -1 -1 0 -1 -1 0
          -1 -1 0 1 1 0
          -1 -1 0 1 1 0
          -1 -1 0 -1 -1 0
          -1 -1 0 -1 -1 0
          -1 -1 0 -1 -1 0
          -1 -1 0 1 1 0
          1 1 0 -1 -1 0
          1 1 0 -1 -1 0
          1 1 0 -1 -1 0
          -1 -1 0 -1 -1 0
          1 1 0 -1 -1 0
          -1 -1 0 -1 -1 0
          -1 -1 0 -1 -1 0
          1 1 0 1 1 0
          -1 -1 0 -1 -1 0
          -1 -1 0 -1 -1 0
          -1 -1 0 -1 -1 0
          1 1 0 -1 -1 0
          -1 -1 0 -1 -1 0
          1 1 0 -1 -1 0
          1 1 0 1 1 0
          -1 -1 0 -1 -1 0
          -1 -1 0 -1 -1 0
          -1 -1 0 1 1 0
          1 1 0 -1 -1 0
          -1 -1 0 -1 -1 0
          -1 -1 0 1 1 0
          -1 -1 0 1 1 0
          -1 -1 0 -1 -1 0
          1 1 0 -1 -1 0
          -1 -1 0 1 1 0
          -1 -1 0 -1 -1 0
          1 1 0 -1 -1 0
          1 1 0 -1 -1 0
          -1 -1 0 1 1 0
          -1 -1 0 -1 -1 0
          -1 -1 0 -1 -1 0
          -1 -1 0 1 1 0
          -1 -1 0 -1 -1 0
          -1 -1 0 -1 -1 0
          -1 -1 0 -1 -1 0
          1 1 0 -1 -1 0
          -1 -1 0 -1 -1 0
          -1 -1 0 -1 -1 0
          -1 -1 0 1 1 0
          -1 -1 0 -1 -1 0
          -1 -1 0 -1 -1 0
          1 1 0 -1 -1 0
          -1 -1 0 -1 -1 0
          -1 -1 0 -1 -1 0
          -1 -1 0 1 1 0
          -1 -1 0 -1 -1 0
          -1 -1 0 -1 -1 0
          -1 -1 0 -1 -1 0
          1 1 0 -1 -1 0
          -1 -1 0 -1 -1 0
          -1 -1 0 -1 -1 0
          -1 -1 0 -1 -1 0
          -1 -1 0 -1 -1 0
          1 1 0 -1 -1 0
          -1 -1 0 -1 -1 0
          -1 -1 0 -1 -1 0
          -1 -1 0 -1 -1 0
          1 1 0 -1 -1 0
          -1 -1 0 -1 -1 0
          -1 -1 0 -1 -1 0
          -1 -1 0 -1 -1 0
          -1 -1 0 -1 -1 0
          1 1 0 -1 -1 0
          -1 -1 0 -1 -1 0
          -1 -1 0 -1 -1 0
          -1 -1 0 -1 -1 0
          -1 -1 0 -1 -1 0
          1 1 0 -1 -1 0
          -1 -1 0 -1 -1 0
          1 1 0 -1 -1 0
          -1 -1 0 -1 -1 0
          -1 -1 0 -1 -1 0
          -1 -1 0 -1 -1 0
          1 1 0 -1 -1 0
          -1 -1 0 -1 -1 0
          -1 -1 0 -1 -1 0
          -1 -1 0 -1 -1 0
          1 1 0 -1 -1 0
          -1 -1 0 1 1 0
          <InformationKey name="L2_NORM_RANGE" location="vtkDataArray" length="2">
            <Value index="0">
              1.4142135624
            </Value>
            <Value index="1">
              1.4142135624
            </Value>
          </InformationKey>
        </DataArray>
        <DataArray type="Float64" Name="Velocity" NumberOfComponents="3" format="ascii" RangeMin="0" RangeMax="1.4180266196874594">
          0 0 0 0.31914534264021294 0.02486985288599857 0
          0.7327071290223539 0.10226540237477483 0 0.5180856598821654 0.04113319409388339 0
          0 0 0 1 0 0
          0.7146283914161982 0.031103523569350998 0 0.3759035120997824 0.025493952001776093 0
          0.6440757207882194 0.04358020822716554 0 0.3205521825492878 0.006013060505111048 0
          0.6654302227972517 0.025793943186047958 0 0.5686962175471846 0.03729063851710646 0
          0.7022397005708473 -0.09606230519540716 0 0.7070805772244554 0.032835895518611914 0
          0.6769765778299125 0.05052618961747383 0 0 0 0
          0.5184247521627036 0.02750198381157978 0 0.7071117205273078 0.05800339082643486 0
          0.6056339684417844 -0.009435664519153779 0 0.6447567940954172 0.034676930723145705 0
          0.6608190701236806 0.058593039068667606 0 0.6715713383474082 0.05401862798038231 0
          0.4357821369704084 0.036253913655828224 0 0.34713120028326155 -0.028313380391802243 0
          0.7120377293963456 0.09590137912200387 0 0.6491950304134914 0.07797466630939229 0
          0.7324248420939774 0.11552773773183947 0 0.6884075246012659 0.0927047711760799 0
          0.32986204021841486 0.011513192825830815 0 0.5706492661115464 0.03786627531173814 0
          0.4490116785556096 -0.0042081618755208106 0 0.6109431981843274 0.08827066872167537 0
          0 0 0 0.6112518984955896 0.0736839620709245 0
          0.7044416900933564 0.15136263713894157 0 0.7546327429034206 0.15086166102322113 0
          0 0 0 0.7611434385985651 0.18681000788301902 0
          0.6330892418744257 0.1322128229387601 0 0.3332809994451715 0.005874896059193693 0
          0.5753523331122389 0.08310942074719749 0 0.2065109347215816 0.003929970101037371 0
          0 0 0 0.4762091958776063 0.045434132958836124 0
          0.7680703494462575 0.179157173010671 0 0.7290384311856319 0.22052348581908204 0
          0.8162048022009297 0.24130150572397954 0 0.652437909711008 0.20605682855660679 0
          0.5204778378436601 0.09216662065654647 0 0.7895770494033628 0.27978915434982105 0
          0.3237415238148573 0.023087861812384924 0 0.4675197239468115 0.02372828835939894 0
          0.8012571939748112 0.14943856211608278 0 0.8721218848324507 0.27157391403000625 0
          0.5474029085490326 0.1664997249455626 0 0.6654050249630343 0.2911083599252 0
          0.853676149960687 0.3394804026455423 0 0.3677789650670786 0.047512708552484385 0
          0.776981884522973 0.37013787697003214 0 0.5733131496376802 0.2570224532248282 0
          0 0 0 0.9384908773750077 0.3608327742937885 0
          0.6833899485915055 0.376465087855587 0 0.19848570709250032 0.011041393949129811 0
          0.9868055892211823 0.2326575964689549 0 0.38756135830237076 0.09445798498236624 0
          0.4578441620869068 0.19582017233371038 0 0.8565237270766957 0.42425006136753857 0
          0.5734815837513821 0.34001172647575234 0 0 0 0
          0.7526925843295246 0.0996844149462901 0 0.46248178492164727 0.2768079073544835 0
          0.7228368958805155 0.4687621227242751 0 1.0496296224053097 0.3559637568118029 0
          0.9536449132112614 0.46298932699004647 0 0.340703920465699 0.132160974460277 0
          0.23275779314852874 0.036653968972611015 0 0.5512260549350498 0.42344751760999966 0
          0.8351605954963555 0.5169237530177079 0 1.1185916389589867 0.2823256676441855 0
          0.4551785764448814 0.3558717907331857 0 0.7104377692426842 0.5215174815751199 0
          0.3481474108355152 0.20074621778959684 0 0.2631964683117715 0.06792291323153954 0
          1.0388843841652315 0.18945145353413084 0 0.5934813822825709 0.5067076098753462 0
          0.9507843361411804 0.5257738372700612 0 0.3421434771216433 0.2752214939980863 0
          0 0 0 0.8360210628240765 0.0820468332554588 0
          1.188903003320841 0.3801336336917911 0 0.7773426841727611 0.5705692369287776 0
          0.4285417173474867 0.4367723405417221 0 0.629089097842798 0.5634042080863022 0
          1.2275869710686433 0.2722622425157226 0 0.2463011421578282 0.1297120178212753 0
          0.3107107103552478 0.3251684271603104 0 0.1368305308781512 0.017502930834105396 0
          0.25101521430352225 0.19902051240016141 0 0.4782574853749415 0.010233295013797562 0
          0.924394022820119 0.5669273081628087 0 0.41324579230484493 0.4927736879462485 0
          1.1434187802962685 0.4718188723915976 0 0.24736196869295224 0.2647520038709524 0
          0.6871281300234352 0.5941557609386227 0 0.275000434190737 0.36518441771413923 0
          1.172296970876849 0.1377582021755492 0 1.2950745131675023 0.3275350469283576 0
          0.1567216496886068 0.048308187742212245 0 0.5131924589251574 0.5679388299591748 0
          0.7987595546756956 0.574584133629247 0 0.20161882431721262 0.2866342382481711 0
          0.31938612083477524 0.4676662449680283 0 1.0762821722464253 0.4857879520506473 0
          0.918098792692819 0.026548058300731047 0 0.15004338766225042 0.0793132069186593 0
          0.5504459933426976 0.563727323142459 0 0.2134793510142306 0.3636099303451023 0
          1.2694308352266208 0.3553604629185092 0 1.3517454451124369 0.19034189435820653 0
          0.1501368444867486 0.13792499814135614 0 0 0 0
          0.15542909579803557 0.20973188400584922 0 0.3217235233841177 0.48926793343668445 0
          1.3580028404457278 0.25507469665169813 0 0.16615559619256515 0.2960259597679619 0
          0.06773401992240911 0.009263203870023091 0 0.651285209708964 0.5095529146352733 0
          0.15284717761333072 0.3392691377302697 0 0.9831123943717811 0.42314488522569177 0
          0.3602191179305708 0.45983475872657054 0 0.11068250373606162 0.21262213649783387 0
          1.1777109610003782 0.33753190175090453 0 0.09012046533680995 0.035017003385743935 0
          0.10807119592116377 0.1439083822563215 0 1.251780903797295 0.054104523907871634 0
          1.31557842785383 0.2515496004220965 0 0.16035147382324175 0.3489295550289611 0
          0.08350328904230729 0.20441514768478855 0 1.4054328451123275 0.14925712865991633 0
          0.42621472818506956 0.3590853807283813 0 0.09218997467227397 0.10678872247535919 0
          0.07272826174290169 0.24727456944252665 0 0.08099545075403684 0.049753691830795456 0
          0.7620052906115501 0.30749575633353254 0 0.08074308676622549 0.14234109990214966 0
          0.06703615159081985 0.21619864410957157 0 0.06996080342111059 0.2154038819865129 0
          0 0 0 0.08370641358302124 0.2190909347485176 0
          0.9923951714688695 0.2525189830837784 0 1.402898628339357 0.07494291080422372 0
          1.193649312349718 0.20802325973412178 0 0.040487534131876446 0.15801981286247835 0
          0.06593752041767278 0.06555452085049646 0 0.047725170765428516 0.13159746230721595 0
          0.922749357266745 0.0042414776125514675 0 0.03201013309497042 0.14588319005446201 0
          0.021307620556326835 0.12503677708699934 0 0 0 0
          0.05800600300106481 0.09638857972349116 0 0.3995752253063486 0.07005392908539665 0
          0 0 0 0.704193804416265 0.1116218815677284 0
          0 0 0 0.0173142752173681 0.09610087104294457 0
          0.029119508900513427 0.11539750595085216 0 0.04560395771055032 0.015716856446736236 0
          1.3313819299987297 0.06460564868215937 0 0 0 0
          0.010993066121502785 0.07261093521714442 0 0.04571969583082075 0.06412076334344656 0
          0.9267148753429568 0.07365448384090921 0 0.033826624809326515 0.08429213541409802 0
          0 0 0 0.018928449462448663 0.08351320483336859 0
          0 0 0 1.4180204444964735 0.0041848694443140395 0
          0.35286828820105387 0.027624882216238135 0 0.0066180128189472255 0.05939951171744002 0
          1.1311622463776942 0.0255489832073653 0 0.018420682712983704 0.07420777316235336 0
          0.6727324179931452 0.038657053007410035 0 0.03741425145562583 0.02587800097321183 0
          0 0 0 0.0068902130095476665 0.04709626695555689 0
          1.4078023486992357 -0.03350698974575996 0 0 0 0
          0 0 0 0.014216310756083895 0.052600380817379465 0
          0.02871321373348745 0.03070737655014945 0 0.004950635064373077 0.038299196060260415 0
          0.02072710749774271 0.04671477803200141 0 0.33463124673997807 -0.0003899371313969662 0
          0.013331430898438731 0.04558598391665258 0 0 0 0
          1.2509673189163963 -0.05098287407864066 0 0.6592902813349921 -0.024457384026750257 0
          0.9420369617860473 -0.05867417280650525 0 0.004534767437946011 0.03005689826497371 0
          1.156305330562315 -0.10041018753492759 0 0.020684480183056797 0.006834069427896288 0
          0 0 0 0 0 0
          0.016553196113272207 0.02790604262103132 0 0 0 0
          1.3175339778332227 -0.12235551593616163 0 0.00895274010939336 0.030464946152919954 0
          0.003899128181780812 0.023274367229364726 0 0.3415615011951296 -0.02736083695005722 0
          0 0 0 1.395143607004797 -0.13294206317525584 0
          0.008604828485183296 0.023910007304188297 0 0.6755946715970489 -0.1263599385906192 0
          0.014366697323519499 0.01194831454453834 0 0.0031317218262323335 0.017191834268404805 0
          0 0 0 0.9286901276489211 -0.17538550778633005 0
          0.005695698853851292 0.01866372867701061 0 1.373000956585198 -0.13175436219157102 0
          0 0 0 0.002825642422719787 0.012726106783891423 0
          1.1325246920139689 -0.20577797056052027 0 0 0 0
          0 0 0 0.3921590193867172 -0.17505211267516999 0
          0.007635695823176737 0.01028087806357618 0 0.005597210570233323 0.012510758394982523 0
          0.9354313562933106 -0.05093924914863599 0 0.001738919636889941 0.008687689218979814 0
          1.2824795368879223 -0.21737266793260254 0 1.203138032492292 -0.10103569586186349 0
          0.007772208934107586 0.002595567905917289 0 0 0 0
          0 0 0 0.6723755233543496 -0.24530995536156477 0
          0 0 0 0 0 0
          0.0010862450503204193 0.006165555472714963 0 0.046626935461858456 -0.08151565511667173 0
          0 0 0 0.0033338552588073945 0.007224078233753122 0
          1.3565878517444083 -0.21858221240260295 0 0.9017400573568872 -0.2827782286253119 0
          0.004610404695137807 0.003468092866575796 0 0 0 0
          0.026128308570891344 -0.04026455160701357 0 0.0012451832728183263 0.0037891984000477373 0
          0.0028811390500387717 0.004509555795044575 0 0 0 0
          0.014997276445659099 -0.014858507468110418 0 0 0 0
          0.3111008149058617 -0.22316546172169527 0 1.3172753803533241 -0.189772369047493 0
          0.0014993516698235414 0.002673642788206402 0 1.0593373524171763 -0.31982654065967353 0
          0.006332016666268876 0.002392575089711194 0 0.0025670653989769247 0.0007023363046173283 0
          0.0009773752771452021 0.00225297428199318 0 0 0 0
          0 0 0 0.1023888990215806 -0.12216012880276929 0
          0 0 0 0.0021919566068051757 0.008108624004662173 0
          0 0 0 1.2261246728273496 -0.31182329000105286 0
          0.06450931320015228 -0.07285862079174216 0 0.0014778358045766618 0.0011628827459390736 0
          0 0 0 0.0004924421972427372 0.000988764630080619 0
          0.2526433149452967 -0.007816578947080927 0 0.5402576502536018 -0.3038114157263364 0
          0.0013482117342650814 0.011492452745926019 0 1.1498109045289044 -0.1510286287272645 0
          0 0 0 0 0 0
          0.0012001883768405861 0.012955794470023319 0 0.0003284007663464195 0.000428114354799486 0
          0.29125045825200935 -0.23421763586209252 0 0.017187157562106994 -0.0177904087105783 0
          0.052330539880598576 -0.05540889323157179 0 0.7727347868625991 -0.35265303448017105 0
          0 0 0 1.285708059373734 -0.28119434697928636 0
          0.13938239768408073 -0.14200336061843338 0 0.00032913558808918514 0.014378841412361431 0
          0 0 0 0.010575166526775027 -0.0026401196459225605 0
          0 0 0 0 0 0
          0.005029788780244488 0.008870862638869227 0 0.00017700322008532294 -0.00010706157729062741 0
          -0.00029271588764092363 0.014417479228537014 0 0.004612490596715401 0.013871077567937847 0
          0.7803366677692039 -0.09511172154271373 0 0 0 0
          0 0 0 0.48077220781753255 -0.31467976686861515 0
          -0.00009620800715846932 0.014293031601865645 0 0.938359022726175 -0.3748393275507291 0
          1.233275791421902 -0.24177330394131333 0 0 0 0
          0.03508138575123093 -0.03571940928704811 0 0 0 0
          0.3068855201942113 -0.24894500823423038 0 0.001146372207470591 0.018077240110978866 0
          0 0 0 -0.0003297216077232447 0.013774653940916388 0
          0.01442642290210399 0.0012466065758232057 0 0 0 0
          0.0007393222471488697 0.020454997343903342 0 0.15919394939275744 -0.1520455294495839 0
          0 0 0 -0.0007197973303167283 0.01289366507664977 0
          0 0 0 -0.0002482371013787494 0.019906462952705914 0
          0.6568890645151947 -0.3656084885821213 0 0 0 0
          -0.0010224348483118463 0.011314893941109579 0 -0.0010567615415291896 0.01947008689805177 0
          1.0715908573671253 -0.17061072639993688 0 0.4672467437168138 -0.3178929406043638 0
          0.00686269897469916 0.013017782161649312 0 0 0 0
          -0.0010402686342929654 0.009685947612687198 0 1.1991194920234347 -0.32673607734288446 0
          0.05408017439788729 -0.05143198213876161 0 -0.00303122998430212 0.019174602016424208 0
          1.0341844746297184 -0.3976372059922136 0 0.2999797466014283 -0.2445220362124293 0
          0 0 0 -0.0009748998872429051 0.008103246512235016 0
          -0.00024339831477366135 0.020490037516223348 0 0.1387763163515656 -0.13488013892279835 0
          -0.0032005015332916224 0.017100893558275675 0 0.03408536376830353 -0.025312624338957555 0
          0.8117830108437994 -0.3993326208457317 0 0 0 0
          -0.0010948089511297037 0.0062432270558348615 0 -0.0028492148394254372 0.013927066245994596 0
          0.6220324057379537 -0.36016437007740576 0 0.6941430702730611 -0.08334570256516476 0
          0 0 0 -0.0011399633544015694 0.004345072562700267 0
          -0.005396028792547355 0.019274080993204382 0 -0.0037084192612784465 0.012010318603968343 0
          0.012517776051426798 0.000987034302414761 0 0.4524730436518635 -0.30715753830134296 0
          0.08194164118488578 -0.08434248803921708 0 0 0 0
          -0.0011077421596664032 0.002433363694729925 0 1.090874065366499 -0.37983902271836506 0
          -0.003797998546657175 0.009025718961047957 0 -0.006393626362958086 0.01636533127353112 0
          0.3003587305512277 -0.2390041260527312 0 1.1306541513767348 -0.31059318902384564 0
          0 0 0 0.9419718770919293 -0.39638512779275187 0
          -0.0038227280310439214 0.006099408629393585 0 -0.0004916876977924991 0.0006701909282386654 0
          0.0544475718984458 -0.04593344330090741 0 -0.007610795950824745 0.012161380761872408 0
          0.16310912358579605 -0.1521210409700311 0 -0.003024817502971737 0.0033133295580445917 0
          0.6665335531023399 -0.3622571431841689 0 0.0010745637572648259 0.00032008257931760324 0
          0 0 0 0.9885417718698538 -0.20929805388042072 0
          0.31031484298580214 -0.017344641892231037 0 -0.007099643383990435 0.006264207853506621 0
          -0.007603652991905413 0.006757218169871595 0 -0.009320046880632177 0.00908075885479595 0
          0.11525531045307681 -0.10621640372572985 0 0.42761044926090624 -0.2932974633331799 0
          0 0 0 -0.003460131882987463 0.0015599210055309573 0
          1.020700688440746 -0.3443715261763335 0 0.021856816514268382 -0.03753387262995927 0
          -0.012126349272872651 0.006049070065734776 0 -0.0006268795094075047 -0.011549850255155755 0
          0.8085860191592739 -0.35807730776868785 0 0.21570372439412724 -0.18352883221439337 0
          0.5395597857101899 -0.07244198223924217 0 -0.009379647271134616 -0.0007573919450447472 0
          0 0 0 -0.00808268232167254 0.001932817405951165 0
          0.5601577408988079 -0.3202095109833298 0 1.05875683002713 -0.27560191853373767 0
          0.07559924553729741 -0.08662038103915314 0 0.35638457642132915 -0.2540313380045251 0
          0.023255217232048403 -0.040972948740020804 0 0.0007801135913975182 -0.01578870606015957 0
          -0.01232846078626691 0.0008594305433221382 0 0.9508393435710072 -0.3267289082760919 0
          0 0 0 -0.00882173657841951 -0.003723687027983652 0
          0.7318303287945571 -0.3467091526080086 0 0.488482897358836 -0.30079807377167017 0
          0 0 0 0.16667994103524628 -0.14882602785065363 0
          0.06846186674551863 -0.07903039090684004 0 0.9376520452856015 -0.09431142700105566 0
          0.027741715041375594 -0.039887826365831235 0 -0.00910123488576484 -0.001602559772665107 0
          0.003739851526011729 -0.014648561575030899 0 0.3059444331021062 -0.2348441954622953 0
          0 0 0 0.9599156828012426 -0.3796653608904245 0
          -0.002305140865099887 -0.0011352435626532 0 0.14609183830968067 -0.14477644951548485 0
          0.06806264895602195 -0.06726174837365063 0 0.5639146202633165 -0.41375163498539297 0
          0.019692965268823963 -0.018788487755538586 0 0.2867163786699334 -0.2833494239200779 0
          0 0 0 0.0630935257935095 -0.03886772779201097 0
          0.1469645381665243 -0.11928692995158098 0 0 0 0
          <InformationKey name="L2_NORM_RANGE" location="vtkDataArray" length="2">
            <Value index="0">
              0
            </Value>
            <Value index="1">
              1.4180266197
            </Value>
          </InformationKey>
        </DataArray>
        <DataArray type="Float64" Name="Pressure" format="ascii" RangeMin="-8.699783069421327" RangeMax="36.96657887762801">
          36.29730719881798 36.478209248184214 36.78744727390988 36.25362088467479 36.10296500321772 36.82407628992775
          36.101422551251936 35.59097864687139 35.41593674197661 34.67854687676892 36.15325764469434 34.453636086954575
          36.96657887762801 35.3410685757479 34.43977948420131 33.67098924876358 33.51338134030934 34.53996177707482
          36.54191366309368 35.594298767427446 33.35464488922185 34.79275450598287 32.4001376672344 36.943088116409385
          33.517287690733895 32.22391915758055 32.32677905732526 33.932797388182316 31.420670791403413 34.98008402069849
          36.00245572870549 30.85120927180065 36.74609721200297 34.21160711227034 33.06394581962746 31.140677677906215
          30.286359075609862 31.54032979797139 33.51432065040842 35.276291890555505 29.426839034382223 35.71614903585728
          36.8134722470547 34.41220268722792 29.605137209046802 32.103150922612095 30.1051712155903 32.761459616181284
          33.864720713146845 30.70587923494803 34.55665372548347 27.409184642366274 27.76458477284543 28.441668991012897
          33.37660241745754 32.003183959957184 29.272655908682317 34.026115662316265 30.12422474378726 32.721217531125085
          34.82325408889766 27.43572088438324 31.0730565044969 34.14290489640106 25.738939439540733 33.769086518227574