<?xml version="1.0"?>
<VTKFile type="UnstructuredGrid" version="0.1" byte_order="LittleEndian" header_type="UInt32" compressor="vtkZLibDataCompressor">
  <UnstructuredGrid>
    <Piece NumberOfPoints="418" NumberOfCells="757">
      <PointData>
        <DataArray type="Float64" Name="nsi_BC" NumberOfComponents="3" format="ascii" RangeMin="0" RangeMax="1">
          0 0 0 0 0 0
          0 0 0 0 0 0
          0 0 0 1 0 0
          0 0 0 0 0 0
          0 0 0 0 0 0
          0 0 0 0 0 0
          0 0 0 0 0 0
          0 0 0 0 0 0
          0 0 0 0 0 0
          0 0 0 0 0 0
          0 0 0 0 0 0
          0 0 0 0 0 0
          0 0 0 0 0 0
          0 0 0 0 0 0
          0 0 0 0 0 0
          0 0 0 0 0 0
          0 0 0 0 0 0
          0 0 0 0 0 0
          0 0 0 0 0 0
          0 0 0 0 0 0
          0 0 0 0 0 0
          0 0 0 0 0 0
          0 0 0 0 0 0
          0 0 0 0 0 0
          0 0 0 0 0 0
          0 0 0 0 0 0
          0 0 0 0 0 0
          0 0 0 0 0 0
          0 0 0 0 0 0
          0 0 0 0 0 0
          0 0 0 0 0 0
          0 0 0 0 0 0
          0 0 0 0 0 0
          0 0 0 0 0 0
          0 0 0 0 0 0
          0 0 0 0 0 0
          0 0 0 0 0 0
          0 0 0 0 0 0
          0 0 0 0 0 0
          0 0 0 0 0 0
          0 0 0 0 0 0
          0 0 0 0 0 0
          0 0 0 0 0 0
          0 0 0 0 0 0
          0 0 0 0 0 0
          0 0 0 0 0 0
          0 0 0 0 0 0
          0 0 0 0 0 0
          0 0 0 0 0 0
          0 0 0 0 0 0
          0 0 0 0 0 0
          0 0 0 0 0 0
          0 0 0 0 0 0
          0 0 0 0 0 0
          0 0 0 0 0 0
          0 0 0 0 0 0
          0 0 0 0 0 0
          0 0 0 0 0 0
          0 0 0 0 0 0
          0 0 0 0 0 0
          0 0 0 0 0 0
          0 0 0 0 0 0
          0 0 0 0 0 0
          0 0 0 0 0 0
          0 0 0 0 0 0
          0 0 0 0 0 0
          0 0 0 0 0 0
          0 0 0 0 0 0
          0 0 0 0 0 0
          0 0 0 0 0 0
          0 0 0 0 0 0
          0 0 0 0 0 0
          0 0 0 0 0 0
          0 0 0 0 0 0
          0 0 0 0 0 0
          0 0 0 0 0 0
          0 0 0 0 0 0
          0 0 0 0 0 0
          0 0 0 0 0 0
          0 0 0 0 0 0
          0 0 0 0 0 0
          0 0 0 0 0 0
          0 0 0 0 0 0
          0 0 0 0 0 0
          0 0 0 0 0 0
          0 0 0 0 0 0
          0 0 0 0 0 0
          0 0 0 0 0 0
          0 0 0 0 0 0
          0 0 0 0 0 0
          0 0 0 0 0 0
          0 0 0 0 0 0
          0 0 0 0 0 0
          0 0 0 0 0 0
          0 0 0 0 0 0
          0 0 0 0 0 0
          0 0 0 0 0 0
          0 0 0 0 0 0
          0 0 0 0 0 0
          0 0 0 0 0 0
          0 0 0 0 0 0
          0 0 0 0 0 0
          0 0 0 0 0 0
          0 0 0 0 0 0
          0 0 0 0 0 0
          0 0 0 0 0 0
          0 0 0 0 0 0
          0 0 0 0 0 0
          0 0 0 0 0 0
          0 0 0 0 0 0
          0 0 0 0 0 0
          0 0 0 0 0 0
          0 0 0 0 0 0
          0 0 0 0 0 0
          0 0 0 0 0 0
          0 0 0 0 0 0
          0 0 0 0 0 0
          0 0 0 0 0 0
          0 0 0 0 0 0
          0 0 0 0 0 0
          0 0 0 0 0 0
          0 0 0 0 0 0
          0 0 0 0 0 0
          0 0 0 0 0 0
          0 0 0 0 0 0
          0 0 0 0 0 0
          0 0 0 0 0 0
          0 0 0 0 0 0
          0 0 0 0 0 0
          0 0 0 0 0 0
          0 0 0 0 0 0
          0 0 0 0 0 0
          0 0 0 0 0 0
          0 0 0 0 0 0
          0 0 0 0 0 0
          0 0 0 0 0 0
          0 0 0 0 0 0
          0 0 0 0 0 0
          0 0 0 0 0 0
          0 0 0 0 0 0
          0 0 0 0 0 0
          0 0 0 0 0 0
          0 0 0 0 0 0
          0 0 0 0 0 0
          0 0 0 0 0 0
          0 0 0 0 0 0
          0 0 0 0 0 0
          0 0 0 0 0 0
          0 0 0 0 0 0
          0 0 0 0 0 0
          0 0 0 0 0 0
          0 0 0 0 0 0
          0 0 0 0 0 0
          0 0 0 0 0 0
          0 0 0 0 0 0
          0 0 0 0 0 0
          0 0 0 0 0 0
          0 0 0 0 0 0
          0 0 0 0 0 0
          0 0 0 0 0 0
          0 0 0 0 0 0
          0 0 0 0 0 0
          0 0 0 0 0 0
          0 0 0 0 0 0
          0 0 0 0 0 0
          0 0 0 0 0 0
          0 0 0 0 0 0
          0 0 0 0 0 0
          0 0 0 0 0 0
          0 0 0 0 0 0
          0 0 0 0 0 0
          0 0 0 0 0 0
          0 0 0 0 0 0
          0 0 0 0 0 0
          0 0 0 0 0 0
          0 0 0 0 0 0
          0 0 0 0 0 0
          0 0 0 0 0 0
          0 0 0 0 0 0
          0 0 0 0 0 0
          0 0 0 0 0 0
          0 0 0 0 0 0
          0 0 0 0 0 0
          0 0 0 0 0 0
          0 0 0 0 0 0
          0 0 0 0 0 0
          0 0 0 0 0 0
          0 0 0 0 0 0
          0 0 0 0 0 0
          0 0 0 0 0 0
          0 0 0 0 0 0
          0 0 0 0 0 0
          0 0 0 0 0 0
          0 0 0 0 0 0
          0 0 0 0 0 0
          0 0 0 0 0 0
          0 0 0 0 0 0
          0 0 0 0 0 0
          0 0 0 0 0 0
          0 0 0 0 0 0
          0 0 0 0 0 0
          0 0 0 0 0 0
          0 0 0 0 0 0
          0 0 0 0 0 0
          0 0 0 0 0 0
          0 0 0 0 0 0
          0 0 0 0 0 0
          0 0 0 0 0 0
          0 0 0 0 0 0
          <InformationKey name="L2_NORM_RANGE" location="vtkDataArray" length="2">
            <Value index="0">
              0
            </Value>
            <Value index="1">
              1
            </Value>
          </InformationKey>
        </DataArray>
        <DataArray type="Float64" Name="nsi_FIXNO" NumberOfComponents="3" format="ascii" RangeMin="1.4142135623730951" RangeMax="1.4142135623730951">
          1 1 0 -1 -1 0
          -1 -1 0 -1 -1 0
          1 1 0 1 1 0
          -1 -1 0 -1 -1 0
          -1 -1 0 -1 -1 0
          -1 -1 0 -1 -1 0
          -1 -1 0 -1 -1 0
          -1 -1 0 1 1 0
          -1 -1 0 -1 -1 0
          -1 -1 0 -1 -1 0
          -1 -1 0 -1 -1 0
          -1 -1 0 -1 -1 0
          -1 -1 0 -1 -1 0
          -1 -1 0 -1 -1 0
          -1 -1 0 -1 -1 0
          -1 -1 0 -1 -1 0
          1 1 0 -1 -1 0
          -1 -1 0 -1 -1 0
          1 1 0 -1 -1 0
          -1 -1 0 -1 -1 0
          -1 -1 0 -1 -1 0
          1 1 0 -1 -1 0
          -1 -1 0 -1 -1 0
          -1 -1 0 -1 -1 0
          -1 -1 0 -1 -1 0
          -1 -1 0 -1 -1 0
          -1 -1 0 -1 -1 0
          -1 -1 0 -1 -1 0
          -1 -1 0 -1 -1 0
          -1 -1 0 -1 -1 0
          1 1 0 -1 -1 0
          -1 -1 0 -1 -1 0
          -1 -1 0 -1 -1 0
          -1 -1 0 -1 -1 0
          -1 -1 0 1 1 0
          -1 -1 0 -1 -1 0
          -1 -1 0 -1 -1 0
          -1 -1 0 -1 -1 0
          -1 -1 0 -1 -1 0
          -1 -1 0 -1 -1 0
          -1 -1 0 -1 -1 0
          -1 -1 0 -1 -1 0
          -1 -1 0 -1 -1 0
          -1 -1 0 -1 -1 0
          1 1 0 -1 -1 0
          -1 -1 0 -1 -1 0
          -1 -1 0 -1 -1 0
          -1 -1 0 -1 -1 0
          -1 -1 0 -1 -1 0
          -1 -1 0 -1 -1 0
          -1 -1 0 -1 -1 0
          -1 -1 0 -1 -1 0
          -1 -1 0 -1 -1 0
          -1 -1 0 -1 -1 0
          -1 -1 0 -1 -1 0
          -1 -1 0 -1 -1 0
          -1 -1 0 -1 -1 0
          -1 -1 0 -1 -1 0
          -1 -1 0 -1 -1 0
          -1 -1 0 -1 -1 0
          -1 -1 0 1 1 0
          -1 -1 0 -1 -1 0
          -1 -1 0 -1 -1 0
          -1 -1 0 -1 -1 0
          -1 -1 0 -1 -1 0
          -1 -1 0 -1 -1 0
          -1 -1 0 -1 -1 0
          -1 -1 0 -1 -1 0
          -1 -1 0 -1 -1 0
          -1 -1 0 -1 -1 0
          -1 -1 0 -1 -1 0
          -1 -1 0 -1 -1 0
          -1 -1 0 -1 -1 0
          -1 -1 0 -1 -1 0
          1 1 0 -1 -1 0
          -1 -1 0 -1 -1 0
          -1 -1 0 -1 -1 0
          -1 -1 0 -1 -1 0
          -1 -1 0 -1 -1 0
          -1 -1 0 1 1 0
          -1 -1 0 -1 -1 0
          1 1 0 -1 -1 0
          1 1 0 -1 -1 0
          -1 -1 0 -1 -1 0
          -1 -1 0 1 1 0
          -1 -1 0 -1 -1 0
          -1 -1 0 -1 -1 0
          1 1 0 -1 -1 0
          1 1 0 -1 -1 0
          -1 -1 0 -1 -1 0
          -1 -1 0 -1 -1 0
          -1 -1 0 -1 -1 0
          1 1 0 -1 -1 0
          -1 -1 0 1 1 0
          1 1 0 -1 -1 0
          -1 -1 0 -1 -1 0
          -1 -1 0 -1 -1 0
          -1 -1 0 1 1 0
          -1 -1 0 -1 -1 0
          -1 -1 0 -1 -1 0
          -1 -1 0 -1 -1 0
          1 1 0 1 1 0
          -1 -1 0 1 1 0
          -1 -1 0 -1 -1 0
          -1 -1 0 -1 -1 0
          1 1 0 -1 -1 0
          -1 -1 0 -1 -1 0
          -1 -1 0 -1 -1 0
          1 1 0 -1 -1 0
          -1 -1 0 -1 -1 0
          1 1 0 -1 -1 0
          -1 -1 0 1 1 0
          1 1 0 -1 -1 0
          -1 -1 0 -1 -1 0
          -1 -1 0 -1 -1 0
          -1 -1 0 -1 -1 0
          -1 -1 0 1 1 0
          1 1 0 -1 -1 0
          1 1 0 1 1 0
          -1 -1 0 -1 -1 0
          1 1 0 -1 -1 0
          -1 -1 0 -1 -1 0
          -1 -1 0 1 1 0
          -1 -1 0 -1 -1 0
          -1 -1 0 1 1 0
          -1 -1 0 1 1 0
          -1 -1 0 -1 -1 0
          -1 -1 0 -1 -1 0
          -1 -1 0 -1 -1 0
          -1 -1 0 1 1 0
          1 1 0 -1 -1 0
          1 1 0 -1 -1 0
          1 1 0 -1 -1 0
          -1 -1 0 -1 -1 0
          1 1 0 -1 -1 0
          -1 -1 0 -1 -1 0
          -1 -1 0 -1 -1 0
          1 1 0 1 1 0
          -1 -1 0 -1 -1 0
          -1 -1 0 -1 -1 0
          -1 -1 0 -1 -1 0
          1 1 0 -1 -1 0
          -1 -1 0 -1 -1 0
          1 1 0 -1 -1 0
          1 1 0 1 1 0
          -1 -1 0 -1 -1 0
          -1 -1 0 -1 -1 0
          -1 -1 0 1 1 0
          1 1 0 -1 -1 0
          -1 -1 0 -1 -1 0
          -1 -1 0 1 1 0
          -1 -1 0 1 1 0
          -1 -1 0 -1 -1 0
          1 1 0 -1 -1 0
          -1 -1 0 1 1 0
          -1 -1 0 -1 -1 0
          1 1 0 -1 -1 0
          1 1 0 -1 -1 0
          -1 -1 0 1 1 0
          -1 -1 0 -1 -1 0
          -1 -1 0 -1 -1 0
          -1 -1 0 1 1 0
          -1 -1 0 -1 -1 0
          -1 -1 0 -1 -1 0
          -1 -1 0 -1 -1 0
          1 1 0 -1 -1 0
          -1 -1 0 -1 -1 0
          -1 -1 0 -1 -1 0
          -1 -1 0 1 1 0
          -1 -1 0 -1 -1 0
          -1 -1 0 -1 -1 0
          1 1 0 -1 -1 0
          -1 -1 0 -1 -1 0
          -1 -1 0 -1 -1 0
          -1 -1 0 1 1 0
          -1 -1 0 -1 -1 0
          -1 -1 0 -1 -1 0
          -1 -1 0 -1 -1 0
          1 1 0 -1 -1 0
          -1 -1 0 -1 -1 0
          -1 -1 0 -1 -1 0
          -1 -1 0 -1 -1 0
          -1 -1 0 -1 -1 0
          1 1 0 -1 -1 0
          -1 -1 0 -1 -1 0
          -1 -1 0 -1 -1 0
          -1 -1 0 -1 -1 0
          1 1 0 -1 -1 0
          -1 -1 0 -1 -1 0
          -1 -1 0 -1 -1 0
          -1 -1 0 -1 -1 0
          -1 -1 0 -1 -1 0
          1 1 0 -1 -1 0
          -1 -1 0 -1 -1 0
          -1 -1 0 -1 -1 0
          -1 -1 0 -1 -1 0
          -1 -1 0 -1 -1 0
          1 1 0 -1 -1 0
          -1 -1 0 -1 -1 0
          1 1 0 -1 -1 0
          -1 -1 0 -1 -1 0
          -1 -1 0 -1 -1 0
          -1 -1 0 -1 -1 0
          1 1 0 -1 -1 0
          -1 -1 0 -1 -1 0
          -1 -1 0 -1 -1 0
          -1 -1 0 -1 -1 0
          1 1 0 -1 -1 0
          -1 -1 0 1 1 0
          <InformationKey name="L2_NORM_RANGE" location="vtkDataArray" length="2">
            <Value index="0">
              1.4142135624
            </Value>
            <Value index="1">
              1.4142135624
            </Value>
          </InformationKey>
        </DataArray>
        <DataArray type="Float64" Name="Velocity" NumberOfComponents="3" format="ascii" RangeMin="0" RangeMax="1.4148659017405645">
          0 0 0 0.31853631444392 0.02433238366629853 0
          0.7322558659484886 0.1003754451723228 0 0.5148388971444635 0.03662258593262308 0
          0 0 0 0.9999999999999999 0 0
          0.7174124449896633 0.0263345597642152 0 0.36943425950452774 0.021592776693429634 0
          0.6436111945943156 0.037871125228843554 0 0.3113723525794254 0.004795076659586499 0
          0.6664007514119427 0.028799273142659496 0 0.5616401260328566 0.0325393087939143 0
          0.7022483643273374 -0.09764361148590081 0 0.7198583345647492 0.03297841968856022 0
          0.6858462455481851 0.04704406421003642 0 0 0 0
          0.504586148906178 0.02647237360486735 0 0.7273396979056814 0.06048729151666894 0
          0.6054175626042694 -0.004551697429019326 0 0.649293904495706 0.04362265992349355 0
          0.6604637691588336 0.05721680961332718 0 0.6876493408790119 0.06373006317733983 0
          0.4229077426395155 0.036330175293940364 0 0.3487221045928636 -0.028465804304305346 0
          0.7337081957477155 0.09854931792698923 0 0.6417791442510336 0.0798893329728516 0
          0.7432278309605224 0.11890305073858548 0 0.7155290288892414 0.10031127336286248 0
          0.31990078344688055 0.012127421685819836 0 0.569930487708997 0.049719819216153864 0
          0.4446084561965895 0.003748985668505241 0 0.5999971560838874 0.09032082582757447 0
          0 0 0 0.6206271211018284 0.0834324665636172 0
          0.73645968852665 0.15739110711924853 0 0.7576414731790951 0.15521709435512954 0
          0 0 0 0.7792668263363494 0.1913162415968627 0
          0.6537393973138215 0.13878462365945515 0 0.32108864961793065 0.01026790250667576 0
          0.5637823006523199 0.08535636024066158 0 0.20042554009601268 0.00535410021772439 0
          0 0 0 0.46402418436397885 0.05305935977811818 0
          0.7651162878106053 0.18340984055300863 0 0.758674649279013 0.22623013426592842 0
          0.8280533078771134 0.24651203924499665 0 0.6801247888813009 0.209955715935154 0
          0.5157381398294687 0.09726242265783559 0 0.8138052079013476 0.28458800008644264 0
          0.306070976152225 0.026284329727164088 0 0.4600601451662259 0.02477570251951978 0
          0.7942560147690145 0.15362306529134082 0 0.8773097205075979 0.27625849745348746 0
          0.5546536175998734 0.1678354076469518 0 0.6932670770860377 0.2913963485666422 0
          0.8715601018263813 0.34315275799675926 0 0.345824441477371 0.04939680763378193 0
          0.8007077492985931 0.37100218537122326 0 0.5905203666275305 0.2547115548789114 0
          0 0 0 0.9491492366301725 0.36447740393152245 0
          0.707795372939098 0.3732205881248785 0 0.1829440339171496 0.011404579524852769 0
          0.9833136713440864 0.23777110184579292 0 0.3678214436499329 0.09342428735005924 0
          0.4560418764006066 0.1909195796068267 0 0.8750380253592814 0.4241361297357138 0
          0.5926067360473052 0.3329940299669272 0 0 0 0
          0.7472127169955837 0.1029546662558899 0 0.4683836833476877 0.2672010451208001 0
          0.7442254737102093 0.46336530631610773 0 1.0539516157701796 0.3591939705613316 0
          0.9657876281895956 0.4630533695757208 0 0.32373741745948537 0.12582515462980084 0
          0.2110965444099589 0.03635978190096413 0 0.5676391636953255 0.4120789035280908 0
          0.8515240181892412 0.5126460409393637 0 1.1164288981041797 0.28695891769363197 0
          0.4646630656829382 0.34194303833025846 0 0.7277674317367823 0.5134696969973376 0
          0.3394162155902322 0.189386861577724 0 0.2413586323159334 0.06445395125937077 0
          1.0346908449176713 0.19366274754607563 0 0.6087257999210269 0.4951164754388722 0
          0.962060705330777 0.5229521225301866 0 0.3407520287763789 0.25963480514731907 0
          0 0 0 0.8326469048191564 0.08460974081726409 0
          1.190586451790063 0.3830230891127508 0 0.7905927655093384 0.5637496818565828 0
          0.4385853213464133 0.420783734174711 0 0.6418779399639358 0.5532713261163567 0
          1.2243109071682143 0.2766411920819916 0 0.229777312898333 0.11960750020827172 0
          0.3126047024261709 0.306621145118208 0 0.12023984476278261 0.016266609344045814 0
          0.2410133367036647 0.18360181833857597 0 0.4774566022989189 0.011008151874980141 0
          0.9333704154789593 0.5634190421046391 0 0.4222329379101919 0.4780134003595523 0
          1.1482513405470594 0.4725077845586457 0 0.24392453955628587 0.24591854095604354 0
          0.6969793294964061 0.5867290638956467 0 0.27861716614534615 0.3466366893625112 0
          1.1689012334234796 0.1424362230061602 0 1.294497023870978 0.3314873079745669 0
          0.13805167036062313 0.043830853922602254 0 0.5218245969481499 0.557891202376669 0
          0.8062061693319785 0.5709509813719448 0 0.2010509050069863 0.2674878427538144 0
          0.3255054497670892 0.45484361719719374 0 1.0818171204485687 0.48564020308429956 0
          0.9180050818404848 0.029065690099343726 0 0.133656541451895 0.07090109604852957 0
          0.5571667157728586 0.5576264282649268 0 0.21660945159481104 0.34734097498947375 0
          1.270902238074937 0.3583045928008936 0 1.3479816192998972 0.19615667319073088 0
          0.1394865382321171 0.1233423127333987 0 0 0 0
          0.15141207494028616 0.1916955051958309 0 0.32676296618984213 0.480619217002636 0
          1.356146588178315 0.2598959677559783 0 0.16732767694014392 0.27890755260426403 0
          0.05807376501722654 0.00815329192204843 0 0.6567093171904737 0.5071483156078825 0
          0.1555083589354116 0.3277169126620315 0 0.9882726201078996 0.42375622689603654 0
          0.36404677499012517 0.4555714625532399 0 0.10931597497409741 0.19576384228284857 0
          1.18095788411514 0.3401754917667149 0 0.07686222836977494 0.03071498857808379 0
          0.10113531897784547 0.1285763464464489 0 1.2501849725434777 0.05978541283521132 0
          1.3157359604497938 0.2561953551355181 0 0.16267730149062212 0.3428058813997034 0
          0.08362167601133429 0.19019081197288723 0 1.4025997772531145 0.15660344107302993 0
          0.4293450750957005 0.3582249197602844 0 0.08446262119749195 0.0939809921221203 0
          0.07391393928461258 0.24028926576709006 0 0.06919589554899985 0.043365379011646825 0
          0.7665232918253428 0.3084570869188086 0 0.07707144472391349 0.12714688595532966 0
          0.06780457228861725 0.20543083335006065 0 0.0709073482920204 0.2069257022199981 0
          0 0 0 0.08466641478701133 0.21654076387771676 0
          0.9964323966443185 0.25490643204351937 0 1.3999936350461561 0.0832399546306494 0
          1.1957339790797799 0.21239926109641688 0 0.041042448046064946 0.15446719569760953 0
          0.05769463244969892 0.05610505355758354 0 0.04660331537972888 0.11873290458869762 0
          0.9257572020741703 0.007743651725217958 0 0.03216567596807099 0.13658265317447124 0
          0.02162708184670497 0.1209011627669502 0 0 0 0
          0.05334284114866093 0.08399789962089248 0 0.4023963003425884 0.07079252544067419 0
          0 0 0 0.707803814469901 0.1132732758628737 0
          0 0 0 0.017532242762120755 0.09155539172130793 0
          0.028991472868362792 0.1060560833561336 0 0.03782457921177384 0.013517706901661163 0
          1.3298821724966305 0.07319614096621356 0 0 0 0
          0.011060633183312364 0.06780501698625765 0 0.04039347555447223 0.05442102923692466 0
          0.9291421677439986 0.07718565350868664 0 0.03179241287968821 0.07348852476646957 0
          0 0 0 0.01845960043683833 0.0752054156701748 0
          0 0 0 1.414780195990161 0.01557295547360087 0
          0.3550072574980862 0.02813218981941613 0 0.006608835968428987 0.05455441949595586 0
          1.1313526377257714 0.032371981672128965 0 0.01782215651294748 0.06561902403345123 0
          0.6750525682322566 0.040609712436230204 0 0.03068850823493827 0.021803548124260753 0
          0 0 0 0.006797857138256823 0.04233868199365983 0
          1.406518846837459 -0.021528056862036106 0 0 0 0
          0 0 0 0.013334728680073116 0.04541887201213674 0
          0.02391084833041075 0.025225751949682903 0 0.004794691137578512 0.033785600919056795 0
          0.018332369371632556 0.03889974636650773 0 0.33594892003873794 0.00039630388774270577 0
          0.012346073043803174 0.03855009859918674 0 0 0 0
          1.2547439289924482 -0.041533080452534725 0 0.6599974887254696 -0.02122173129185617 0
          0.9414638832279973 -0.051547179067866156 0 0.0043255987442318376 0.025847369613682513 0
          1.1538900132940135 -0.0881487434608899 0 0.016550250647092615 0.0056351026602546655 0
          0 0 0 0 0 0
          0.014007952788191148 0.022359918187412245 0 0 0 0
          1.3146213126715316 -0.10688415953839285 0 0.00791365565178229 0.025044914935497587 0
          0.0036208746419018794 0.019509881257305683 0 0.341576543008447 -0.0258203059602982 0
          0 0 0 1.3931467632007088 -0.11593273058246645 0
          0.007513474866231858 0.019227902247764314 0 0.673722863235256 -0.11893447380030858 0
          0.011143408976614564 0.00958220753043322 0 0.002834439987900228 0.013911964347003343 0
          0 0 0 0.9258357404272863 -0.16242737569824106 0
          0.004702576574268991 0.014600699878839937 0 1.3752830112171908 -0.11599435109740132 0
          0 0 0 0.002461837499186467 0.009989299484142847 0
          1.1291766285932419 -0.18798859840602172 0 0 0 0
          0 0 0 0.3891002205377073 -0.16648768812997233 0
          0.005965678094887236 0.0076439201200457045 0 0.004632235557147386 0.009420826425801838 0
          0.9458063020965335 -0.045204669758428795 0 0.0014489128599156536 0.006505076081517062 0
          1.2800212522873653 -0.19616535098056065 0 1.2119731307095123 -0.08973058346754752 0
          0.005926099521323296 0.0019874835395775167 0 0 0 0
          0 0 0 0.6684605999320137 -0.2300137633353552 0
          0 0 0 0 0 0
          0.0008599888606062694 0.004456025207688977 0 0.045712867119038214 -0.07200676406414176 0
          0 0 0 0.002592089163165283 0.005184140895380683 0
          1.35709513410769 -0.19674787628087204 0 0.8977494654870246 -0.26132706503276965 0
          0.0032853349403317317 0.0024930527208536293 0 0 0 0
          0.025745571690413926 -0.03144174971553349 0 0.0010009107474331833 0.0025305863195542928 0
          0.0021912012554256323 0.0030776776591399297 0 0 0 0
          0.01478297724247602 -0.006448285755249717 0 0 0 0
          0.3078576882629979 -0.20380796971718257 0 1.3244444298679645 -0.17131844454939693 0
          0.0009819388396477577 0.0017229563317401224 0 1.056481403134534 -0.29245839099755705 0
          0.006186603890093631 0.010492546275823907 0 0.0018370695184891383 0.00043849448890489936 0
          0.0007394299540024373 0.0013712677721904576 0 0 0 0
          0 0 0 0.10100780365268738 -0.10318647731513887 0
          0 0 0 0.002094162810707557 0.015977670327828618 0
          0 0 0 1.2265322781424497 -0.2834688752550733 0
          0.06366182559513954 -0.05441773514274752 0 0.0009710244296586459 0.0006940161655024426 0
          0 0 0 0.0003338891336128985 0.0004508173803793213 0
          0.25639965925380964 -0.007559148309417573 0 0.5364272905829269 -0.275293260376635 0
          0.0012149457118677872 0.019150505348242385 0 1.1649374145622693 -0.13975344253950742 0
          0 0 0 0 0 0
          0.0009581073596396791 0.020283179390243416 0 0.00018730294228562009 0.00013133923906225408 0
          0.28858326637307186 -0.2048163719285128 0 0.016630001298475687 -0.0002872081915526941 0
          0.05154491932659098 -0.03369187891552437 0 0.7697994724595015 -0.31850594585366965 0
          0 0 0 1.2919908466584094 -0.2552953106975393 0
          0.13788724293129187 -0.11356083745906166 0 0.000016677784131333703 0.021296104016806535 0
          0 0 0 0.010075372155584223 0.014301066023786516 0
          0 0 0 0 0 0
          0.004305175459350376 0.023283254705970948 0 0.00009922151672149844 -0.00015261627924122737 0
          -0.0006222717226699528 0.02072002988806858 0 0.0037625104552305552 0.027897604742583983 0
          0.7967314715468834 -0.09033900371056318 0 0 0 0
          0 0 0 0.47823621653273174 -0.27533340793177324 0
          -0.0005330041969527777 0.01989787334054178 0 0.9387273137330236 -0.33547508880445626 0
          1.2491304331247874 -0.2228304995752636 0 0 0 0
          0.03365808458190784 -0.008031275167966215 0 0 0 0
          0.3047992389212773 -0.20859912630705987 0 -0.00024053603990997966 0.032390725344481626 0
          0 0 0 -0.0008771196108487281 0.018538030373115702 0
          0.012530590765639983 0.024559505010041085 0 0 0 0
          -0.000790890188229359 0.03331603931722703 0 0.15727368810396114 -0.11267525513785649 0
          0 0 0 -0.0011907044511349546 0.0168403963027405 0
          0 0 0 -0.0019728575184442365 0.03003713055759213 0
          0.6570935060257402 -0.319114114375367 0 0 0 0
          -0.001468717171920042 0.014407210132560225 0 -0.0026830932392321646 0.028026168373463483 0
          1.0948944490309533 -0.16104973538721928 0 0.4662085847999171 -0.2687017652151509 0
          0.0030068052365079586 0.03500581107875868 0 0 0 0
          -0.0016549826722050973 0.01179935923095433 0 1.2153003737932166 -0.29931309336967954 0
          0.050214641110550975 -0.014993821399676078 0 -0.0048738076525982445 0.026942615893820864 0
          1.0433173882883497 -0.3572413319801803 0 0.29801199230939884 -0.19466003643970062 0
          0 0 0 -0.0014373304027979507 0.009318428377344236 0
          -0.004382563783392278 0.03679607161927736 0 0.13448087537406592 -0.08831622150121071 0
          -0.005346563026198911 0.022835117387448756 0 0.027737760306610716 0.00828273788007309 0
          0.8176141013848589 -0.35084439623896374 0 0 0 0
          -0.0013788033153361386 0.006820191658207481 0 -0.004721195901989149 0.017471108591453708 0
          0.625305096260088 -0.3074968970455073 0 0.7149122352940986 -0.08115921231090162 0
          0 0 0 -0.0013555502215277994 0.004495482970481448 0
          -0.010729909546777038 0.02982044552219913 0 -0.005116281024915679 0.014321782223164315 0
          0.0037883732036400135 0.028235241508351737 0 0.4522462755776161 -0.2514408015214302 0
          0.07282250296769276 -0.04093793587509392 0 0 0 0
          -0.001166101423824443 0.002374993750701561 0 1.1115567966947204 -0.34835054636775376 0
          -0.004807568714699892 0.010204065015543017 0 -0.011088146702419987 0.022804172252198045 0
          0.2961713570592426 -0.1833225090572492 0 1.1593903417168105 -0.29227450805324595 0
          0 0 0 0.9575705059630097 -0.3544228926918376 0
          -0.004388003999311054 0.006688157712120342 0 -0.00047354913956738475 0.000592597439263793 0
          0.0414038404072478 -0.008384390856198963 0 -0.010673570222493385 0.015605171039859766 0
          0.15189357544437773 -0.10111780618910371 0 -0.0032040250554196997 0.003487562869026737 0
          0.673820493181345 -0.31037730606305236 0 -0.012822490200542111 0.022248835995155643 0
          0 0 0 1.022078402609185 -0.20422218146365045 0
          0.3227711760794185 -0.017569295481818355 0 -0.008258074205213394 0.007357673482707366 0
          -0.018911990492236287 0.020200838711851864 0 -0.016901647086543882 0.016784598783304343 0
          0.0984977932365475 -0.05991186317424224 0 0.4252387516155372 -0.23944313303088707 0
          0 0 0 -0.003734757246535694 0.001712543427768932 0
          1.0491825514331126 -0.3173646150979733 0 -0.0014090593019426849 -0.0070175200577983566 0
          -0.016150410437502958 0.009179644232120922 0 -0.020003143559730895 0.007711968344267408 0
          0.8260857739178084 -0.3203870680056839 0 0.1974725385231605 -0.13415442997085505 0
          0.5629502935550833 -0.0730594145718655 0 -0.023410627133902337 0.010178233596354 0
          0 0 0 -0.009539417651423776 0.0026533146738779738 0
          0.5643033460403805 -0.2791927709360014 0 1.0990460307641676 -0.26470071296977377 0
          0.04312252485618508 -0.05317179111643583 0 0.3419663248790058 -0.2109757381560652 0
          -0.007223036349702724 -0.017408946062485667 0 -0.022221642485334505 -0.00207124994137932 0
          -0.016706526741587187 0.0022116629040985084 0 0.9839895794266847 -0.3095089041098359 0
          0 0 0 -0.022257552574853998 0.0028362290301711473 0
          0.7483383128183893 -0.3261755127221365 0 0.4835642331363858 -0.2746676623549991 0
          0 0 0 0.1266992221488239 -0.11953771570224397 0
          0.02670657893852399 -0.056748207577851824 0 0.982860546616672 -0.09326266275338338 0
          -0.006952548057230622 -0.025880729974420865 0 -0.016332018553128075 0.0009558387101218365 0
          -0.017695927620891817 -0.007521985551750864 0 0.272150815135565 -0.2132055082651654 0
          0 0 0 1.0006352075000648 -0.37648993351103816 0
          -0.013177123523244577 -0.00009366755386015179 0 0.0944731312497141 -0.12892954127683323 0
          0.022836531094719652 -0.056912698577255456 0 0.5621521725259195 -0.4143265609906359 0
          -0.0010052626245036906 -0.016770004753892717 0 0.238013153075296 -0.2824646459495233 0
          0 0 0 0.026407931150493707 -0.03601078075493558 0
          0.09217194684152918 -0.11034698225303614 0 0 0 0
          <InformationKey name="L2_NORM_RANGE" location="vtkDataArray" length="2">
            <Value index="0">
              0
            </Value>
            <Value index="1">
              1.4148659017
            </Value>
          </InformationKey>
        </DataArray>
        <DataArray type="Float64" Name="Pressure" format="ascii" RangeMin="-8.342309685801794" RangeMax="36.92013731757076">
          36.25880297376808 36.4169085518503 36.74375285144627 36.193828362205274 36.01076752562313 36.7857135096587
          36.05676624840129 35.504140430859884 35.364880193888 34.59997364167088 36.10822613837624 34.387421339129695
          36.92013731757076 35.31610569172968 34.39825661440011 33.597150887021364 33.44611455164353 34.50964852361944
          36.49505145534031 35.55075605512334 33.312103314451136 34.76755225335347 32.38324872804029 36.885528998122425
          33.51039242691349 32.2188921756022 32.33722265670774 33.93738859630151 31.45823716252623 34.936450318349024
          35.91139488077495 30.903312615111258 36.70567417085425 34.20722340196529 33.105091406029544 31.18503023830385
          30.37850315846097 31.599081729849793 33.55792206640182 35.19468065982961 29.529292410574023 35.605495397125416
          36.726777562564756 34.374403658032605 29.6915259897531 32.170631889739376 30.183141600914873 32.840024506192464
          33.883937891177666 30.807676716106837 34.49049909430007 27.57766873934908 27.904411804000002 28.55023833381452
          33.44077824396525 32.115629588669336 29.38883661877192 34.01284634361055 30.267811261404315 32.826235580152314
          34.72116268624043 27.56244297711448 31.220760219603374 34.10110032327997 25.89502374384037 33.78807023289482