<?xml version="1.0"?>
<VTKFile type="UnstructuredGrid" version="0.1" byte_order="LittleEndian" header_type="UInt32" compressor="vtkZLibDataCompressor">
  <UnstructuredGrid>
    <Piece NumberOfPoints="418" NumberOfCells="757">
      <PointData>
        <DataArray type="Float64" Name="nsi_BC" NumberOfComponents="3" format="ascii" RangeMin="0" RangeMax="1">
          0 0 0 0 0 0
          0 0 0 0 0 0
          0 0 0 1 0 0
          0 0 0 0 0 0
          0 0 0 0 0 0
          0 0 0 0 0 0
          0 0 0 0 0 0
          0 0 0 0 0 0
          0 0 0 0 0 0
          0 0 0 0 0 0
          0 0 0 0 0 0
          0 0 0 0 0 0
          0 0 0 0 0 0
          0 0 0 0 0 0
          0 0 0 0 0 0
          0 0 0 0 0 0
          0 0 0 0 0 0
          0 0 0 0 0 0
          0 0 0 0 0 0
          0 0 0 0 0 0
          0 0 0 0 0 0
          0 0 0 0 0 0
          0 0 0 0 0 0
          0 0 0 0 0 0
          0 0 0 0 0 0
          0 0 0 0 0 0
          0 0 0 0 0 0
          0 0 0 0 0 0
          0 0 0 0 0 0
          0 0 0 0 0 0
          0 0 0 0 0 0
          0 0 0 0 0 0
          0 0 0 0 0 0
          0 0 0 0 0 0
          0 0 0 0 0 0
          0 0 0 0 0 0
          0 0 0 0 0 0
          0 0 0 0 0 0
          0 0 0 0 0 0
          0 0 0 0 0 0
          0 0 0 0 0 0
          0 0 0 0 0 0
          0 0 0 0 0 0
          0 0 0 0 0 0
          0 0 0 0 0 0
          0 0 0 0 0 0
          0 0 0 0 0 0
          0 0 0 0 0 0
          0 0 0 0 0 0
          0 0 0 0 0 0
          0 0 0 0 0 0
          0 0 0 0 0 0
          0 0 0 0 0 0
          0 0 0 0 0 0
          0 0 0 0 0 0
          0 0 0 0 0 0
          0 0 0 0 0 0
          0 0 0 0 0 0
          0 0 0 0 0 0
          0 0 0 0 0 0
          0 0 0 0 0 0
          0 0 0 0 0 0
          0 0 0 0 0 0
          0 0 0 0 0 0
          0 0 0 0 0 0
          0 0 0 0 0 0
          0 0 0 0 0 0
          0 0 0 0 0 0
          0 0 0 0 0 0
          0 0 0 0 0 0
          0 0 0 0 0 0
          0 0 0 0 0 0
          0 0 0 0 0 0
          0 0 0 0 0 0
          0 0 0 0 0 0
          0 0 0 0 0 0
          0 0 0 0 0 0
          0 0 0 0 0 0
          0 0 0 0 0 0
          0 0 0 0 0 0
          0 0 0 0 0 0
          0 0 0 0 0 0
          0 0 0 0 0 0
          0 0 0 0 0 0
          0 0 0 0 0 0
          0 0 0 0 0 0
          0 0 0 0 0 0
          0 0 0 0 0 0
          0 0 0 0 0 0
          0 0 0 0 0 0
          0 0 0 0 0 0
          0 0 0 0 0 0
          0 0 0 0 0 0
          0 0 0 0 0 0
          0 0 0 0 0 0
          0 0 0 0 0 0
          0 0 0 0 0 0
          0 0 0 0 0 0
          0 0 0 0 0 0
          0 0 0 0 0 0
          0 0 0 0 0 0
          0 0 0 0 0 0
          0 0 0 0 0 0
          0 0 0 0 0 0
          0 0 0 0 0 0
          0 0 0 0 0 0
          0 0 0 0 0 0
          0 0 0 0 0 0
          0 0 0 0 0 0
          0 0 0 0 0 0
          0 0 0 0 0 0
          0 0 0 0 0 0
          0 0 0 0 0 0
          0 0 0 0 0 0
          0 0 0 0 0 0
          0 0 0 0 0 0
          0 0 0 0 0 0
          0 0 0 0 0 0
          0 0 0 0 0 0
          0 0 0 0 0 0
          0 0 0 0 0 0
          0 0 0 0 0 0
          0 0 0 0 0 0
          0 0 0 0 0 0
          0 0 0 0 0 0
          0 0 0 0 0 0
          0 0 0 0 0 0
          0 0 0 0 0 0
          0 0 0 0 0 0
          0 0 0 0 0 0
          0 0 0 0 0 0
          0 0 0 0 0 0
          0 0 0 0 0 0
          0 0 0 0 0 0
          0 0 0 0 0 0
          0 0 0 0 0 0
          0 0 0 0 0 0
          0 0 0 0 0 0
          0 0 0 0 0 0
          0 0 0 0 0 0
          0 0 0 0 0 0
          0 0 0 0 0 0
          0 0 0 0 0 0
          0 0 0 0 0 0
          0 0 0 0 0 0
          0 0 0 0 0 0
          0 0 0 0 0 0
          0 0 0 0 0 0
          0 0 0 0 0 0
          0 0 0 0 0 0
          0 0 0 0 0 0
          0 0 0 0 0 0
          0 0 0 0 0 0
          0 0 0 0 0 0
          0 0 0 0 0 0
          0 0 0 0 0 0
          0 0 0 0 0 0
          0 0 0 0 0 0
          0 0 0 0 0 0
          0 0 0 0 0 0
          0 0 0 0 0 0
          0 0 0 0 0 0
          0 0 0 0 0 0
          0 0 0 0 0 0
          0 0 0 0 0 0
          0 0 0 0 0 0
          0 0 0 0 0 0
          0 0 0 0 0 0
          0 0 0 0 0 0
          0 0 0 0 0 0
          0 0 0 0 0 0
          0 0 0 0 0 0
          0 0 0 0 0 0
          0 0 0 0 0 0
          0 0 0 0 0 0
          0 0 0 0 0 0
          0 0 0 0 0 0
          0 0 0 0 0 0
          0 0 0 0 0 0
          0 0 0 0 0 0
          0 0 0 0 0 0
          0 0 0 0 0 0
          0 0 0 0 0 0
          0 0 0 0 0 0
          0 0 0 0 0 0
          0 0 0 0 0 0
          0 0 0 0 0 0
          0 0 0 0 0 0
          0 0 0 0 0 0
          0 0 0 0 0 0
          0 0 0 0 0 0
          0 0 0 0 0 0
          0 0 0 0 0 0
          0 0 0 0 0 0
          0 0 0 0 0 0
          0 0 0 0 0 0
          0 0 0 0 0 0
          0 0 0 0 0 0
          0 0 0 0 0 0
          0 0 0 0 0 0
          0 0 0 0 0 0
          0 0 0 0 0 0
          0 0 0 0 0 0
          0 0 0 0 0 0
          0 0 0 0 0 0
          0 0 0 0 0 0
          0 0 0 0 0 0
          0 0 0 0 0 0
          0 0 0 0 0 0
          <InformationKey name="L2_NORM_RANGE" location="vtkDataArray" length="2">
            <Value index="0">
              0
            </Value>
            <Value index="1">
              1
            </Value>
          </InformationKey>
        </DataArray>
        <DataArray type="Float64" Name="nsi_FIXNO" NumberOfComponents="3" format="ascii" RangeMin="1.4142135623730951" RangeMax="1.4142135623730951">
          1 1 0 -1 -1 0
          -1 -1 0 -1 -1 0
          1 1 0 1 1 0
          -1 -1 0 -1 -1 0
          -1 -1 0 -1 -1 0
          -1 -1 0 -1 -1 0
          -1 -1 0 -1 -1 0
          -1 -1 0 1 1 0
          -1 -1 0 -1 -1 0
          -1 -1 0 -1 -1 0
          -1 -1 0 -1 -1 0
          -1 -1 0 -1 -1 0
          -1 -1 0 -1 -1 0
          -1 -1 0 -1 -1 0
          -1 -1 0 -1 -1 0
          -1 -1 0 -1 -1 0
          1 1 0 -1 -1 0
          -1 -1 0 -1 -1 0
          1 1 0 -1 -1 0
          -1 -1 0 -1 -1 0
          -1 -1 0 -1 -1 0
          1 1 0 -1 -1 0
          -1 -1 0 -1 -1 0
          -1 -1 0 -1 -1 0
          -1 -1 0 -1 -1 0
          -1 -1 0 -1 -1 0
          -1 -1 0 -1 -1 0
          -1 -1 0 -1 -1 0
          -1 -1 0 -1 -1 0
          -1 -1 0 -1 -1 0
          1 1 0 -1 -1 0
          -1 -1 0 -1 -1 0
          -1 -1 0 -1 -1 0
          -1 -1 0 -1 -1 0
          -1 -1 0 1 1 0
          -1 -1 0 -1 -1 0
          -1 -1 0 -1 -1 0
          -1 -1 0 -1 -1 0
          -1 -1 0 -1 -1 0
          -1 -1 0 -1 -1 0
          -1 -1 0 -1 -1 0
          -1 -1 0 -1 -1 0
          -1 -1 0 -1 -1 0
          -1 -1 0 -1 -1 0
          1 1 0 -1 -1 0
          -1 -1 0 -1 -1 0
          -1 -1 0 -1 -1 0
          -1 -1 0 -1 -1 0
          -1 -1 0 -1 -1 0
          -1 -1 0 -1 -1 0
          -1 -1 0 -1 -1 0
          -1 -1 0 -1 -1 0
          -1 -1 0 -1 -1 0
          -1 -1 0 -1 -1 0
          -1 -1 0 -1 -1 0
          -1 -1 0 -1 -1 0
          -1 -1 0 -1 -1 0
          -1 -1 0 -1 -1 0
          -1 -1 0 -1 -1 0
          -1 -1 0 -1 -1 0
          -1 -1 0 1 1 0
          -1 -1 0 -1 -1 0
          -1 -1 0 -1 -1 0
          -1 -1 0 -1 -1 0
          -1 -1 0 -1 -1 0
          -1 -1 0 -1 -1 0
          -1 -1 0 -1 -1 0
          -1 -1 0 -1 -1 0
          -1 -1 0 -1 -1 0
          -1 -1 0 -1 -1 0
          -1 -1 0 -1 -1 0
          -1 -1 0 -1 -1 0
          -1 -1 0 -1 -1 0
          -1 -1 0 -1 -1 0
          1 1 0 -1 -1 0
          -1 -1 0 -1 -1 0
          -1 -1 0 -1 -1 0
          -1 -1 0 -1 -1 0
          -1 -1 0 -1 -1 0
          -1 -1 0 1 1 0
          -1 -1 0 -1 -1 0
          1 1 0 -1 -1 0
          1 1 0 -1 -1 0
          -1 -1 0 -1 -1 0
          -1 -1 0 1 1 0
          -1 -1 0 -1 -1 0
          -1 -1 0 -1 -1 0
          1 1 0 -1 -1 0
          1 1 0 -1 -1 0
          -1 -1 0 -1 -1 0
          -1 -1 0 -1 -1 0
          -1 -1 0 -1 -1 0
          1 1 0 -1 -1 0
          -1 -1 0 1 1 0
          1 1 0 -1 -1 0
          -1 -1 0 -1 -1 0
          -1 -1 0 -1 -1 0
          -1 -1 0 1 1 0
          -1 -1 0 -1 -1 0
          -1 -1 0 -1 -1 0
          -1 -1 0 -1 -1 0
          1 1 0 1 1 0
          -1 -1 0 1 1 0
          -1 -1 0 -1 -1 0
          -1 -1 0 -1 -1 0
          1 1 0 -1 -1 0
          -1 -1 0 -1 -1 0
          -1 -1 0 -1 -1 0
          1 1 0 -1 -1 0
          -1 -1 0 -1 -1 0
          1 1 0 -1 -1 0
          -1 -1 0 1 1 0
          1 1 0 -1 -1 0
          -1 -1 0 -1 -1 0
          -1 -1 0 -1 -1 0
          -1 -1 0 -1 -1 0
          -1 -1 0 1 1 0
          1 1 0 -1 -1 0
          1 1 0 1 1 0
          -1 -1 0 -1 -1 0
          1 1 0 -1 -1 0
          -1 -1 0 -1 -1 0
          -1 -1 0 1 1 0
          -1 -1 0 -1 -1 0
          -1 -1 0 1 1 0
          -1 -1 0 1 1 0
          -1 -1 0 -1 -1 0
          -1 -1 0 -1 -1 0
          -1 -1 0 -1 -1 0
          -1 -1 0 1 1 0
          1 1 0 -1 -1 0
          1 1 0 -1 -1 0
          1 1 0 -1 -1 0
          -1 -1 0 -1 -1 0
          1 1 0 -1 -1 0
          -1 -1 0 -1 -1 0
          -1 -1 0 -1 -1 0
          1 1 0 1 1 0
          -1 -1 0 -1 -1 0
          -1 -1 0 -1 -1 0
          -1 -1 0 -1 -1 0
          1 1 0 -1 -1 0
          -1 -1 0 -1 -1 0
          1 1 0 -1 -1 0
          1 1 0 1 1 0
          -1 -1 0 -1 -1 0
          -1 -1 0 -1 -1 0
          -1 -1 0 1 1 0
          1 1 0 -1 -1 0
          -1 -1 0 -1 -1 0
          -1 -1 0 1 1 0
          -1 -1 0 1 1 0
          -1 -1 0 -1 -1 0
          1 1 0 -1 -1 0
          -1 -1 0 1 1 0
          -1 -1 0 -1 -1 0
          1 1 0 -1 -1 0
          1 1 0 -1 -1 0
          -1 -1 0 1 1 0
          -1 -1 0 -1 -1 0
          -1 -1 0 -1 -1 0
          -1 -1 0 1 1 0
          -1 -1 0 -1 -1 0
          -1 -1 0 -1 -1 0
          -1 -1 0 -1 -1 0
          1 1 0 -1 -1 0
          -1 -1 0 -1 -1 0
          -1 -1 0 -1 -1 0
          -1 -1 0 1 1 0
          -1 -1 0 -1 -1 0
          -1 -1 0 -1 -1 0
          1 1 0 -1 -1 0
          -1 -1 0 -1 -1 0
          -1 -1 0 -1 -1 0
          -1 -1 0 1 1 0
          -1 -1 0 -1 -1 0
          -1 -1 0 -1 -1 0
          -1 -1 0 -1 -1 0
          1 1 0 -1 -1 0
          -1 -1 0 -1 -1 0
          -1 -1 0 -1 -1 0
          -1 -1 0 -1 -1 0
          -1 -1 0 -1 -1 0
          1 1 0 -1 -1 0
          -1 -1 0 -1 -1 0
          -1 -1 0 -1 -1 0
          -1 -1 0 -1 -1 0
          1 1 0 -1 -1 0
          -1 -1 0 -1 -1 0
          -1 -1 0 -1 -1 0
          -1 -1 0 -1 -1 0
          -1 -1 0 -1 -1 0
          1 1 0 -1 -1 0
          -1 -1 0 -1 -1 0
          -1 -1 0 -1 -1 0
          -1 -1 0 -1 -1 0
          -1 -1 0 -1 -1 0
          1 1 0 -1 -1 0
          -1 -1 0 -1 -1 0
          1 1 0 -1 -1 0
          -1 -1 0 -1 -1 0
          -1 -1 0 -1 -1 0
          -1 -1 0 -1 -1 0
          1 1 0 -1 -1 0
          -1 -1 0 -1 -1 0
          -1 -1 0 -1 -1 0
          -1 -1 0 -1 -1 0
          1 1 0 -1 -1 0
          -1 -1 0 1 1 0
          <InformationKey name="L2_NORM_RANGE" location="vtkDataArray" length="2">
            <Value index="0">
              1.4142135624
            </Value>
            <Value index="1">
              1.4142135624
            </Value>
          </InformationKey>
        </DataArray>
        <DataArray type="Float64" Name="Velocity" NumberOfComponents="3" format="ascii" RangeMin="0" RangeMax="1.414983096577588">
          0 0 0 0.31853660331376576 0.024337519334013336 0
          0.7322407489518318 0.10039580074800072 0 0.514872545584508 0.0366832113142596 0
          0 0 0 0.9999999999999999 0 0
          0.7173902053937706 0.026472314859052663 0 0.36955789836868413 0.02169633493793752 0
          0.6437392497634076 0.03812810164196384 0 0.31159657538590935 0.0048377920578469924 0
          0.6663690509389011 0.028886189200072014 0 0.5619948334475847 0.03278149904270265 0
          0.7022477757662822 -0.09765817995026772 0 0.7198237491145969 0.03341316281791354 0
          0.6861161303799932 0.04753819052501497 0 0 0 0
          0.505137517812747 0.026628877500840694 0 0.7274848937563445 0.061199806124860215 0
          0.6054127044946283 -0.004512025125224401 0 0.6491676381305969 0.0439500312481812 0
          0.6611211194977235 0.057591839367467694 0 0.6875136780634398 0.06457298062832241 0
          0.42344404256218066 0.0363923621578242 0 0.3487351993337947 -0.028469627623949327 0
          0.7342521246899786 0.09932262611268108 0 0.6426451785826229 0.08005959730464349 0
          0.7442394988208086 0.11929497332192644 0 0.7156751130519663 0.10136355456313934 0
          0.32030124766036644 0.012126202768954337 0 0.5696120238352126 0.05043668915633441 0
          0.44454181679430893 0.003910827126721905 0 0.6008025742077642 0.09029398326338701 0
          0 0 0 0.6202326209701768 0.08449556098977185 0
          0.7370296502936615 0.1582548131048315 0 0.758812508642754 0.15528452872455192 0
          0 0 0 0.7804805508557484 0.19150699790558626 0
          0.6536139890687265 0.13976907039432404 0 0.3207929513357828 0.010476738300939849 0
          0.5643668178181922 0.08523777163790006 0 0.2003400739045708 0.005385731633612977 0
          0 0 0 0.4632836931625879 0.05380843792085247 0
          0.7661833023778424 0.18321439506546758 0 0.7595805364647878 0.2265842695618496 0
          0.8293726106751047 0.2463042386217298 0 0.6804395917033689 0.21044580954103714 0
          0.514830637910779 0.09810921094632001 0 0.8150978815161914 0.28440706197964993 0
          0.3053566313807694 0.026660089380131285 0 0.4603022043506249 0.024721759238432714 0
          0.7950004504056191 0.15334446553057368 0 0.8784869102482095 0.27579680025370557 0
          0.5540384421005388 0.16833548630807518 0 0.6938510711773986 0.2912076379812049 0
          0.8728661727097002 0.3425690473571096 0 0.3445828744014862 0.04982055948449346 0
          0.8018633180088238 0.3703251421109691 0 0.5904325409804311 0.2545825927599559 0
          0 0 0 0.9502849006435546 0.3637232881354374 0
          0.7084820882645486 0.372414334934465 0 0.18217519891716302 0.011523096153186545 0
          0.9839915031010695 0.2372880480502823 0 0.3663117647093626 0.09372002919763876 0
          0.4550831596420581 0.19077034276849944 0 0.8761503371089789 0.4231583710374718 0
          0.5928064362266968 0.3321753377591322 0 0 0 0
          0.7473138934393359 0.10275772627146534 0 0.46785345299259495 0.2664554986015772 0
          0.7450331015976798 0.4621432797428869 0 1.0547683681226745 0.3584457588881342 0
          0.9667339479301064 0.4620085433551388 0 0.32228786256923936 0.12557776903246237 0
          0.20978229628397693 0.03648334158993942 0 0.5678860659952585 0.41073290301712334 0
          0.8523597057447938 0.5113561427264983 0 1.116941963019377 0.28640500618140774 0
          0.4644645111911421 0.34064591092873425 0 0.7284110235973403 0.5120187961105884 0
          0.33827023560487846 0.18865988178897658 0 0.23978973905526926 0.06439297374306575 0
          1.0349247300033466 0.1933431614877107 0 0.6091338362779237 0.493527821712246 0
          0.9627500559631985 0.5217440140246861 0 0.3400161496690058 0.25841749732990044 0
          0 0 0 0.8325807178994612 0.08449631306897394 0
          1.191105788354646 0.3823198283719386 0 0.7911482052512698 0.5623048890940957 0
          0.4386149701676573 0.4190975992303303 0 0.6422694430107877 0.551679339163629 0
          1.2245916202400322 0.27622114547270327 0 0.22840978609830073 0.11897352040316335 0
          0.31215116890590344 0.3050434362964671 0 0.11914581984837651 0.016230292301835196 0
          0.23994971722024847 0.1824895803096187 0 0.4773288892326839 0.01100041556303225 0
          0.9337810193531539 0.5622329119703541 0 0.4223450229301269 0.4762708130000798 0
          1.1486716169785751 0.47168784641612277 0 0.24323485064704486 0.24442694991111885 0
          0.6972848295035622 0.5852950646530629 0 0.27839190908337996 0.3448990438387607 0
          1.1689324066509656 0.14232399942356955 0 1.2948045231903111 0.33105237334993237 0
          0.1367238873167054 0.04357333353582421 0 0.5220231668655273 0.556340580022156 0
          0.8064149424892586 0.5698393853052488 0 0.20062852734885553 0.2658481068723899 0
          0.3255609456022104 0.4532401051368015 0 1.0820701737542662 0.48486780955856035 0
          0.9178510719278918 0.02909750762080279 0 0.1324284309121018 0.07034713312520897 0
          0.557295045993359 0.5563745618138372 0 0.2164965996018061 0.3456622015596174 0
          1.2711317980431776 0.35788933799701306 0 1.3481000713913778 0.19607048958583814 0
          0.13854792547679787 0.12229617630498615 0 0 0 0
          0.15084125101343573 0.19026176734010009 0 0.3268283124772304 0.4792728638109086 0
          1.3563491317874967 0.2597062843896895 0 0.16710844046601575 0.2772990372951954 0
          0.057412282168228176 0.008087294744220645 0 0.6567619684213065 0.5062839951503268 0
          0.15548774161220932 0.3263512155056441 0 0.988395270480655 0.4232081486291222 0
          0.3640707652065283 0.45461834950437036 0 0.1089942071650759 0.19431582525942556 0
          1.1811018406549163 0.33985898496498573 0 0.07592021599929988 0.030436166967337537 0
          0.10048503327103335 0.12741205430218816 0 1.2501704932914866 0.059948559824186023 0
          1.3158860862801676 0.2560855813601244 0 0.16269743714749327 0.3418233107378247 0
          0.08346481216805589 0.18886547552663757 0 1.4027312702283161 0.15676026966617482 0
          0.42931261572552365 0.3577213426384659 0 0.08379975361566716 0.09303290567185139 0
          0.07390429463734247 0.23936929393876238 0 0.06833497089292379 0.042922337829235234 0
          0.7665733722708776 0.30814317295451477 0 0.0766626621523105 0.12593956226241715 0
          0.0677436856182119 0.20429067759281166 0 0.07086866605738856 0.20594512529141687 0
          0 0 0 0.08466953582994534 0.21601906406692953 0
          0.9965239303604058 0.2547388823861143 0 1.4001309574856404 0.08355960954071989 0
          1.1958331004933669 0.2123841047893396 0 0.0410405339828627 0.15393473875675018 0
          0.05705064993534615 0.055434862910368886 0 0.04642068115820347 0.11763725377542203 0
          0.925702635361679 0.007888594132908537 0 0.032112731348289875 0.13566391731716296 0
          0.02161969354502238 0.12037309438489772 0 0 0 0
          0.052925712682894276 0.08304735491093877 0 0.4024683300569635 0.07076964821244906 0
          0 0 0 0.7078963409599258 0.11325309690610154 0
          0 0 0 0.01751942859867557 0.09104527564768412 0
          0.028920437800668934 0.10519471725028993 0 0.037265373280682454 0.013366458937515358 0
          1.3299338764683386 0.0735867308106585 0 0 0 0
          0.011043400902527405 0.06731988683737578 0 0.03996273169799807 0.053701922836123545 0
          0.9292071109757684 0.07730795958043908 0 0.03158460970790632 0.07262385506956118 0
          0 0 0 0.018383763334967974 0.07447833329080075 0
          0 0 0 1.414890502092605 0.01618736199743894 0
          0.35508626619225747 0.02813427269337686 0 0.006593364546044342 0.054095552030256185 0
          1.131365333331382 0.032718940031828805 0 0.017737332986706857 0.06489881358918462 0
          0.6751058725602553 0.04068131410213091 0 0.030198054049702654 0.021513714721766247 0
          0 0 0 0.006775379745407921 0.04191410919689556 0
          1.406724657848704 -0.020820842421048764 0 0 0 0
          0 0 0 0.013244418649956471 0.04483687047310957 0
          0.02354521520820765 0.02483235652141648 0 0.004771990323459375 0.03339950271067604 0
          0.01813432495657206 0.03830209595686063 0 0.33599631317961615 0.00043985166399413035 0
          0.012250229691207785 0.03799555144396862 0 0 0 0
          1.2550512410136703 -0.04093918254886706 0 0.6599735012139194 -0.021021572716957617 0
          0.9413770049990754 -0.051100013047114125 0 0.004300069842788891 0.02550251743328776 0
          1.1537974231495587 -0.08735687533747728 0 0.016253238882567377 0.005550530253367166 0
          0 0 0 0 0 0
          0.013807244139377258 0.021950144788673225 0 0 0 0
          1.314646177188244 -0.10586508885370738 0 0.007827288868928967 0.024626756036338775 0
          0.003593588522845792 0.019210570367339287 0 0.34154043452580474 -0.025718295039671824 0
          0 0 0 1.3933686925303967 -0.11477331657692827 0
          0.007424286474040825 0.01887142438649435 0 0.673534737954279 -0.11843737460494595 0
          0.010909749018627428 0.009413394091399727 0 0.0028075280018138296 0.013659038324254616 0
          0 0 0 0.9256130241320953 -0.16155219072810348 0
          0.004625029880077815 0.014296231940063782 0 1.3757334743779261 -0.11486300204373563 0
          0 0 0 0.002432270136447918 0.009781531099094305 0
          1.1290308726367968 -0.186767049240277 0 0 0 0
          0 0 0 0.3888499680780772 -0.16591989073613433 0
          0.005839723608872823 0.007453380581675478 0 0.004555676644045863 0.009192682466122818 0
          0.9462887400156892 -0.04480901431160388 0 0.0014261945050450164 0.006342181227189801 0
          1.2800824869469363 -0.19466226792111493 0 1.2126878171925384 -0.08887106248852021 0
          0.005794425496582866 0.0019445167943927418 0 0 0 0
          0 0 0 0.6681241048053268 -0.2289763341489437 0
          0 0 0 0 0 0
          0.0008422643738203217 0.004329847976571081 0 0.045634725667889973 -0.07143102804772655 0
          0 0 0 0.002535891561302745 0.00503603696329733 0
          1.3574968988297518 -0.19511978856744158 0 0.8974431295514084 -0.2598374255296136 0
          0.003190702818739974 0.0024231774579078747 0 0 0 0
          0.025703743716823185 -0.030947421927612795 0 0.0009817727863782127 0.0024398180850861376 0
          0.0021394632547106543 0.00297522425715216 0 0 0 0
          0.014749932468441494 -0.006010528616773677 0 0 0 0
          0.3075604372908753 -0.20254375304030497 0 1.3252474832601346 -0.16979363308981224 0
          0.0009448803889558385 0.0016562447854028032 0 1.0563278394033926 -0.2904875447504424 0
          0.006158697392135667 0.010876261722632957 0 0.0017858384351017863 0.0004197654181447277 0
          0.0007215453843194286 0.0013089183797482336 0 0 0 0
          0 0 0 0.10084016514689635 -0.10203507691247185 0
          0 0 0 0.0020711302853869923 0.016315535161799562 0
          0 0 0 1.226757133555599 -0.2813087436115185 0
          0.06354040967421386 -0.0533720528150419 0 0.0009357520847701262 0.0006615799396854021 0
          0 0 0 0.00032236060460988673 0.0004140120750165657 0
          0.256483882736661 -0.007532780975236282 0 0.5360324214294121 -0.27330647925042506 0
          0.0011945630392037802 0.019450739647171044 0 1.1662013337845567 -0.1386640675441447 0
          0 0 0 0 0 0
          0.0009331350436883736 0.020546735271472976 0 0.00017754318005438655 0.00011160730011568158 0
          0.2882367721278486 -0.20286603965460487 0 0.016520911965530703 0.0005904838344158528 0
          0.051403940790826344 -0.032509257282948074 0 0.7694908897305353 -0.3159880117999174 0
          0 0 0 1.2927918354144632 -0.2530407891751789 0
          0.13762466139158244 -0.11178584470966581 0 -0.000006974630711177605 0.02152271304711718 0
          0 0 0 0.009988731179782624 0.015086558128392817 0
          0 0 0 0 0 0
          0.004226948957637523 0.023890289444637194 0 0.00009401290523612282 -0.00015522412798707607 0
          -0.0006418049657500168 0.02090609795218258 0 0.0036841053899321773 0.028454116889220272 0
          0.7977672589497897 -0.08975686847818538 0 0 0 0
          0 0 0 0.4778167635434076 -0.2725093923640336 0
          -0.0005565788568402823 0.0200447970694879 0 0.9387081940017441 -0.33226647848783714 0
          1.2506109080352907 -0.2208761681845872 0 0 0 0
          0.03342269651545054 -0.0065588938444723095 0 0 0 0
          0.30435922831570855 -0.20582480223116456 0 -0.0003336181833120145 0.03292608635176444 0
          0 0 0 -0.0009045519502641866 0.018641313410860942 0
          0.012343934547343423 0.02563587776331256 0 0 0 0
          -0.0008796111151234693 0.03375891942234669 0 0.1568619147929175 -0.11014337916462472 0
          0 0 0 -0.0012096262820331686 0.016906193472934136 0
          0 0 0 -0.002065663663780413 0.03034442979100006 0
          0.6568154901183412 -0.31540021871460566 0 0 0 0
          -0.0014825500053464028 0.014441718376781532 0 -0.0027614768572246963 0.028253520779915907 0
          1.0970612379545452 -0.15972642615095448 0 0.46570576243691764 -0.26492121367538757 0
          0.0027570212743581067 0.035961350948733296 0 0 0 0
          -0.001676856212043801 0.011798059799783503 0 1.2168821457992942 -0.29623457078953364 0
          0.04975886223492963 -0.012883221851761157 0 -0.004942775669165532 0.027125084573582554 0
          1.0439710085714344 -0.35329224932001707 0 0.2974049508505944 -0.19101572646482234 0
          0 0 0 -0.0014509006662663218 0.009286290668023368 0
          -0.004602110184902287 0.03740283730637887 0 0.1338245801320412 -0.08524331242007348 0
          -0.005427472619701894 0.02293028472686396 0 0.027222603851764816 0.010119366696989276 0
          0.8177572191939644 -0.3463169524086518 0 0 0 0
          -0.0013817011056572797 0.00677535819414442 0 -0.0047894884011557065 0.0174871230516575 0
          0.6250304297843482 -0.3027577019538985 0 0.7165540130013719 -0.08066111629347852 0
          0 0 0 -0.0013537234201719639 0.004449876374304687 0
          -0.010957363848537367 0.030131023374030647 0 -0.00514830829248881 0.014291549324657463 0
          0.0032545458979591174 0.02960784535061218 0 0.45157175708831065 -0.24661358865960667 0
          0.07195343382141765 -0.03810266158518338 0 0 0 0
          -0.0011557218718298615 0.002341871053022735 0 1.113347380576522 -0.3443250595949415 0
          -0.004817478970658786 0.010149714848207435 0 -0.011266362857721842 0.022927060782807842 0
          0.2952644312131942 -0.17872247636870706 0 1.162232633337986 -0.2892164662391632 0
          0 0 0 0.9586073811268498 -0.34931655661659755 0
          -0.004370660670986663 0.006639116091154845 0 -0.00046728391568909815 0.0005800651804348675 0
          0.040468216302368284 -0.005973865207249345 0 -0.010745843046859509 0.015617777817985663 0
          0.15063334942506063 -0.09710442867027504 0 -0.0031763186168885954 0.0034522164317874913 0
          0.6736976918958688 -0.3046983164734097 0 -0.01357274371268497 0.023376179934684764 0
          0 0 0 1.0259082134155146 -0.20259842086683216 0
          0.3238759797698187 -0.017521143439704172 0 -0.008230065144200611 0.00732528166325899 0
          -0.019432664907412165 0.020800840861390568 0 -0.017199849629968126 0.017049609805111183 0
          0.09706936666842751 -0.05621340903716176 0 0.42419644059788836 -0.23364034944534498 0
          0 0 0 -0.00370319272963932 0.0016984154271715755 0
          1.0517624013688185 -0.3121202680626001 0 -0.0029021753332749223 -0.004870019467292232 0
          -0.016206251233560908 0.009239566614073689 0 -0.021039713884343992 0.008904565428787594 0
          0.826871346870113 -0.31413377025440226 0 0.1955221223372542 -0.12907035940471787 0
          0.5656897347972751 -0.07262579918957274 0 -0.024058183918227508 0.010763674659506204 0
          0 0 0 -0.009502966343004488 0.0026556857931774335 0
          0.5636084808634036 -0.2726342202694619 0 1.1035484712486041 -0.26008834877475717 0
          0.04067961098136981 -0.049857903552374676 0 0.3398531748920377 -0.20474375694935426 0
          -0.009170545062603522 -0.015342688058783954 0 -0.023524067466788572 -0.0010114866894791947 0
          -0.01675957429003202 0.0022689373209277665 0 0.9869615962833754 -0.3038111723955282 0
          0 0 0 -0.022884467509237325 0.0032607865827127187 0
          0.7488090774807984 -0.3197340747730755 0 0.48194305658968906 -0.26828411942431624 0
          0 0 0 0.1230619521729355 -0.11484420849117027 0
          0.023533770418458243 -0.05372435088833163 0 0.9901523519308914 -0.09064889248943343 0
          -0.009402681693529726 -0.0241709423497259 0 -0.016603240731072735 0.0011408463415597092 0
          -0.019025999801026594 -0.0067557228726661 0 0.2682824409128288 -0.20744428298445866 0
          0 0 0 1.0048380707865758 -0.3718283818056093 0
          -0.013833436204940205 -0.000020143018159062673 0 0.08958561080319798 -0.12485510915025437 0
          0.01889051781145062 -0.0546808736305648 0 0.5605117804800079 -0.409082775946093 0
          -0.002782466582461339 -0.01624436827121174 0 0.23219867458591165 -0.2781791787529727 0
          0 0 0 0.02262731383443862 -0.03513299463048708 0
          0.08539936601672608 -0.1076061686289926 0 0 0 0
          <InformationKey name="L2_NORM_RANGE" location="vtkDataArray" length="2">
            <Value index="0">
              0
            </Value>
            <Value index="1">
              1.4149830966
            </Value>
          </InformationKey>
        </DataArray>
        <DataArray type="Float64" Name="Pressure" format="ascii" RangeMin="-8.292342854071798" RangeMax="36.94016495384436">
          36.280351287640094 36.43836840780535 36.764671419954155 36.21508616131008 36.032596811283845 36.806186407173996
          36.07769106590021 35.52588368497703 35.38605800504346 34.622332942934 36.12860987249857 34.40927040370061
          36.94016495384436 35.336821410786705 34.419493874898116 33.620030708786 33.46872120890172 34.530635753825734
          36.51464924329939 35.570759702851504 33.334180232500515 34.787724609013 32.40582320787643 36.90504725783929
          33.53179726247132 32.241560594113636 32.35988413700998 33.957613878889816 31.480459262748276 34.95568366698712
          35.9301129841721 30.92571968342268 36.72532776028513 34.22634332214623 33.12545949551824 31.207927689865155
          30.400226987643055 31.62213098945589 33.57725192057031 35.211692363570386 29.551516706159376 35.622274538110226
          36.745751270423035 34.39135036476066 29.714081592549878 32.1916890784495 30.206121799887846 32.85970167025521
          33.901071578414495 30.830664120290262 34.50549406705906 27.599930063092902 27.926936408423565 28.573133898515948
          33.45824930380716 32.13617931489876 29.412630477634337 34.02749533846026 30.29170109913485 32.8446751065144