<?xml version="1.0"?>
<VTKFile type="UnstructuredGrid" version="0.1" byte_order="LittleEndian" header_type="UInt32" compressor="vtkZLibDataCompressor">
  <UnstructuredGrid>
    <Piece NumberOfPoints="418" NumberOfCells="757">
      <PointData>
        <DataArray type="Float64" Name="nsi_BC" NumberOfComponents="3" format="ascii" RangeMin="0" RangeMax="1">
          0 0 0 0 0 0
          0 0 0 0 0 0
          0 0 0 1 0 0
          0 0 0 0 0 0
          0 0 0 0 0 0
          0 0 0 0 0 0
          0 0 0 0 0 0
          0 0 0 0 0 0
          0 0 0 0 0 0
          0 0 0 0 0 0
          0 0 0 0 0 0
          0 0 0 0 0 0
          0 0 0 0 0 0
          0 0 0 0 0 0
          0 0 0 0 0 0
          0 0 0 0 0 0
          0 0 0 0 0 0
          0 0 0 0 0 0
          0 0 0 0 0 0
          0 0 0 0 0 0
          0 0 0 0 0 0
          0 0 0 0 0 0
          0 0 0 0 0 0
          0 0 0 0 0 0
          0 0 0 0 0 0
          0 0 0 0 0 0
          0 0 0 0 0 0
          0 0 0 0 0 0
          0 0 0 0 0 0
          0 0 0 0 0 0
          0 0 0 0 0 0
          0 0 0 0 0 0
          0 0 0 0 0 0
          0 0 0 0 0 0
          0 0 0 0 0 0
          0 0 0 0 0 0
          0 0 0 0 0 0
          0 0 0 0 0 0
          0 0 0 0 0 0
          0 0 0 0 0 0
          0 0 0 0 0 0
          0 0 0 0 0 0
          0 0 0 0 0 0
          0 0 0 0 0 0
          0 0 0 0 0 0
          0 0 0 0 0 0
          0 0 0 0 0 0
          0 0 0 0 0 0
          0 0 0 0 0 0
          0 0 0 0 0 0
          0 0 0 0 0 0
          0 0 0 0 0 0
          0 0 0 0 0 0
          0 0 0 0 0 0
          0 0 0 0 0 0
          0 0 0 0 0 0
          0 0 0 0 0 0
          0 0 0 0 0 0
          0 0 0 0 0 0
          0 0 0 0 0 0
          0 0 0 0 0 0
          0 0 0 0 0 0
          0 0 0 0 0 0
          0 0 0 0 0 0
          0 0 0 0 0 0
          0 0 0 0 0 0
          0 0 0 0 0 0
          0 0 0 0 0 0
          0 0 0 0 0 0
          0 0 0 0 0 0
          0 0 0 0 0 0
          0 0 0 0 0 0
          0 0 0 0 0 0
          0 0 0 0 0 0
          0 0 0 0 0 0
          0 0 0 0 0 0
          0 0 0 0 0 0
          0 0 0 0 0 0
          0 0 0 0 0 0
          0 0 0 0 0 0
          0 0 0 0 0 0
          0 0 0 0 0 0
          0 0 0 0 0 0
          0 0 0 0 0 0
          0 0 0 0 0 0
          0 0 0 0 0 0
          0 0 0 0 0 0
          0 0 0 0 0 0
          0 0 0 0 0 0
          0 0 0 0 0 0
          0 0 0 0 0 0
          0 0 0 0 0 0
          0 0 0 0 0 0
          0 0 0 0 0 0
          0 0 0 0 0 0
          0 0 0 0 0 0
          0 0 0 0 0 0
          0 0 0 0 0 0
          0 0 0 0 0 0
          0 0 0 0 0 0
          0 0 0 0 0 0
          0 0 0 0 0 0
          0 0 0 0 0 0
          0 0 0 0 0 0
          0 0 0 0 0 0
          0 0 0 0 0 0
          0 0 0 0 0 0
          0 0 0 0 0 0
          0 0 0 0 0 0
          0 0 0 0 0 0
          0 0 0 0 0 0
          0 0 0 0 0 0
          0 0 0 0 0 0
          0 0 0 0 0 0
          0 0 0 0 0 0
          0 0 0 0 0 0
          0 0 0 0 0 0
          0 0 0 0 0 0
          0 0 0 0 0 0
          0 0 0 0 0 0
          0 0 0 0 0 0
          0 0 0 0 0 0
          0 0 0 0 0 0
          0 0 0 0 0 0
          0 0 0 0 0 0
          0 0 0 0 0 0
          0 0 0 0 0 0
          0 0 0 0 0 0
          0 0 0 0 0 0
          0 0 0 0 0 0
          0 0 0 0 0 0
          0 0 0 0 0 0
          0 0 0 0 0 0
          0 0 0 0 0 0
          0 0 0 0 0 0
          0 0 0 0 0 0
          0 0 0 0 0 0
          0 0 0 0 0 0
          0 0 0 0 0 0
          0 0 0 0 0 0
          0 0 0 0 0 0
          0 0 0 0 0 0
          0 0 0 0 0 0
          0 0 0 0 0 0
          0 0 0 0 0 0
          0 0 0 0 0 0
          0 0 0 0 0 0
          0 0 0 0 0 0
          0 0 0 0 0 0
          0 0 0 0 0 0
          0 0 0 0 0 0
          0 0 0 0 0 0
          0 0 0 0 0 0
          0 0 0 0 0 0
          0 0 0 0 0 0
          0 0 0 0 0 0
          0 0 0 0 0 0
          0 0 0 0 0 0
          0 0 0 0 0 0
          0 0 0 0 0 0
          0 0 0 0 0 0
          0 0 0 0 0 0
          0 0 0 0 0 0
          0 0 0 0 0 0
          0 0 0 0 0 0
          0 0 0 0 0 0
          0 0 0 0 0 0
          0 0 0 0 0 0
          0 0 0 0 0 0
          0 0 0 0 0 0
          0 0 0 0 0 0
          0 0 0 0 0 0
          0 0 0 0 0 0
          0 0 0 0 0 0
          0 0 0 0 0 0
          0 0 0 0 0 0
          0 0 0 0 0 0
          0 0 0 0 0 0
          0 0 0 0 0 0
          0 0 0 0 0 0
          0 0 0 0 0 0
          0 0 0 0 0 0
          0 0 0 0 0 0
          0 0 0 0 0 0
          0 0 0 0 0 0
          0 0 0 0 0 0
          0 0 0 0 0 0
          0 0 0 0 0 0
          0 0 0 0 0 0
          0 0 0 0 0 0
          0 0 0 0 0 0
          0 0 0 0 0 0
          0 0 0 0 0 0
          0 0 0 0 0 0
          0 0 0 0 0 0
          0 0 0 0 0 0
          0 0 0 0 0 0
          0 0 0 0 0 0
          0 0 0 0 0 0
          0 0 0 0 0 0
          0 0 0 0 0 0
          0 0 0 0 0 0
          0 0 0 0 0 0
          0 0 0 0 0 0
          0 0 0 0 0 0
          0 0 0 0 0 0
          0 0 0 0 0 0
          0 0 0 0 0 0
          0 0 0 0 0 0
          <InformationKey name="L2_NORM_RANGE" location="vtkDataArray" length="2">
            <Value index="0">
              0
            </Value>
            <Value index="1">
              1
            </Value>
          </InformationKey>
        </DataArray>
        <DataArray type="Float64" Name="nsi_FIXNO" NumberOfComponents="3" format="ascii" RangeMin="1.4142135623730951" RangeMax="1.4142135623730951">
          1 1 0 -1 -1 0
          -1 -1 0 -1 -1 0
          1 1 0 1 1 0
          -1 -1 0 -1 -1 0
          -1 -1 0 -1 -1 0
          -1 -1 0 -1 -1 0
          -1 -1 0 -1 -1 0
          -1 -1 0 1 1 0
          -1 -1 0 -1 -1 0
          -1 -1 0 -1 -1 0
          -1 -1 0 -1 -1 0
          -1 -1 0 -1 -1 0
          -1 -1 0 -1 -1 0
          -1 -1 0 -1 -1 0
          -1 -1 0 -1 -1 0
          -1 -1 0 -1 -1 0
          1 1 0 -1 -1 0
          -1 -1 0 -1 -1 0
          1 1 0 -1 -1 0
          -1 -1 0 -1 -1 0
          -1 -1 0 -1 -1 0
          1 1 0 -1 -1 0
          -1 -1 0 -1 -1 0
          -1 -1 0 -1 -1 0
          -1 -1 0 -1 -1 0
          -1 -1 0 -1 -1 0
          -1 -1 0 -1 -1 0
          -1 -1 0 -1 -1 0
          -1 -1 0 -1 -1 0
          -1 -1 0 -1 -1 0
          1 1 0 -1 -1 0
          -1 -1 0 -1 -1 0
          -1 -1 0 -1 -1 0
          -1 -1 0 -1 -1 0
          -1 -1 0 1 1 0
          -1 -1 0 -1 -1 0
          -1 -1 0 -1 -1 0
          -1 -1 0 -1 -1 0
          -1 -1 0 -1 -1 0
          -1 -1 0 -1 -1 0
          -1 -1 0 -1 -1 0
          -1 -1 0 -1 -1 0
          -1 -1 0 -1 -1 0
          -1 -1 0 -1 -1 0
          1 1 0 -1 -1 0
          -1 -1 0 -1 -1 0
          -1 -1 0 -1 -1 0
          -1 -1 0 -1 -1 0
          -1 -1 0 -1 -1 0
          -1 -1 0 -1 -1 0
          -1 -1 0 -1 -1 0
          -1 -1 0 -1 -1 0
          -1 -1 0 -1 -1 0
          -1 -1 0 -1 -1 0
          -1 -1 0 -1 -1 0
          -1 -1 0 -1 -1 0
          -1 -1 0 -1 -1 0
          -1 -1 0 -1 -1 0
          -1 -1 0 -1 -1 0
          -1 -1 0 -1 -1 0
          -1 -1 0 1 1 0
          -1 -1 0 -1 -1 0
          -1 -1 0 -1 -1 0
          -1 -1 0 -1 -1 0
          -1 -1 0 -1 -1 0
          -1 -1 0 -1 -1 0
          -1 -1 0 -1 -1 0
          -1 -1 0 -1 -1 0
          -1 -1 0 -1 -1 0
          -1 -1 0 -1 -1 0
          -1 -1 0 -1 -1 0
          -1 -1 0 -1 -1 0
          -1 -1 0 -1 -1 0
          -1 -1 0 -1 -1 0
          1 1 0 -1 -1 0
          -1 -1 0 -1 -1 0
          -1 -1 0 -1 -1 0
          -1 -1 0 -1 -1 0
          -1 -1 0 -1 -1 0
          -1 -1 0 1 1 0
          -1 -1 0 -1 -1 0
          1 1 0 -1 -1 0
          1 1 0 -1 -1 0
          -1 -1 0 -1 -1 0
          -1 -1 0 1 1 0
          -1 -1 0 -1 -1 0
          -1 -1 0 -1 -1 0
          1 1 0 -1 -1 0
          1 1 0 -1 -1 0
          -1 -1 0 -1 -1 0
          -1 -1 0 -1 -1 0
          -1 -1 0 -1 -1 0
          1 1 0 -1 -1 0
          -1 -1 0 1 1 0
          1 1 0 -1 -1 0
          -1 -1 0 -1 -1 0
          -1 -1 0 -1 -1 0
          -1 -1 0 1 1 0
          -1 -1 0 -1 -1 0
          -1 -1 0 -1 -1 0
          -1 -1 0 -1 -1 0
          1 1 0 1 1 0
          -1 -1 0 1 1 0
          -1 -1 0 -1 -1 0
          -1 -1 0 -1 -1 0
          1 1 0 -1 -1 0
          -1 -1 0 -1 -1 0
          -1 -1 0 -1 -1 0
          1 1 0 -1 -1 0
          -1 -1 0 -1 -1 0
          1 1 0 -1 -1 0
          -1 -1 0 1 1 0
          1 1 0 -1 -1 0
          -1 -1 0 -1 -1 0
          -1 -1 0 -1 -1 0
          -1 -1 0 -1 -1 0
          -1 -1 0 1 1 0
          1 1 0 -1 -1 0
          1 1 0 1 1 0
          -1 -1 0 -1 -1 0
          1 1 0 -1 -1 0
          -1 -1 0 -1 -1 0
          -1 -1 0 1 1 0
          -1 -1 0 -1 -1 0
          -1 -1 0 1 1 0
          -1 -1 0 1 1 0
          -1 -1 0 -1 -1 0
          -1 -1 0 -1 -1 0
          -1 -1 0 -1 -1 0
          -1 -1 0 1 1 0
          1 1 0 -1 -1 0
          1 1 0 -1 -1 0
          1 1 0 -1 -1 0
          -1 -1 0 -1 -1 0
          1 1 0 -1 -1 0
          -1 -1 0 -1 -1 0
          -1 -1 0 -1 -1 0
          1 1 0 1 1 0
          -1 -1 0 -1 -1 0
          -1 -1 0 -1 -1 0
          -1 -1 0 -1 -1 0
          1 1 0 -1 -1 0
          -1 -1 0 -1 -1 0
          1 1 0 -1 -1 0
          1 1 0 1 1 0
          -1 -1 0 -1 -1 0
          -1 -1 0 -1 -1 0
          -1 -1 0 1 1 0
          1 1 0 -1 -1 0
          -1 -1 0 -1 -1 0
          -1 -1 0 1 1 0
          -1 -1 0 1 1 0
          -1 -1 0 -1 -1 0
          1 1 0 -1 -1 0
          -1 -1 0 1 1 0
          -1 -1 0 -1 -1 0
          1 1 0 -1 -1 0
          1 1 0 -1 -1 0
          -1 -1 0 1 1 0
          -1 -1 0 -1 -1 0
          -1 -1 0 -1 -1 0
          -1 -1 0 1 1 0
          -1 -1 0 -1 -1 0
          -1 -1 0 -1 -1 0
          -1 -1 0 -1 -1 0
          1 1 0 -1 -1 0
          -1 -1 0 -1 -1 0
          -1 -1 0 -1 -1 0
          -1 -1 0 1 1 0
          -1 -1 0 -1 -1 0
          -1 -1 0 -1 -1 0
          1 1 0 -1 -1 0
          -1 -1 0 -1 -1 0
          -1 -1 0 -1 -1 0
          -1 -1 0 1 1 0
          -1 -1 0 -1 -1 0
          -1 -1 0 -1 -1 0
          -1 -1 0 -1 -1 0
          1 1 0 -1 -1 0
          -1 -1 0 -1 -1 0
          -1 -1 0 -1 -1 0
          -1 -1 0 -1 -1 0
          -1 -1 0 -1 -1 0
          1 1 0 -1 -1 0
          -1 -1 0 -1 -1 0
          -1 -1 0 -1 -1 0
          -1 -1 0 -1 -1 0
          1 1 0 -1 -1 0
          -1 -1 0 -1 -1 0
          -1 -1 0 -1 -1 0
          -1 -1 0 -1 -1 0
          -1 -1 0 -1 -1 0
          1 1 0 -1 -1 0
          -1 -1 0 -1 -1 0
          -1 -1 0 -1 -1 0
          -1 -1 0 -1 -1 0
          -1 -1 0 -1 -1 0
          1 1 0 -1 -1 0
          -1 -1 0 -1 -1 0
          1 1 0 -1 -1 0
          -1 -1 0 -1 -1 0
          -1 -1 0 -1 -1 0
          -1 -1 0 -1 -1 0
          1 1 0 -1 -1 0
          -1 -1 0 -1 -1 0
          -1 -1 0 -1 -1 0
          -1 -1 0 -1 -1 0
          1 1 0 -1 -1 0
          -1 -1 0 1 1 0
          <InformationKey name="L2_NORM_RANGE" location="vtkDataArray" length="2">
            <Value index="0">
              1.4142135624
            </Value>
            <Value index="1">
              1.4142135624
            </Value>
          </InformationKey>
        </DataArray>
        <DataArray type="Float64" Name="Velocity" NumberOfComponents="3" format="ascii" RangeMin="0" RangeMax="1.4147058380573465">
          0 0 0 0.31846782954981273 0.02446898556389598 0
          0.7324871093140093 0.10044209266527125 0 0.514995396745132 0.03723187228811064 0
          0 0 0 1 0 0
          0.7173842392191504 0.026922981042113166 0 0.3701408567244245 0.022394155594231323 0
          0.6433319127855303 0.038918652435365714 0 0.31283742736715286 0.005138008490184228 0
          0.6667131117201494 0.028445056344568193 0 0.5623510829822482 0.03390146627265258 0
          0.7023060457756767 -0.09712802415357925 0 0.7183316828291642 0.03229989125996599 0
          0.6834748299427015 0.04779943558271751 0 0 0 0
          0.5071389769968312 0.027165537684454143 0 0.7230003879323826 0.05880139799198168 0
          0.6050824969042574 -0.005283966597724246 0 0.6485395924564128 0.041132908659219244 0
          0.6593577744452165 0.05794113596433318 0 0.6845073530191504 0.05928988803455682 0
          0.42564814514919264 0.03656232587985374 0 0.3482822463236633 -0.02845895066053553 0
          0.7272940975921179 0.0972888826850459 0 0.6423996980813834 0.07978367581876498 0
          0.738654225424045 0.11818571864297914 0 0.7085255061778404 0.09634030410195937 0
          0.32234954245895403 0.012012077057434591 0 0.5702977570575478 0.04480332843543591 0
          0.4451148632758097 0.0016982889068361273 0 0.602052238765967 0.09002730540677831 0
          0 0 0 0.6187510540314513 0.07825677817404264 0
          0.7267606686846169 0.15482400275819735 0 0.7550725778458431 0.15440124339330963 0
          0 0 0 0.7722984076023468 0.1903894791346208 0
          0.6481349025728439 0.13535418481083494 0 0.3241271136752527 0.008569813421749506 0
          0.5665764207344113 0.08496348788775297 0 0.20166271422831075 0.004974175372745313 0
          0 0 0 0.4681509339005935 0.049008184045472664 0
          0.7646494558880609 0.18275595705227032 0 0.7490342740729105 0.22480281505805016 0
          0.8229447064183317 0.24585970453713413 0 0.6716285737097049 0.2086987938599885 0
          0.5182186803298854 0.09417897243650294 0 0.8052346496279279 0.28421726694945887 0
          0.31167015372938417 0.024332936110662853 0 0.46220076820342554 0.024560263535112915 0
          0.7956170060194909 0.1530128913990278 0 0.874539737364716 0.27595699553927905 0
          0.5532040192280883 0.1670276836729591 0 0.6843366896808187 0.29233590034056256 0
          0.8649707582158715 0.3435250305823082 0 0.3536637187990754 0.047965876714520246 0
          0.7924561651754564 0.37235365232779727 0 0.5853670830756903 0.25624222851500916 0
          0 0 0 0.9449707439691339 0.3648479948805405 0
          0.6997029908448505 0.37580045618587343 0 0.18850908211404974 0.011007353798646622 0
          0.9838557889651598 0.23726097631640058 0 0.3753696736504413 0.09344123137618705 0
          0.45752632486828143 0.1930728761187048 0 0.8684146845500242 0.42580240232143046 0
          0.5864996381058831 0.3366477291857291 0 0 0 0
          0.7493014767043684 0.10247226189124667 0 0.46697181985826575 0.2714791153853629 0
          0.7368457591653138 0.4666803134218233 0 1.0519550958589332 0.3594317393966043 0
          0.9612149823666355 0.4643763238523643 0 0.33023727641747963 0.12837272003724354 0
          0.21926556392597696 0.03635031682542395 0 0.5622067911508746 0.41716762157543685 0
          0.8456239708329947 0.5153427934008252 0 1.1166565725253177 0.2865483998910817 0
          0.4617633944815914 0.3477798857510332 0 0.7216590304955477 0.5173391631880244 0
          0.3430065330613573 0.19401799274732498 0 0.24970324343778139 0.0657830262341572 0
          1.0361264101452718 0.19311991642542825 0 0.6034260736740641 0.5000958233888468 0
          0.9577242600909158 0.5248413844504698 0 0.3416613094588862 0.26583218768137956 0
          0 0 0 0.8344888436786737 0.08424843047277564 0
          1.1893511507883132 0.38290699753882396 0 0.7857182086603176 0.566898367096058 0
          0.43523547460944795 0.42710549941095327 0 0.6372931284530571 0.5575013781308407 0
          1.2249115354418052 0.2759395433986947 0 0.2359717047007983 0.12363884085327825 0
          0.31222458957857163 0.3137170966042328 0 0.1265903671701109 0.01675344498529859 0
          0.24484100519033417 0.18954172934613836 0 0.4783945390214464 0.01085686030800141 0
          0.9298166368355004 0.5651455856438361 0 0.41910782348437664 0.4837621112563937 0
          1.1458771429009642 0.4727297404504497 0 0.24540623684513474 0.25301354822841887 0
          0.6933312701708425 0.5898378223173861 0 0.2775098793787617 0.35363856179543696 0
          1.1702189363319004 0.14138022868369088 0 1.2938385663248362 0.33059035102112566 0
          0.14514025624444488 0.045596305300965013 0 0.5187009064927526 0.5619250591252418 0
          0.8033493517524835 0.5725911326911772 0 0.20144236787486025 0.27461854408829167 0
          0.3233684189967609 0.45985068910772453 0 1.0793433388047102 0.4859073273574934 0
          0.9191425909672372 0.028375788989626515 0 0.1397444524698765 0.07417077515053543 0
          0.5547195030172788 0.560202741960244 0 0.21559181587448936 0.35354038037083285 0
          1.2694906164354407 0.3574335856926514 0 1.34853316440895 0.19450635611094386 0
          0.14343699721380557 0.1287875133465172 0 0 0 0
          0.15300856031868004 0.19836813057854216 0 0.3249693956171783 0.48413984887246597 0
          1.3557625502513055 0.2584397318530203 0 0.16703327735684195 0.28535587029916415 0
          0.06176114519193631 0.008595114288181454 0 0.6547444965836343 0.508299449675344 0
          0.15460222443994906 0.3322558373895467 0 0.9861713305051462 0.4236635262973673 0
          0.36269893590608315 0.45745339351954384 0 0.10993083499617812 0.20206056926934854 0
          1.1791937522331264 0.3392792429202327 0 0.0818834627047026 0.03237236627763044 0
          0.10373261781441243 0.1342430319993031 0 1.2509497100317346 0.05800245530492654 0
          1.3146922205334983 0.2546017992480114 0 0.16185313852475003 0.34535805620339816 0
          0.08365938066331192 0.1956098010762625 0 1.4024114681021351 0.15413282474593729 0
          0.42828635459020564 0.3587381779722054 0 0.08732931792778875 0.09872315140979078 0
          0.07350868022845465 0.24312121720065155 0 0.07358775919844762 0.0457808204415173 0
          0.764899303118917 0.30821472538891415 0 0.07848502203638354 0.13279372231912637 0
          0.06757261729299588 0.2096426430359693 0 0.07060442807158389 0.2102928212911035 0
          0 0 0 0.08433052505024027 0.21766342687269813 0
          0.994767607524972 0.25407081599054576 0 1.4001001830873638 0.08043422480926425 0
          1.1943647957583203 0.21082620304698932 0 0.04085015818018201 0.15594969321523539 0
          0.060759257135739854 0.059611451536212626 0 0.04707512675486126 0.1236002131350186 0
          0.9259084640193098 0.006636130282597557 0 0.03213681988160028 0.1402016401167892 0
          0.021520567266839426 0.12258508093643289 0 0 0 0
          0.05508736880645773 0.08860931195703234 0 0.4014370038664419 0.07054019306668367 0
          0 0 0 0.7065219882459159 0.1126819255688143 0
          0 0 0 0.01746367159121536 0.09337076294563318 0
          0.02907441147154357 0.10966064492089392 0 0.04077149243024578 0.014345102354584879 0
          1.3293605671707756 0.07017214414242409 0 0 0 0
          0.011047332336397035 0.0696965388960467 0 0.042374879192728615 0.058038800471045496 0
          0.9281006068033166 0.07590620138824875 0 0.03257081022674853 0.07756590687710081 0
          0 0 0 0.018657994579916425 0.07839626492704181 0
          0 0 0 1.4146583073045897 0.011596629150415474 0
          0.3543012248171357 0.02794865117738454 0 0.006620098186459862 0.056445968933888827 0
          1.1307317666176504 0.029958044658689766 0 0.018070647187902647 0.06889735444795579 0
          0.6742425683401957 0.03990119566549322 0 0.033217746264107104 0.02332967557357454 0
          0 0 0 0.006842620751252996 0.044180793482268214 0
          1.4061575815003016 -0.02578928492539814 0 0 0 0
          0 0 0 0.013673480349495264 0.048158285799920784 0
          0.02572087558421332 0.027283445297349437 0 0.004859319920847452 0.03552412401802738 0
          0.019227854367057717 0.04186181821696519 0 0.3355465310769329 0.0001155557433540081 0
          0.01272406635648822 0.04122949471637192 0 0 0 0
          1.2535289144917454 -0.044963456861988736 0 0.6597693413020804 -0.02236463031605202 0
          0.9414444284097543 -0.054034962702874126 0 0.004410442613028519 0.027460380790172885 0
          1.1540808998913632 -0.09239838723098737 0 0.01813013173524269 0.006083590673274544 0
          0 0 0 0 0 0
          0.014968706940685295 0.02447111014284075 0 0 0 0
          1.314576672714438 -0.11227720805915795 0 0.008302486886470641 0.02711539396149001 0
          0.003727061813907036 0.020951105469046032 0 0.34163860511856126 -0.02635637188265726 0
          0 0 0 1.392662656151364 -0.12200558386614176 0
          0.007922988273746389 0.021022509039175064 0 0.674394025342991 -0.12148870663273888 0
          0.01237660577170124 0.010479806486040511 0 0.0029478105801665926 0.015167411056914661 0
          0 0 0 0.9266107471723481 -0.16686658770201804 0
          0.005078856995415047 0.016163972736957744 0 1.3737525073786236 -0.12186331830036726 0
          0 0 0 0.002597846786435632 0.01104099372469044 0
          1.129726461563246 -0.19410102458722892 0 0 0 0
          0 0 0 0.39022386953077304 -0.16941214373819255 0
          0.006607601952747277 0.008664455910011333 0 0.00500064221592655 0.010617013550628543 0
          0.9430578649514291 -0.04743906884589639 0 0.0015582761065626614 0.007348533271862242 0
          1.2799346242492622 -0.2036260583839558 0 1.208798925486546 -0.09419302219612896 0
          0.0066404754659128516 0.0022193262249929338 0 0 0 0
          0 0 0 0.6698343818028444 -0.23522579701069182 0
          0 0 0 0 0 0
          0.0009467989437147361 0.00512006199623729 0 0.046056264749083024 -0.07517115891589274 0
          0 0 0 0.002877559671254078 0.005978365781298275 0
          1.355864057583371 -0.20480194889663184 0 0.898938057849755 -0.26865514198526963 0
          0.00380057940419606 0.0028744134363093833 0 0 0 0
          0.025901141667581184 -0.03431877188232756 0 0.0010947735092563726 0.0030221024269744563 0
          0.002457710911618067 0.003638009780605431 0 0 0 0
          0.014879890552567405 -0.009144883488136142 0 0 0 0
          0.3090877161325673 -0.21036882289306028 0 1.3212715351190307 -0.17879190561352531 0
          0.0011851804228555044 0.0020967265486986127 0 1.0570594440746612 -0.3019950871720318 0
          0.006259610673196023 0.007942641590925373 0 0.00212180672463987 0.0005431255705290707 0
          0.0008313414003769734 0.0017172845805152866 0 0 0 0
          0 0 0 0.10159048496568332 -0.10950057537935078 0
          0 0 0 0.00215005021883699 0.01354599912230934 0
          0 0 0 1.2257411102210267 -0.29384801621033496 0
          0.0640375116721269 -0.06045683028072299 0 0.001169235246967549 0.0008795552160872613 0
          0 0 0 0.00039590537736028457 0.0006634298700780577 0
          0.25564315340085486 -0.007697106623333934 0 0.5378765055956418 -0.2851158835179386 0
          0.0012746053569664753 0.016820667610816183 0 1.1592172561032545 -0.1450828672789652 0
          0 0 0 0 0 0
          0.0010493932263539057 0.0180814799036094 0 0.00024294931213608608 0.0002487222133273653 0
          0.2897263662505883 -0.21482803380118842 0 0.01691161945023886 -0.0058771656018321555 0
          0.05192066367515596 -0.04074445853057832 0 0.7708076356692919 -0.3305336638262921 0
          0 0 0 1.288998110592413 -0.26587993906212715 0
          0.1386156565916983 -0.12310641004505127 0 0.00012561297772726248 0.019241979893469246 0
          0 0 0 0.010312640692591453 0.00896623889249084 0
          0 0 0 0 0 0
          0.004582921890229115 0.0188189124923878 0 0.00012939005571203783 -0.00013414944833894983 0
          -0.0005145747468361082 0.018871605249589023 0 0.004070636182842177 0.023586307001897924 0
          0.7911720194410462 -0.09309246189176196 0 0 0 0
          0 0 0 0.4794153264572814 -0.28909721302046654 0
          -0.00039443529853926243 0.01827192001163308 0 0.9385340729232858 -0.35021992965692506 0
          1.2428891536061855 -0.231874718364182 0 0 0 0
          0.03431218872787806 -0.017019668211782153 0 0 0 0
          0.3059073372109813 -0.22255057585852073 0 0.00022704723645166247 0.02801586227915564 0
          0 0 0 -0.0007035161945164461 0.017180850372752913 0
          0.013230626205962345 0.017175829114398057 0 0 0 0
          -0.00029874780664991394 0.029417677209838903 0 0.15827142447403816 -0.12607491704396812 0
          0 0 0 -0.0010463308379708523 0.015737690665882462 0
          0 0 0 -0.0014158464962092832 0.02701321271436676 0
          0.6574353756632706 -0.33629820692339557 0 0 0 0
          -0.0013373481098730659 0.01356352486350821 0 -0.0021707643212368 0.025507376630156346 0
          1.0852203044616369 -0.16688878989542297 0 0.46716882260680365 -0.2865674729079729 0
          0.004281944536590175 0.028039549465084152 0 0 0 0
          -0.0014678748970874227 0.01125389629767092 0 1.20898077608517 -0.3126174511419712 0
          0.05174270808193596 -0.02719493763991188 0 -0.004312206765777237 0.024672871082886745 0
          1.0403392307559407 -0.3744685991669604 0 0.2992949158294555 -0.21247649047367778 0
          0 0 0 -0.0012977491348922848 0.009048923922759767 0
          -0.0030479540606075575 0.03172666292785153 0 0.1363501618204675 -0.10446066588961289 0
          -0.0046894074803030565 0.021205125319593454 0 0.029945576056159242 -0.002901227735755558 0
          0.816141239126731 -0.3706090684738283 0 0 0 0
          -0.0013007796283127121 0.006735014612464891 0 -0.0041393311833953315 0.01652218590310844 0
          0.6250644588846974 -0.3284257210464218 0 0.7066776887241155 -0.08323381064436684 0
          0 0 0 -0.0013011015969806238 0.004523771647185292 0
          -0.009055243362749623 0.026617511644377864 0 -0.0047034355145971875 0.013757758664531357 0
          0.00666789369299507 0.019224267162279398 0 0.45328340334120654 -0.2731044661874739 0
          0.07616419374889832 -0.056161588546971564 0 0 0 0
          -0.001165743189801449 0.0024405372602379345 0 1.104152563512258 -0.36473183628968525 0
          -0.004527061319251555 0.00997399575166149 0 -0.00961518862170409 0.020934537455392605 0
          0.2983840127213819 -0.2045630902241763 0 1.147755761353008 -0.30414701161315927 0
          0 0 0 0.9527259988170855 -0.3748988658118767 0
          -0.004262785620518934 0.006606594729500683 0 -0.00048740638354779857 0.0006327027836858951 0
          0.04582486666568985 -0.02166708272382562 0 -0.00976175651852234 0.01468308137385368 0
          0.15629689804366317 -0.12033387009794198 0 -0.003197029651074629 0.0034960886940695844 0
          0.6725981925738045 -0.3335341635549971 0 -0.008251276642739842 0.014853236163044653 0
          0 0 0 1.0061350395561999 -0.20974875605165502 0
          0.3172525431199759 -0.01764994325214325 0 -0.007990263846352074 0.00712234603053307 0
          -0.015235855610146615 0.015776018591553864 0 -0.014472188557640263 0.01436866194591884 0
          0.10449545691240379 -0.07767889171215377 0 0.4273902028016316 -0.2631206330189796 0
          0 0 0 -0.0037105853300411357 0.001695044839245147 0
          1.038824831321671 -0.33568591302725687 0 0.006620301804930595 -0.018346443084759894 0
          -0.015000069962071032 0.008275167690329212 0 -0.013499323819300186 0.0007875878445442627 0
          0.8215436651369024 -0.3425557772181639 0 0.20462427624284432 -0.1554903353207109 0
          0.5511833573511385 -0.07388661551596658 0 -0.01876433428366435 0.006384804741520434 0
          0 0 0 -0.009212847580586358 0.0024660606227748178 0
          0.564797668417057 -0.30230581964200404 0 1.0816527011768948 -0.27817897538946257 0
          0.05489734091801114 -0.06755672739214218 0 0.3486505368254861 -0.23354477986048983 0
          0.00351678077764405 -0.02707228119390262 0 -0.014202186525390952 -0.00745644729489711 0
          -0.015471295273739898 0.001759426149541907 0 0.9721953413237872 -0.32640117801534213 0
          0 0 0 -0.017731960758994216 0.00040860837681413494 0
          0.7446936755964199 -0.3450981844830685 0 0.48769749577715993 -0.29428240893847935 0
          0 0 0 0.1423313042476495 -0.13587541013708926 0
          0.04233015570522573 -0.06810931025165946 0 0.9560260516975876 -0.0987743006025448 0
          0.006022898132174017 -0.03263961149342447 0 -0.013976878122534736 -0.00004622557986263077 0
          -0.009898501492990163 -0.010794814252435931 0 0.28674260688344466 -0.2301196889871644 0
          0 0 0 0.9848801710444858 -0.38771766017128423 0
          -0.009168420849018168 -0.0004961682268222516 0 0.11562291362294559 -0.14091086814022122 0
          0.041254303115536586 -0.0639045909012946 0 0.5661268735773339 -0.4262748896640761 0
          0.007586109925185786 -0.018269476995863995 0 0.2602115166102565 -0.2915834369770072 0
          0 0 0 0.04278670280509332 -0.038350903373411606 0
          0.11877244474864293 -0.11772038706003936 0 0 0 0
          <InformationKey name="L2_NORM_RANGE" location="vtkDataArray" length="2">
            <Value index="0">
              0
            </Value>
            <Value index="1">
              1.4147058381
            </Value>
          </InformationKey>
        </DataArray>
        <DataArray type="Float64" Name="Pressure" format="ascii" RangeMin="-8.514201508961994" RangeMax="36.91598159233626">
          36.25396484568179 36.41483181245465 36.73777824839235 36.18942147299797 36.01169652262377 36.779942536106994
          36.04730909245731 35.50007981663396 35.35337335943903 34.59218862957288 36.09906161608517 34.3758290348749
          36.91598159233626 35.29868511331894 34.38100487459671 33.585253438173694 33.4319367051868 34.48812716645949
          36.48831474415161 35.53574775250229 33.292247046801265 34.74564943609347 32.355350652485754 36.88348750575388
          33.4804362446521 32.18765050094412 32.30038447355428 33.905823377054915 31.41521502825833 34.917800702673794
          35.90611300694994 30.85558227870827 36.703872929698605 34.17921805457882 33.061566841268096 31.137758226297983
          30.319255968849617 31.545317983517073 33.51571944209708 35.18918304032999 29.466959485689443 35.609493808321005
          36.72832168338421 34.357496477805775 29.632037248729482 32.11736733706762 30.123705987606495 32.78496971997491
          33.8519296658011 30.741337551593332 34.48336861652977 27.494724559243917 27.82875691835093 28.481249026517617
          33.3938550560269 32.04681157634447 29.315566230276186 33.9918655833052 30.186205268519156 32.76345743109493
          34.724560922319974 27.48297863080208 31.13796297359235 34.0901060549777 25.80999647116551 33.757263733219396