<?xml version="1.0"?>
<VTKFile type="UnstructuredGrid" version="0.1" byte_order="LittleEndian" header_type="UInt32" compressor="vtkZLibDataCompressor">
  <UnstructuredGrid>
    <Piece NumberOfPoints="418" NumberOfCells="757">
      <PointData>
        <DataArray type="Float64" Name="nsi_BC" NumberOfComponents="3" format="ascii" RangeMin="0" RangeMax="1">
          0 0 0 0 0 0
          0 0 0 0 0 0
          0 0 0 1 0 0
          0 0 0 0 0 0
          0 0 0 0 0 0
          0 0 0 0 0 0
          0 0 0 0 0 0
          0 0 0 0 0 0
          0 0 0 0 0 0
          0 0 0 0 0 0
          0 0 0 0 0 0
          0 0 0 0 0 0
          0 0 0 0 0 0
          0 0 0 0 0 0
          0 0 0 0 0 0
          0 0 0 0 0 0
          0 0 0 0 0 0
          0 0 0 0 0 0
          0 0 0 0 0 0
          0 0 0 0 0 0
          0 0 0 0 0 0
          0 0 0 0 0 0
          0 0 0 0 0 0
          0 0 0 0 0 0
          0 0 0 0 0 0
          0 0 0 0 0 0
          0 0 0 0 0 0
          0 0 0 0 0 0
          0 0 0 0 0 0
          0 0 0 0 0 0
          0 0 0 0 0 0
          0 0 0 0 0 0
          0 0 0 0 0 0
          0 0 0 0 0 0
          0 0 0 0 0 0
          0 0 0 0 0 0
          0 0 0 0 0 0
          0 0 0 0 0 0
          0 0 0 0 0 0
          0 0 0 0 0 0
          0 0 0 0 0 0
          0 0 0 0 0 0
          0 0 0 0 0 0
          0 0 0 0 0 0
          0 0 0 0 0 0
          0 0 0 0 0 0
          0 0 0 0 0 0
          0 0 0 0 0 0
          0 0 0 0 0 0
          0 0 0 0 0 0
          0 0 0 0 0 0
          0 0 0 0 0 0
          0 0 0 0 0 0
          0 0 0 0 0 0
          0 0 0 0 0 0
          0 0 0 0 0 0
          0 0 0 0 0 0
          0 0 0 0 0 0
          0 0 0 0 0 0
          0 0 0 0 0 0
          0 0 0 0 0 0
          0 0 0 0 0 0
          0 0 0 0 0 0
          0 0 0 0 0 0
          0 0 0 0 0 0
          0 0 0 0 0 0
          0 0 0 0 0 0
          0 0 0 0 0 0
          0 0 0 0 0 0
          0 0 0 0 0 0
          0 0 0 0 0 0
          0 0 0 0 0 0
          0 0 0 0 0 0
          0 0 0 0 0 0
          0 0 0 0 0 0
          0 0 0 0 0 0
          0 0 0 0 0 0
          0 0 0 0 0 0
          0 0 0 0 0 0
          0 0 0 0 0 0
          0 0 0 0 0 0
          0 0 0 0 0 0
          0 0 0 0 0 0
          0 0 0 0 0 0
          0 0 0 0 0 0
          0 0 0 0 0 0
          0 0 0 0 0 0
          0 0 0 0 0 0
          0 0 0 0 0 0
          0 0 0 0 0 0
          0 0 0 0 0 0
          0 0 0 0 0 0
          0 0 0 0 0 0
          0 0 0 0 0 0
          0 0 0 0 0 0
          0 0 0 0 0 0
          0 0 0 0 0 0
          0 0 0 0 0 0
          0 0 0 0 0 0
          0 0 0 0 0 0
          0 0 0 0 0 0
          0 0 0 0 0 0
          0 0 0 0 0 0
          0 0 0 0 0 0
          0 0 0 0 0 0
          0 0 0 0 0 0
          0 0 0 0 0 0
          0 0 0 0 0 0
          0 0 0 0 0 0
          0 0 0 0 0 0
          0 0 0 0 0 0
          0 0 0 0 0 0
          0 0 0 0 0 0
          0 0 0 0 0 0
          0 0 0 0 0 0
          0 0 0 0 0 0
          0 0 0 0 0 0
          0 0 0 0 0 0
          0 0 0 0 0 0
          0 0 0 0 0 0
          0 0 0 0 0 0
          0 0 0 0 0 0
          0 0 0 0 0 0
          0 0 0 0 0 0
          0 0 0 0 0 0
          0 0 0 0 0 0
          0 0 0 0 0 0
          0 0 0 0 0 0
          0 0 0 0 0 0
          0 0 0 0 0 0
          0 0 0 0 0 0
          0 0 0 0 0 0
          0 0 0 0 0 0
          0 0 0 0 0 0
          0 0 0 0 0 0
          0 0 0 0 0 0
          0 0 0 0 0 0
          0 0 0 0 0 0
          0 0 0 0 0 0
          0 0 0 0 0 0
          0 0 0 0 0 0
          0 0 0 0 0 0
          0 0 0 0 0 0
          0 0 0 0 0 0
          0 0 0 0 0 0
          0 0 0 0 0 0
          0 0 0 0 0 0
          0 0 0 0 0 0
          0 0 0 0 0 0
          0 0 0 0 0 0
          0 0 0 0 0 0
          0 0 0 0 0 0
          0 0 0 0 0 0
          0 0 0 0 0 0
          0 0 0 0 0 0
          0 0 0 0 0 0
          0 0 0 0 0 0
          0 0 0 0 0 0
          0 0 0 0 0 0
          0 0 0 0 0 0
          0 0 0 0 0 0
          0 0 0 0 0 0
          0 0 0 0 0 0
          0 0 0 0 0 0
          0 0 0 0 0 0
          0 0 0 0 0 0
          0 0 0 0 0 0
          0 0 0 0 0 0
          0 0 0 0 0 0
          0 0 0 0 0 0
          0 0 0 0 0 0
          0 0 0 0 0 0
          0 0 0 0 0 0
          0 0 0 0 0 0
          0 0 0 0 0 0
          0 0 0 0 0 0
          0 0 0 0 0 0
          0 0 0 0 0 0
          0 0 0 0 0 0
          0 0 0 0 0 0
          0 0 0 0 0 0
          0 0 0 0 0 0
          0 0 0 0 0 0
          0 0 0 0 0 0
          0 0 0 0 0 0
          0 0 0 0 0 0
          0 0 0 0 0 0
          0 0 0 0 0 0
          0 0 0 0 0 0
          0 0 0 0 0 0
          0 0 0 0 0 0
          0 0 0 0 0 0
          0 0 0 0 0 0
          0 0 0 0 0 0
          0 0 0 0 0 0
          0 0 0 0 0 0
          0 0 0 0 0 0
          0 0 0 0 0 0
          0 0 0 0 0 0
          0 0 0 0 0 0
          0 0 0 0 0 0
          0 0 0 0 0 0
          0 0 0 0 0 0
          0 0 0 0 0 0
          0 0 0 0 0 0
          0 0 0 0 0 0
          0 0 0 0 0 0
          0 0 0 0 0 0
          0 0 0 0 0 0
          <InformationKey name="L2_NORM_RANGE" location="vtkDataArray" length="2">
            <Value index="0">
              0
            </Value>
            <Value index="1">
              1
            </Value>
          </InformationKey>
        </DataArray>
        <DataArray type="Float64" Name="nsi_FIXNO" NumberOfComponents="3" format="ascii" RangeMin="1.4142135623730951" RangeMax="1.4142135623730951">
          1 1 0 -1 -1 0
          -1 -1 0 -1 -1 0
          1 1 0 1 1 0
          -1 -1 0 -1 -1 0
          -1 -1 0 -1 -1 0
          -1 -1 0 -1 -1 0
          -1 -1 0 -1 -1 0
          -1 -1 0 1 1 0
          -1 -1 0 -1 -1 0
          -1 -1 0 -1 -1 0
          -1 -1 0 -1 -1 0
          -1 -1 0 -1 -1 0
          -1 -1 0 -1 -1 0
          -1 -1 0 -1 -1 0
          -1 -1 0 -1 -1 0
          -1 -1 0 -1 -1 0
          1 1 0 -1 -1 0
          -1 -1 0 -1 -1 0
          1 1 0 -1 -1 0
          -1 -1 0 -1 -1 0
          -1 -1 0 -1 -1 0
          1 1 0 -1 -1 0
          -1 -1 0 -1 -1 0
          -1 -1 0 -1 -1 0
          -1 -1 0 -1 -1 0
          -1 -1 0 -1 -1 0
          -1 -1 0 -1 -1 0
          -1 -1 0 -1 -1 0
          -1 -1 0 -1 -1 0
          -1 -1 0 -1 -1 0
          1 1 0 -1 -1 0
          -1 -1 0 -1 -1 0
          -1 -1 0 -1 -1 0
          -1 -1 0 -1 -1 0
          -1 -1 0 1 1 0
          -1 -1 0 -1 -1 0
          -1 -1 0 -1 -1 0
          -1 -1 0 -1 -1 0
          -1 -1 0 -1 -1 0
          -1 -1 0 -1 -1 0
          -1 -1 0 -1 -1 0
          -1 -1 0 -1 -1 0
          -1 -1 0 -1 -1 0
          -1 -1 0 -1 -1 0
          1 1 0 -1 -1 0
          -1 -1 0 -1 -1 0
          -1 -1 0 -1 -1 0
          -1 -1 0 -1 -1 0
          -1 -1 0 -1 -1 0
          -1 -1 0 -1 -1 0
          -1 -1 0 -1 -1 0
          -1 -1 0 -1 -1 0
          -1 -1 0 -1 -1 0
          -1 -1 0 -1 -1 0
          -1 -1 0 -1 -1 0
          -1 -1 0 -1 -1 0
          -1 -1 0 -1 -1 0
          -1 -1 0 -1 -1 0
          -1 -1 0 -1 -1 0
          -1 -1 0 -1 -1 0
          -1 -1 0 1 1 0
          -1 -1 0 -1 -1 0
          -1 -1 0 -1 -1 0
          -1 -1 0 -1 -1 0
          -1 -1 0 -1 -1 0
          -1 -1 0 -1 -1 0
          -1 -1 0 -1 -1 0
          -1 -1 0 -1 -1 0
          -1 -1 0 -1 -1 0
          -1 -1 0 -1 -1 0
          -1 -1 0 -1 -1 0
          -1 -1 0 -1 -1 0
          -1 -1 0 -1 -1 0
          -1 -1 0 -1 -1 0
          1 1 0 -1 -1 0
          -1 -1 0 -1 -1 0
          -1 -1 0 -1 -1 0
          -1 -1 0 -1 -1 0
          -1 -1 0 -1 -1 0
          -1 -1 0 1 1 0
          -1 -1 0 -1 -1 0
          1 1 0 -1 -1 0
          1 1 0 -1 -1 0
          -1 -1 0 -1 -1 0
          -1 -1 0 1 1 0
          -1 -1 0 -1 -1 0
          -1 -1 0 -1 -1 0
          1 1 0 -1 -1 0
          1 1 0 -1 -1 0
          -1 -1 0 -1 -1 0
          -1 -1 0 -1 -1 0
          -1 -1 0 -1 -1 0
          1 1 0 -1 -1 0
          -1 -1 0 1 1 0
          1 1 0 -1 -1 0
          -1 -1 0 -1 -1 0
          -1 -1 0 -1 -1 0
          -1 -1 0 1 1 0
          -1 -1 0 -1 -1 0
          -1 -1 0 -1 -1 0
          -1 -1 0 -1 -1 0
          1 1 0 1 1 0
          -1 -1 0 1 1 0
          -1 -1 0 -1 -1 0
          -1 -1 0 -1 -1 0
          1 1 0 -1 -1 0
          -1 -1 0 -1 -1 0
          -1 -1 0 -1 -1 0
          1 1 0 -1 -1 0
          -1 -1 0 -1 -1 0
          1 1 0 -1 -1 0
          -1 -1 0 1 1 0
          1 1 0 -1 -1 0
          -1 -1 0 -1 -1 0
          -1 -1 0 -1 -1 0
          -1 -1 0 -1 -1 0
          -1 -1 0 1 1 0
          1 1 0 -1 -1 0
          1 1 0 1 1 0
          -1 -1 0 -1 -1 0
          1 1 0 -1 -1 0
          -1 -1 0 -1 -1 0
          -1 -1 0 1 1 0
          -1 -1 0 -1 -1 0
          -1 -1 0 1 1 0
          -1 -1 0 1 1 0
          -1 -1 0 -1 -1 0
          -1 -1 0 -1 -1 0
          -1 -1 0 -1 -1 0
          -1 -1 0 1 1 0
          1 1 0 -1 -1 0
          1 1 0 -1 -1 0
          1 1 0 -1 -1 0
          -1 -1 0 -1 -1 0
          1 1 0 -1 -1 0
          -1 -1 0 -1 -1 0
          -1 -1 0 -1 -1 0
          1 1 0 1 1 0
          -1 -1 0 -1 -1 0
          -1 -1 0 -1 -1 0
          -1 -1 0 -1 -1 0
          1 1 0 -1 -1 0
          -1 -1 0 -1 -1 0
          1 1 0 -1 -1 0
          1 1 0 1 1 0
          -1 -1 0 -1 -1 0
          -1 -1 0 -1 -1 0
          -1 -1 0 1 1 0
          1 1 0 -1 -1 0
          -1 -1 0 -1 -1 0
          -1 -1 0 1 1 0
          -1 -1 0 1 1 0
          -1 -1 0 -1 -1 0
          1 1 0 -1 -1 0
          -1 -1 0 1 1 0
          -1 -1 0 -1 -1 0
          1 1 0 -1 -1 0
          1 1 0 -1 -1 0
          -1 -1 0 1 1 0
          -1 -1 0 -1 -1 0
          -1 -1 0 -1 -1 0
          -1 -1 0 1 1 0
          -1 -1 0 -1 -1 0
          -1 -1 0 -1 -1 0
          -1 -1 0 -1 -1 0
          1 1 0 -1 -1 0
          -1 -1 0 -1 -1 0
          -1 -1 0 -1 -1 0
          -1 -1 0 1 1 0
          -1 -1 0 -1 -1 0
          -1 -1 0 -1 -1 0
          1 1 0 -1 -1 0
          -1 -1 0 -1 -1 0
          -1 -1 0 -1 -1 0
          -1 -1 0 1 1 0
          -1 -1 0 -1 -1 0
          -1 -1 0 -1 -1 0
          -1 -1 0 -1 -1 0
          1 1 0 -1 -1 0
          -1 -1 0 -1 -1 0
          -1 -1 0 -1 -1 0
          -1 -1 0 -1 -1 0
          -1 -1 0 -1 -1 0
          1 1 0 -1 -1 0
          -1 -1 0 -1 -1 0
          -1 -1 0 -1 -1 0
          -1 -1 0 -1 -1 0
          1 1 0 -1 -1 0
          -1 -1 0 -1 -1 0
          -1 -1 0 -1 -1 0
          -1 -1 0 -1 -1 0
          -1 -1 0 -1 -1 0
          1 1 0 -1 -1 0
          -1 -1 0 -1 -1 0
          -1 -1 0 -1 -1 0
          -1 -1 0 -1 -1 0
          -1 -1 0 -1 -1 0
          1 1 0 -1 -1 0
          -1 -1 0 -1 -1 0
          1 1 0 -1 -1 0
          -1 -1 0 -1 -1 0
          -1 -1 0 -1 -1 0
          -1 -1 0 -1 -1 0
          1 1 0 -1 -1 0
          -1 -1 0 -1 -1 0
          -1 -1 0 -1 -1 0
          -1 -1 0 -1 -1 0
          1 1 0 -1 -1 0
          -1 -1 0 1 1 0
          <InformationKey name="L2_NORM_RANGE" location="vtkDataArray" length="2">
            <Value index="0">
              1.4142135624
            </Value>
            <Value index="1">
              1.4142135624
            </Value>
          </InformationKey>
        </DataArray>
        <DataArray type="Float64" Name="Velocity" NumberOfComponents="3" format="ascii" RangeMin="0" RangeMax="1.4149231136806306">
          0 0 0 0.31853881732831213 0.024334567098379764 0
          0.7322489707429013 0.10038593219467042 0 0.5148541751042117 0.036643897575937105 0
          0 0 0 1 0 0
          0.7173976876556557 0.02637866160173639 0 0.3694786866520941 0.021621827139962867 0
          0.6436539053749284 0.03794840169109692 0 0.311443244566101 0.00480346960217784 0
          0.6663841221743754 0.028823303548376717 0 0.5617552124222959 0.03259560802330084 0
          0.7022470034313503 -0.09765099738823226 0 0.7198420009665547 0.033128997028455676 0
          0.6859527012149939 0.04719190764150291 0 0 0 0
          0.5047414709178107 0.026494444694451207 0 0.7274231119972486 0.060746425303662505 0
          0.6054201456200456 -0.004540135055488294 0 0.6492570100310057 0.04374947579180621 0
          0.660697708934127 0.05730637546613177 0 0.6876282002537727 0.06407556299620665 0
          0.4230422858548804 0.036328303572316055 0 0.3487279236962358 -0.028467157723369017 0
          0.7339690829072613 0.09881038732657478 0 0.6420557109157712 0.07991021421555794 0
          0.743634117031139 0.11900573348823554 0 0.7156638572482595 0.10072552105938665 0
          0.31998096625827616 0.01212141134749389 0 0.569823429160361 0.05003067985229619 0
          0.44458830465683424 0.0038189763787333363 0 0.6002114988175014 0.09028782396505998 0
          0 0 0 0.6205203679562626 0.0838825483310139 0
          0.7367962348085222 0.15770654729965944 0 0.7580672967117451 0.15521028158531505 0
          0 0 0 0.7797899771918821 0.19135454310460126 0
          0.6537878299295732 0.13917455506022225 0 0.3209635618240292 0.010363301183198413 0
          0.5638939282708307 0.08530712968854275 0 0.20039183963170532 0.005368357297527109 0
          0 0 0 0.4637307360742457 0.053391158148563655 0
          0.7654569061153635 0.18332753624280249 0 0.7591396634150254 0.22634497271130394 0
          0.8285785398972884 0.24642234753592046 0 0.680379813385169 0.21012857494924117 0
          0.5154096535695043 0.09761575832584625 0 0.8143888187240679 0.2845049883023206 0
          0.30576114509363017 0.02645262078069382 0 0.46006752589887345 0.0247598318194697 0
          0.7944437952039592 0.15353465067926125 0 0.8777370300291407 0.27610025071718974 0
          0.5544926467394562 0.16802071904560173 0 0.6936295705348967 0.29130375570135086 0
          0.872114179231622 0.34294254721261425 0 0.34529715138133843 0.04957696709609336 0
          0.8012486474223302 0.3707467138007514 0 0.5906025720701804 0.2546361879958064 0
          0 0 0 0.9495996890031737 0.3642295060047532 0
          0.7081812549089205 0.3729058381152934 0 0.18260267227167062 0.011455804734707113 0
          0.983504468148879 0.2376315624780883 0 0.367208058461541 0.0935331511256509 0
          0.45572255272809414 0.19083302545277409 0 0.8755352816428233 0.42379385439044354 0
          0.5928029540190987 0.3326578770212339 0 0 0 0
          0.7471716279375811 0.10290805325183981 0 0.46826035308171604 0.26687948150229884 0
          0.7446392110479241 0.4629163961865877 0 1.0542543281038046 0.35896537226695857 0
          0.966190913649336 0.46271085153357255 0 0.32316394241149715 0.12570024056804013 0
          0.2105235346087513 0.036405957876877254 0 0.567838488742792 0.41155752532360457 0
          0.8519193528877729 0.512198833149546 0 1.1165849495606543 0.28680729495797347 0
          0.46467463252380126 0.34142060114578276 0 0.7281038798110258 0.5129478913058007 0
          0.33899890229414503 0.18906617768340891 0 0.2407006801386014 0.0644127588787488 0
          1.0347188080351508 0.19358618783317924 0 0.6089729775160082 0.4945285535510887 0
          0.9623790599014947 0.5225538555612517 0 0.3405188928702795 0.2591298876501338 0
          0 0 0 0.832562923394097 0.08458736345831586 0
          1.1907863315456813 0.3828273661822273 0 0.7908770171382664 0.5632510691419101 0
          0.43867474994080485 0.42013749711598586 0 0.6421035910092596 0.5527040526597803 0
          1.2243907309738398 0.27654423571692094 0 0.22923182916762277 0.11932620567880164 0
          0.31248507804182357 0.3059889256499805 0 0.11976502955952174 0.01624619596793716 0
          0.24061485018464038 0.18313361449736887 0 0.47738517306580774 0.011010571122863869 0
          0.933583082413567 0.5630342186289308 0 0.4223415816899844 0.4773660058775289 0
          1.1484449546575397 0.4722708651123969 0 0.24369202683184554 0.24531146992691816 0
          0.6971583955888196 0.5862371724181102 0 0.278580682394049 0.34596067608091396 0
          1.1688765198870412 0.1424369315193109 0 1.2946208664740766 0.3313924986100289 0
          0.13748885474286418 0.043714084315474515 0 0.5219583906419735 0.5573428125822745 0
          0.8063386984632507 0.5705899100240168 0 0.2009218762947083 0.2668367531820671 0
          0.3255736163925354 0.4542561828128434 0 1.0819572696685225 0.4854146972454046 0
          0.9179165772044856 0.02909566854572751 0 0.13314973279283562 0.07065909307137681 0
          0.5572636968817056 0.5572011131605844 0 0.21660301020434808 0.3467022264631704 0
          1.271016270981251 0.3582138494895275 0 1.3480177536726912 0.19618110404939912 0
          0.13911910733168217 0.12290337579311368 0 0 0 0
          0.15121026822480174 0.1911144118563265 0 0.32682546532669055 0.48014329220892366 0
          1.3562329268541802 0.25988575750688725 0 0.16727320284911193 0.2782827385648736 0
          0.05778849132895636 0.008123227184437896 0 0.6567725616774233 0.5068708300485079 0
          0.15552491976035698 0.3272106312811604 0 0.9883607474380477 0.4236033678296966 0
          0.3640863003882576 0.45524997787373755 0 0.1092099081013544 0.19518837171250936 0
          1.1810476436025499 0.34011185252941917 0 0.0764611836563451 0.030592643145802536 0
          0.10088469469714594 0.1280972809419492 0 1.250162733642804 0.05988028405904209 0
          1.3158167821683948 0.25621052818665463 0 0.16270319467312122 0.34245954897298553 0
          0.0835767047107757 0.18967354564844935 0 1.4026606553432228 0.15671750234201146 0
          0.429360927802637 0.35806707513314406 0 0.08420067816312057 0.09358689320212034 0
          0.07392119176130685 0.23995416267337472 0 0.06883551519848373 0.043175581773196726 0
          0.7665756777393204 0.30837393856449713 0 0.07691999665170102 0.12665596304507182 0
          0.0677932183560504 0.20499775520795038 0 0.07090383195255223 0.20655980289300788 0
          0 0 0 0.08467545693382711 0.21636278891364727 0
          0.9964984679399872 0.2548823107876452 0 1.4000484350918427 0.08340676167457975 0
          1.1957993158601006 0.21243948825674897 0 0.0410465950371911 0.15427729840150384 0
          0.05743125917817443 0.055821785649485194 0 0.046540059590770365 0.11829458496421094 0
          0.9257228272517676 0.007810364748089417 0 0.03215163309171593 0.1362278475387738 0
          0.021627606970493825 0.12070752731277978 0 0 0 0
          0.0531798195430581 0.08360617460145757 0 0.4024384235122856 0.0707925340777153 0
          0 0 0 0.707858077420239 0.11328375141715175 0
          0 0 0 0.01753031789734328 0.09136359941385401 0
          0.02896944043767173 0.1057177556625646 0 0.037586648111214566 0.013452749048707769 0
          1.3299193898921853 0.07338931427637578 0 0 0 0
          0.01105613038974866 0.06761835247071125 0 0.04021946774604687 0.05412058153606183 0
          0.9291823327109275 0.07725591595279802 0 0.03171383077205377 0.07313557078471282 0
          0 0 0 0.01843328937022016 0.07491567127981312 0
          0 0 0 1.414834324035474 0.01585096712426159 0
          0.3550442717237458 0.02813786245972372 0 0.00660423804247475 0.054375084703162324 0
          1.1313713920279709 0.03253610696291557 0 0.017792005084087265 0.06532860702948998 0
          0.6750825065427543 0.04064973975512421 0 0.030481659218500854 0.021680272130630257 0
          0 0 0 0.006790410048659165 0.04217021271129575 0
          1.406605848617746 -0.021221233308653203 0 0 0 0
          0 0 0 0.013300579119289528 0.045181447442786085 0
          0.023758761293584847 0.025058805202735342 0 0.004786690694442236 0.03363054477705919 0
          0.01825292927782548 0.03865110774236395 0 0.33596836751709264 0.00041635826806418096 0
          0.012309265878064177 0.038321708249116376 0 0 0 0
          1.2548655771134738 -0.041283874378123774 0 0.6599894013715512 -0.02113404551043787 0
          0.9414336299650606 -0.05135411065990414 0 0.004316247438486234 0.025707087868081076 0
          1.153859113321924 -0.08781339356490712 0 0.016423210262056932 0.005598981820282316 0
          0 0 0 0 0 0
          0.013925541920023963 0.02218680783975408 0 0 0 0
          1.3146412113740318 -0.10645731129175648 0 0.007879069164221437 0.02487108217882667 0
          0.0036104492275777543 0.019386833774325363 0 0.34155953013443496 -0.025777069937312873 0
          0 0 0 1.3932449999439365 -0.11545274571023725 0
          0.007477506461424808 0.01907870683523561 0 0.6736441981658082 -0.11872713699409397 0
          0.011043809881594759 0.009509960906648067 0 0.0028238922195534416 0.013806801260572411 0
          0 0 0 0.9257459936852328 -0.16206501511081514 0
          0.00467059824832599 0.014472229485384474 0 1.3754704048409088 -0.1155316523586847 0
          0 0 0 0.0024499118693993506 0.009902226214556456 0
          1.1291216679417007 -0.18748713395053293 0 0 0 0
          0 0 0 0.38899447412191035 -0.16625261956680368 0
          0.005912629286183099 0.007562132239701237 0 0.004600722795768445 0.009323746818728242 0
          0.9459954385579114 -0.045040831349812814 0 0.0014395843875206374 0.006436163910945913 0
          1.2800535962265531 -0.19555343158214034 0 1.2122595420753801 -0.08938042030484018 0
          0.005869314648986894 0.0019689699835948307 0 0 0 0
          0 0 0 0.6683208011788158 -0.229588297149872 0
          0 0 0 0 0 0
          0.0008526502050904097 0.004402288414266981 0 0.04568015424371615 -0.07176896993802062 0
          0 0 0 0.0025684510610950646 0.005120561401666463 0
          1.3572651883640356 -0.1960902680873008 0 0.8976247718918676 -0.26072139990936627 0
          0.003244494821826765 0.002462796046561393 0 0 0 0
          0.025728292336938612 -0.031236992296002186 0 0.0009929729288247133 0.002491489241400638 0
          0.0021693216676241397 0.003033361155795403 0 0 0 0
          0.014769721280550999 -0.006266360932397986 0 0 0 0
          0.3077338903289638 -0.20329042332455283 0 1.3247723699856855 -0.17070533722801914 0
          0.0009658961318321296 0.0016938218447513247 0 1.0564221897661237 -0.2916640315375439 0
          0.006175698633735833 0.010653130007166495 0 0.0018147754697688885 0.00043030146771587635 0
          0.0007318720216138875 0.001344158068757807 0 0 0 0
          0 0 0 0.10093944764926316 -0.10271374832218698 0
          0 0 0 0.0020853225757507094 0.01612055881004709 0
          0 0 0 1.2266295116106494 -0.28260313041735124 0
          0.06361278967132347 -0.05398673743141445 0 0.0009556222381314774 0.0006797285321598524 0
          0 0 0 0.0003289334710683315 0.00043456639160975466 0
          0.2564347331949478 -0.007549056729588944 0 0.5362651839978477 -0.2744883099598397 0
          0.0012070735375801194 0.019278870008793754 0 1.1654437511531892 -0.13931563121694107 0
          0 0 0 0 0 0
          0.0009483980540610914 0.02039731395955411 0 0.0001830169946385522 0.00012252843613502675 0
          0.2884423904791612 -0.20402377904930857 0 0.01658795143522703 0.00007782620225155278 0
          0.05148926719577821 -0.03320359831933981 0 0.7696746081320829 -0.31749340537427384 0
          0 0 0 1.2923191227717792 -0.2543956574542854 0
          0.13778264668290977 -0.11283700187301818 0 0.000007317093440464716 0.021395775756540412 0
          0 0 0 0.010041899646906677 0.014630460965767075 0
          0 0 0 0 0 0
          0.004274780567559118 0.02354083409409051 0 0.00009692606358781999 -0.00015386863824386177 0
          -0.0006301421650090975 0.02080352218490145 0 0.0037318220287118984 0.02813582020318626 0
          0.7971446571845471 -0.09010709370462239 0 0 0 0
          0 0 0 0.4780674813187177 -0.27419606188851836 0
          -0.0005425824386306898 0.01996553797523206 0 0.9387223943863363 -0.3341950362241629 0
          1.2497260647883626 -0.2220508546023403 0 0 0 0
          0.03356718773234354 -0.007423172368933439 0 0 0 0
          0.30462481539250624 -0.2074786021173562 0 -0.0002776863301531338 0.03262222187197058 0
          0 0 0 -0.0008883860372273134 0.018587845707173593 0
          0.012457752764229054 0.02501141837655796 0 0 0 0
          -0.0008267034074714402 0.033510526309531184 0 0.15711320989940689 -0.11164779616816561 0
          0 0 0 -0.0011987360971820616 0.016874658776724134 0
          0 0 0 -0.0020107315576634085 0.03017547024503259 0
          0.6569843624253455 -0.31763039679837124 0 0 0 0
          -0.0014748457210510026 0.01442798245934061 0 -0.0027154629891897714 0.028131589154882345 0
          1.0957616150598593 -0.16052191322167356 0 0.46601185798038447 -0.2671881882290211 0
          0.002906875560759285 0.03541158610888318 0 0 0 0
          -0.0016645114520508519 0.011804641053437249 0 1.215936224732039 -0.2980910174948726 0
          0.05003769291436756 -0.014129006790225903 0 -0.004903493471969871 0.027030139825236225 0
          1.043583319292265 -0.3556755601640933 0 0.2977769101425918 -0.19319590741352155 0
          0 0 0 -0.001443544193494374 0.009310069415746696 0
          -0.004472359925246586 0.037060935725363675 0 0.13422699635249005 -0.08707189108938479 0
          -0.005381413667777032 0.022885709158563895 0 0.027534953793909193 0.009041261331855264 0
          0.8176766292561531 -0.3490480241766078 0 0 0 0
          -0.001380633747219228 0.0068054514269332384 0 -0.004751128908023413 0.017486894615147762 0
          0.6252010726070892 -0.3056138529889634 0 0.7155675263751696 -0.08095996140596495 0
          0 0 0 -0.001355509499156232 0.004479247620089421 0
          -0.010826239208616521 0.02996333054442289 0 -0.005131842982935674 0.014317422634225113 0
          0.0035733534728194798 0.02880965219102259 0 0.45198812486142464 -0.24951969167130555 0
          0.07248291484597626 -0.03978621147744314 0 0 0 0
          -0.0011624887714125644 0.0023626945697556435 0 1.1122720491185714 -0.3467574489137068 0
          -0.004814065529638455 0.010187639074076485 0 -0.011165862322325066 0.022867557058254818 0
          0.2958221542225988 -0.1814867211516287 0 1.1605226631532466 -0.29106175436841075 0
          0 0 0 0.9579872722803601 -0.35240524510109983 0
          -0.004383363007596597 0.00667193890154178 0 -0.00047121249221630855 0.000587765215925626 0
          0.041032104016098234 -0.007400641808096905 0 -0.010708725749008314 0.015619778731979107 0
          0.15140363510504076 -0.0995093477315143 0 -0.0031944468543427915 0.0034751076822010104 0
          0.6737792168985318 -0.30813346007395137 0 -0.013130473707088463 0.02272259585367273 0
          0 0 0 1.023605299941903 -0.20357674052770125 0
          0.3232126342531086 -0.01755038802019461 0 -0.008251332158511473 0.00734894226950479 0
          -0.019132304577992046 0.020459030657621648 0 -0.017032125117111975 0.01690382484088221 0
          0.09793618219837874 -0.05842752243036424 0 0.42483970300426205 -0.2371508890663543 0
          0 0 0 -0.003724002135301263 0.00170778493707141 0
          1.05020491088125 -0.31529519758864843 0 -0.0020117802521502593 -0.006143369204064433 0
          -0.016182788040880854 0.009210595730548922 0 -0.020433043024271607 0.008205316267763066 0
          0.8263999874794667 -0.31792717910856344 0 0.19671286736623367 -0.1321396052226594 0
          0.5640424811465895 -0.07288814604402205 0 -0.023687358232100414 0.01042507565886564 0
          0 0 0 -0.009530330326851405 0.0026561864699322303 0
          0.5640387995200098 -0.2766171112998303 0 1.1008268594591317 -0.2628792831915513 0
          0.04214834969492322 -0.051850534711358136 0 0.3411483255325514 -0.2085282741579026 0
          -0.00801548455634264 -0.016577542347417245 0 -0.022764183261608992 -0.0016398221808679844 0
          -0.016738902218823584 0.002236765950994745 0 0.9851573715355689 -0.30726989699700086 0
          0 0 0 -0.02252720000882579 0.0030119751506508434 0
          0.748524557914501 -0.3236524919382712 0 0.48293500407412393 -0.2721709779499876 0
          0 0 0 0.1252634141442231 -0.11769603638166079 0
          0.02543284215920454 -0.05555406391937482 0 0.985756775266707 -0.09223600550222051 0
          -0.007951567755171028 -0.025202793145461533 0 -0.016453456002629315 0.001032164759984661 0
          -0.018248441392898603 -0.007215074405099751 0 0.2706370213038833 -0.21096174743267024 0
          0 0 0 1.002278760779261 -0.37466561102695584 0
          -0.013452910839112868 -0.00006349396705882573 0 0.09253480262150535 -0.12734396464629358 0
          0.021248889993824474 -0.056040600135100795 0 0.5615076993221273 -0.4122836835614215 0
          -0.001727840535916924 -0.016567050912108982 0 0.23572795490507237 -0.2808134491062105 0
          0 0 0 0.024890818733154504 -0.035673416858642545 0
          0.08947957969196306 -0.1092897424064043 0 0 0 0
          <InformationKey name="L2_NORM_RANGE" location="vtkDataArray" length="2">
            <Value index="0">
              0
            </Value>
            <Value index="1">
              1.4149231137
            </Value>
          </InformationKey>
        </DataArray>
        <DataArray type="Float64" Name="Pressure" format="ascii" RangeMin="-8.322997904056713" RangeMax="36.92691406785569">
          36.266057086713396 36.42408928073645 36.75080673683732 36.20093525351832 36.01799309433816 36.79263419092492
          36.0638479826694 35.511348165278356 35.37200932508692 34.607321339704555 36.11515765119556 34.394700071604554
          36.92691406785569 35.32317677381187 34.405439344435216 33.60458084177252 33.45360923011322 34.516878279513655
          36.50169045427879 35.55762222643362 33.31953870749841 34.77453217479857 32.39079652593926 36.89212504839933
          33.51782260028806 32.22659406577398 32.34507382713944 33.94449288254147 31.465798615052194 34.94313355537721
          35.91775518147199 30.911086415674916 36.71233449744235 34.213958916293564 33.11240458586482 31.193089094042804
          30.38608983207808 31.60737884856229 33.56490577703814 35.200430152258654 29.537229416792986 35.61107213348595
          36.733166141291505 34.380290488975646 29.699631115088472 32.17832337016809 30.191505064523245 32.847337942851844
          33.89006689496413 30.816207205648926 34.49555682195397 27.586041287670795 27.91278632804199 28.558710403644415
          33.447267041680405 32.12353834084992 29.397784940537395 34.01797051692445 30.277019854216842 32.83335127790778
          34.72580675575987 27.571854169444137 31.22949988264163 34.10557178947209 25.904231428907643 33.79316169836503