<?xml version="1.0"?>
<VTKFile type="UnstructuredGrid" version="0.1" byte_order="LittleEndian" header_type="UInt32" compressor="vtkZLibDataCompressor">
  <UnstructuredGrid>
    <Piece NumberOfPoints="418" NumberOfCells="757">
      <PointData>
        <DataArray type="Float64" Name="nsi_BC" NumberOfComponents="3" format="ascii" RangeMin="0" RangeMax="1">
          0 0 0 0 0 0
          0 0 0 0 0 0
          0 0 0 1 0 0
          0 0 0 0 0 0
          0 0 0 0 0 0
          0 0 0 0 0 0
          0 0 0 0 0 0
          0 0 0 0 0 0
          0 0 0 0 0 0
          0 0 0 0 0 0
          0 0 0 0 0 0
          0 0 0 0 0 0
          0 0 0 0 0 0
          0 0 0 0 0 0
          0 0 0 0 0 0
          0 0 0 0 0 0
          0 0 0 0 0 0
          0 0 0 0 0 0
          0 0 0 0 0 0
          0 0 0 0 0 0
          0 0 0 0 0 0
          0 0 0 0 0 0
          0 0 0 0 0 0
          0 0 0 0 0 0
          0 0 0 0 0 0
          0 0 0 0 0 0
          0 0 0 0 0 0
          0 0 0 0 0 0
          0 0 0 0 0 0
          0 0 0 0 0 0
          0 0 0 0 0 0
          0 0 0 0 0 0
          0 0 0 0 0 0
          0 0 0 0 0 0
          0 0 0 0 0 0
          0 0 0 0 0 0
          0 0 0 0 0 0
          0 0 0 0 0 0
          0 0 0 0 0 0
          0 0 0 0 0 0
          0 0 0 0 0 0
          0 0 0 0 0 0
          0 0 0 0 0 0
          0 0 0 0 0 0
          0 0 0 0 0 0
          0 0 0 0 0 0
          0 0 0 0 0 0
          0 0 0 0 0 0
          0 0 0 0 0 0
          0 0 0 0 0 0
          0 0 0 0 0 0
          0 0 0 0 0 0
          0 0 0 0 0 0
          0 0 0 0 0 0
          0 0 0 0 0 0
          0 0 0 0 0 0
          0 0 0 0 0 0
          0 0 0 0 0 0
          0 0 0 0 0 0
          0 0 0 0 0 0
          0 0 0 0 0 0
          0 0 0 0 0 0
          0 0 0 0 0 0
          0 0 0 0 0 0
          0 0 0 0 0 0
          0 0 0 0 0 0
          0 0 0 0 0 0
          0 0 0 0 0 0
          0 0 0 0 0 0
          0 0 0 0 0 0
          0 0 0 0 0 0
          0 0 0 0 0 0
          0 0 0 0 0 0
          0 0 0 0 0 0
          0 0 0 0 0 0
          0 0 0 0 0 0
          0 0 0 0 0 0
          0 0 0 0 0 0
          0 0 0 0 0 0
          0 0 0 0 0 0
          0 0 0 0 0 0
          0 0 0 0 0 0
          0 0 0 0 0 0
          0 0 0 0 0 0
          0 0 0 0 0 0
          0 0 0 0 0 0
          0 0 0 0 0 0
          0 0 0 0 0 0
          0 0 0 0 0 0
          0 0 0 0 0 0
          0 0 0 0 0 0
          0 0 0 0 0 0
          0 0 0 0 0 0
          0 0 0 0 0 0
          0 0 0 0 0 0
          0 0 0 0 0 0
          0 0 0 0 0 0
          0 0 0 0 0 0
          0 0 0 0 0 0
          0 0 0 0 0 0
          0 0 0 0 0 0
          0 0 0 0 0 0
          0 0 0 0 0 0
          0 0 0 0 0 0
          0 0 0 0 0 0
          0 0 0 0 0 0
          0 0 0 0 0 0
          0 0 0 0 0 0
          0 0 0 0 0 0
          0 0 0 0 0 0
          0 0 0 0 0 0
          0 0 0 0 0 0
          0 0 0 0 0 0
          0 0 0 0 0 0
          0 0 0 0 0 0
          0 0 0 0 0 0
          0 0 0 0 0 0
          0 0 0 0 0 0
          0 0 0 0 0 0
          0 0 0 0 0 0
          0 0 0 0 0 0
          0 0 0 0 0 0
          0 0 0 0 0 0
          0 0 0 0 0 0
          0 0 0 0 0 0
          0 0 0 0 0 0
          0 0 0 0 0 0
          0 0 0 0 0 0
          0 0 0 0 0 0
          0 0 0 0 0 0
          0 0 0 0 0 0
          0 0 0 0 0 0
          0 0 0 0 0 0
          0 0 0 0 0 0
          0 0 0 0 0 0
          0 0 0 0 0 0
          0 0 0 0 0 0
          0 0 0 0 0 0
          0 0 0 0 0 0
          0 0 0 0 0 0
          0 0 0 0 0 0
          0 0 0 0 0 0
          0 0 0 0 0 0
          0 0 0 0 0 0
          0 0 0 0 0 0
          0 0 0 0 0 0
          0 0 0 0 0 0
          0 0 0 0 0 0
          0 0 0 0 0 0
          0 0 0 0 0 0
          0 0 0 0 0 0
          0 0 0 0 0 0
          0 0 0 0 0 0
          0 0 0 0 0 0
          0 0 0 0 0 0
          0 0 0 0 0 0
          0 0 0 0 0 0
          0 0 0 0 0 0
          0 0 0 0 0 0
          0 0 0 0 0 0
          0 0 0 0 0 0
          0 0 0 0 0 0
          0 0 0 0 0 0
          0 0 0 0 0 0
          0 0 0 0 0 0
          0 0 0 0 0 0
          0 0 0 0 0 0
          0 0 0 0 0 0
          0 0 0 0 0 0
          0 0 0 0 0 0
          0 0 0 0 0 0
          0 0 0 0 0 0
          0 0 0 0 0 0
          0 0 0 0 0 0
          0 0 0 0 0 0
          0 0 0 0 0 0
          0 0 0 0 0 0
          0 0 0 0 0 0
          0 0 0 0 0 0
          0 0 0 0 0 0
          0 0 0 0 0 0
          0 0 0 0 0 0
          0 0 0 0 0 0
          0 0 0 0 0 0
          0 0 0 0 0 0
          0 0 0 0 0 0
          0 0 0 0 0 0
          0 0 0 0 0 0
          0 0 0 0 0 0
          0 0 0 0 0 0
          0 0 0 0 0 0
          0 0 0 0 0 0
          0 0 0 0 0 0
          0 0 0 0 0 0
          0 0 0 0 0 0
          0 0 0 0 0 0
          0 0 0 0 0 0
          0 0 0 0 0 0
          0 0 0 0 0 0
          0 0 0 0 0 0
          0 0 0 0 0 0
          0 0 0 0 0 0
          0 0 0 0 0 0
          0 0 0 0 0 0
          0 0 0 0 0 0
          0 0 0 0 0 0
          0 0 0 0 0 0
          0 0 0 0 0 0
          0 0 0 0 0 0
          <InformationKey name="L2_NORM_RANGE" location="vtkDataArray" length="2">
            <Value index="0">
              0
            </Value>
            <Value index="1">
              1
            </Value>
          </InformationKey>
        </DataArray>
        <DataArray type="Float64" Name="nsi_FIXNO" NumberOfComponents="3" format="ascii" RangeMin="1.4142135623730951" RangeMax="1.4142135623730951">
          1 1 0 -1 -1 0
          -1 -1 0 -1 -1 0
          1 1 0 1 1 0
          -1 -1 0 -1 -1 0
          -1 -1 0 -1 -1 0
          -1 -1 0 -1 -1 0
          -1 -1 0 -1 -1 0
          -1 -1 0 1 1 0
          -1 -1 0 -1 -1 0
          -1 -1 0 -1 -1 0
          -1 -1 0 -1 -1 0
          -1 -1 0 -1 -1 0
          -1 -1 0 -1 -1 0
          -1 -1 0 -1 -1 0
          -1 -1 0 -1 -1 0
          -1 -1 0 -1 -1 0
          1 1 0 -1 -1 0
          -1 -1 0 -1 -1 0
          1 1 0 -1 -1 0
          -1 -1 0 -1 -1 0
          -1 -1 0 -1 -1 0
          1 1 0 -1 -1 0
          -1 -1 0 -1 -1 0
          -1 -1 0 -1 -1 0
          -1 -1 0 -1 -1 0
          -1 -1 0 -1 -1 0
          -1 -1 0 -1 -1 0
          -1 -1 0 -1 -1 0
          -1 -1 0 -1 -1 0
          -1 -1 0 -1 -1 0
          1 1 0 -1 -1 0
          -1 -1 0 -1 -1 0
          -1 -1 0 -1 -1 0
          -1 -1 0 -1 -1 0
          -1 -1 0 1 1 0
          -1 -1 0 -1 -1 0
          -1 -1 0 -1 -1 0
          -1 -1 0 -1 -1 0
          -1 -1 0 -1 -1 0
          -1 -1 0 -1 -1 0
          -1 -1 0 -1 -1 0
          -1 -1 0 -1 -1 0
          -1 -1 0 -1 -1 0
          -1 -1 0 -1 -1 0
          1 1 0 -1 -1 0
          -1 -1 0 -1 -1 0
          -1 -1 0 -1 -1 0
          -1 -1 0 -1 -1 0
          -1 -1 0 -1 -1 0
          -1 -1 0 -1 -1 0
          -1 -1 0 -1 -1 0
          -1 -1 0 -1 -1 0
          -1 -1 0 -1 -1 0
          -1 -1 0 -1 -1 0
          -1 -1 0 -1 -1 0
          -1 -1 0 -1 -1 0
          -1 -1 0 -1 -1 0
          -1 -1 0 -1 -1 0
          -1 -1 0 -1 -1 0
          -1 -1 0 -1 -1 0
          -1 -1 0 1 1 0
          -1 -1 0 -1 -1 0
          -1 -1 0 -1 -1 0
          -1 -1 0 -1 -1 0
          -1 -1 0 -1 -1 0
          -1 -1 0 -1 -1 0
          -1 -1 0 -1 -1 0
          -1 -1 0 -1 -1 0
          -1 -1 0 -1 -1 0
          -1 -1 0 -1 -1 0
          -1 -1 0 -1 -1 0
          -1 -1 0 -1 -1 0
          -1 -1 0 -1 -1 0
          -1 -1 0 -1 -1 0
          1 1 0 -1 -1 0
          -1 -1 0 -1 -1 0
          -1 -1 0 -1 -1 0
          -1 -1 0 -1 -1 0
          -1 -1 0 -1 -1 0
          -1 -1 0 1 1 0
          -1 -1 0 -1 -1 0
          1 1 0 -1 -1 0
          1 1 0 -1 -1 0
          -1 -1 0 -1 -1 0
          -1 -1 0 1 1 0
          -1 -1 0 -1 -1 0
          -1 -1 0 -1 -1 0
          1 1 0 -1 -1 0
          1 1 0 -1 -1 0
          -1 -1 0 -1 -1 0
          -1 -1 0 -1 -1 0
          -1 -1 0 -1 -1 0
          1 1 0 -1 -1 0
          -1 -1 0 1 1 0
          1 1 0 -1 -1 0
          -1 -1 0 -1 -1 0
          -1 -1 0 -1 -1 0
          -1 -1 0 1 1 0
          -1 -1 0 -1 -1 0
          -1 -1 0 -1 -1 0
          -1 -1 0 -1 -1 0
          1 1 0 1 1 0
          -1 -1 0 1 1 0
          -1 -1 0 -1 -1 0
          -1 -1 0 -1 -1 0
          1 1 0 -1 -1 0
          -1 -1 0 -1 -1 0
          -1 -1 0 -1 -1 0
          1 1 0 -1 -1 0
          -1 -1 0 -1 -1 0
          1 1 0 -1 -1 0
          -1 -1 0 1 1 0
          1 1 0 -1 -1 0
          -1 -1 0 -1 -1 0
          -1 -1 0 -1 -1 0
          -1 -1 0 -1 -1 0
          -1 -1 0 1 1 0
          1 1 0 -1 -1 0
          1 1 0 1 1 0
          -1 -1 0 -1 -1 0
          1 1 0 -1 -1 0
          -1 -1 0 -1 -1 0
          -1 -1 0 1 1 0
          -1 -1 0 -1 -1 0
          -1 -1 0 1 1 0
          -1 -1 0 1 1 0
          -1 -1 0 -1 -1 0
          -1 -1 0 -1 -1 0
          -1 -1 0 -1 -1 0
          -1 -1 0 1 1 0
          1 1 0 -1 -1 0
          1 1 0 -1 -1 0
          1 1 0 -1 -1 0
          -1 -1 0 -1 -1 0
          1 1 0 -1 -1 0
          -1 -1 0 -1 -1 0
          -1 -1 0 -1 -1 0
          1 1 0 1 1 0
          -1 -1 0 -1 -1 0
          -1 -1 0 -1 -1 0
          -1 -1 0 -1 -1 0
          1 1 0 -1 -1 0
          -1 -1 0 -1 -1 0
          1 1 0 -1 -1 0
          1 1 0 1 1 0
          -1 -1 0 -1 -1 0
          -1 -1 0 -1 -1 0
          -1 -1 0 1 1 0
          1 1 0 -1 -1 0
          -1 -1 0 -1 -1 0
          -1 -1 0 1 1 0
          -1 -1 0 1 1 0
          -1 -1 0 -1 -1 0
          1 1 0 -1 -1 0
          -1 -1 0 1 1 0
          -1 -1 0 -1 -1 0
          1 1 0 -1 -1 0
          1 1 0 -1 -1 0
          -1 -1 0 1 1 0
          -1 -1 0 -1 -1 0
          -1 -1 0 -1 -1 0
          -1 -1 0 1 1 0
          -1 -1 0 -1 -1 0
          -1 -1 0 -1 -1 0
          -1 -1 0 -1 -1 0
          1 1 0 -1 -1 0
          -1 -1 0 -1 -1 0
          -1 -1 0 -1 -1 0
          -1 -1 0 1 1 0
          -1 -1 0 -1 -1 0
          -1 -1 0 -1 -1 0
          1 1 0 -1 -1 0
          -1 -1 0 -1 -1 0
          -1 -1 0 -1 -1 0
          -1 -1 0 1 1 0
          -1 -1 0 -1 -1 0
          -1 -1 0 -1 -1 0
          -1 -1 0 -1 -1 0
          1 1 0 -1 -1 0
          -1 -1 0 -1 -1 0
          -1 -1 0 -1 -1 0
          -1 -1 0 -1 -1 0
          -1 -1 0 -1 -1 0
          1 1 0 -1 -1 0
          -1 -1 0 -1 -1 0
          -1 -1 0 -1 -1 0
          -1 -1 0 -1 -1 0
          1 1 0 -1 -1 0
          -1 -1 0 -1 -1 0
          -1 -1 0 -1 -1 0
          -1 -1 0 -1 -1 0
          -1 -1 0 -1 -1 0
          1 1 0 -1 -1 0
          -1 -1 0 -1 -1 0
          -1 -1 0 -1 -1 0
          -1 -1 0 -1 -1 0
          -1 -1 0 -1 -1 0
          1 1 0 -1 -1 0
          -1 -1 0 -1 -1 0
          1 1 0 -1 -1 0
          -1 -1 0 -1 -1 0
          -1 -1 0 -1 -1 0
          -1 -1 0 -1 -1 0
          1 1 0 -1 -1 0
          -1 -1 0 -1 -1 0
          -1 -1 0 -1 -1 0
          -1 -1 0 -1 -1 0
          1 1 0 -1 -1 0
          -1 -1 0 1 1 0
          <InformationKey name="L2_NORM_RANGE" location="vtkDataArray" length="2">
            <Value index="0">
              1.4142135624
            </Value>
            <Value index="1">
              1.4142135624
            </Value>
          </InformationKey>
        </DataArray>
        <DataArray type="Float64" Name="Velocity" NumberOfComponents="3" format="ascii" RangeMin="0" RangeMax="1.4157247427970976">
          0 0 0 0.31856849978472696 0.024632950070159546 0
          0.7326508827323093 0.10084704798982715 0 0.5157370270861528 0.03841358471536547 0
          0 0 0 0.9999999999999999 0 0
          0.7167244040802342 0.028208093508816548 0 0.37181210460714 0.02348245290053852 0
          0.6434542336652347 0.04059950661691984 0 0.3153121191415615 0.005487596107279146 0
          0.6666325129968628 0.027678185394271287 0 0.5643345274984009 0.035289281236794326 0
          0.7023192437387478 -0.09661009055281193 0 0.7150489950559147 0.03241175190637677 0
          0.6811820363989726 0.04897581450774152 0 0 0 0
          0.5109649644587901 0.027477261656061843 0 0.7176259697455796 0.05836538329779902 0
          0.6050080429121814 -0.006535549425013279 0 0.6473637558941279 0.03871716101035549 0
          0.65971037983161 0.05840115200884236 0 0.6801491544631796 0.05682362194840318 0
          0.4291951800482663 0.03649778970141093 0 0.34779464998380316 -0.02841859670644652 0
          0.7216185476712514 0.09681967045715657 0 0.6446256136419126 0.07920386354325946 0
          0.7361610594932672 0.11727178399114598 0 0.7011997259090544 0.09461185598225452 0
          0.32506535629904754 0.011806115949502795 0 0.5704218610871568 0.041682897584035324 0
          0.4461452346754557 -0.00044580059193367416 0 0.6051059134214413 0.08935657853768927 0
          0 0 0 0.6161292659974288 0.07595934551981363 0
          0.7182861267422256 0.15345141927418884 0 0.7546723887576803 0.15312422878085322 0
          0 0 0 0.7679444391157881 0.18913370802112558 0
          0.6425533436918183 0.1339281902317062 0 0.32725583485651094 0.007415339331301602 0
          0.5696771580953979 0.08425758752063095 0 0.20323874039996825 0.004581879091971232 0
          0 0 0 0.4712770584854294 0.04721730839046477 0
          0.7657317426222104 0.18149323378900864 0 0.7414008268882945 0.2233459300054606 0
          0.8203325077613562 0.24437673683235078 0 0.6642951575525027 0.20780881312735577 0
          0.5193085153541147 0.09316594825059021 0 0.799290042647847 0.28288622600233065 0
          0.3161742756437965 0.02361407211841797 0 0.46409913071612313 0.024263058614955164 0
          0.7976236816538865 0.15182136047543435 0 0.8736439172514947 0.2746378830076286 0
          0.5511825177924753 0.16687197325208447 0 0.6770560243016982 0.29225885453243083 0
          0.8607961906283044 0.34248683074399205 0 0.3591767280263599 0.04765836680664059 0
          0.7865897284721803 0.3720561544929118 0 0.5807926105254192 0.2568792731137865 0
          0 0 0 0.9427077298595714 0.3638144441288987 0
          0.6933896264083816 0.376540144309112 0 0.192421933920625 0.010977259738815097 0
          0.9850725596284737 0.23587434915436034 0 0.38023264505694065 0.09385005040330632 0
          0.45782194368756746 0.19437866064472265 0 0.8639750796172219 0.42570647697065583 0
          0.5814533104593378 0.33838561785135024 0 0 0 0
          0.7506579973537233 0.10160386569932577 0 0.46530832373489545 0.2739047312880423 0
          0.7313822020713737 0.4678910139620984 0 1.0512821438599738 0.3585354359800161 0
          0.9584570147901904 0.4642223639100223 0 0.33437579663341355 0.1300194878722085 0
          0.22460358117049656 0.03648611978706215 0 0.5578718643494318 0.4199059066081297 0
          0.8415718772797903 0.5162187023185817 0 1.1175854533657643 0.2853120011261731 0
          0.45919157302380026 0.3512071680380559 0 0.7171880249009653 0.5191258031783765 0
          0.3450672336516804 0.1968883904297432 0 0.2550265873218953 0.06670022049292135 0
          1.0373672222092158 0.19202082343201585 0 0.5994288811416085 0.5027501674847451 0
          0.9549814599463022 0.5253063035220231 0 0.341872919006545 0.2696945646638099 0
          0 0 0 0.8352802927662419 0.08358826890001127 0
          1.1892873924692315 0.38207977881415206 0 0.7822909024280646 0.5682773767608561 0
          0.4325297547581103 0.4308783032791134 0 0.6339094828864118 0.559686120130868 0
          1.2260868299899566 0.2747935888459868 0 0.2399618297946406 0.12616466206878602 0
          0.31161165275678643 0.318208886308539 0 0.13063270390443874 0.017073266132868945 0
          0.24721304183698092 0.1933457494269633 0 0.4785414428578593 0.01066186870320991 0
          0.9274570648280784 0.5656838150463815 0 0.41668882838118343 0.48710651884896733 0
          1.144757653250474 0.4723483443493473 0 0.24615315393197407 0.25758675779503504 0
          0.6906764640199761 0.5912969505642948 0 0.27647466825119654 0.3580163948606025 0
          1.1712393502507845 0.14019968464943233 0 1.2942711257149258 0.32951942520256156 0
          0.14965667685984452 0.04671775512584335 0 0.5163614686971668 0.5640371966090941 0
          0.8012818602607079 0.5731303265193852 0 0.20148865572642344 0.27917178858122843 0
          0.32170330689103677 0.4626961116908274 0 1.0778143342673343 0.4856676018491842 0
          0.9190933780695896 0.02774554234622079 0 0.1436873347970723 0.07624544243633878 0
          0.5528548967780494 0.5613527061152476 0 0.2147147328822816 0.3572920190335426 0
          1.2691547774585283 0.35655141735960183 0 1.34979304745261 0.19302476102378832 0
          0.14597009725571572 0.13232935234025484 0 0 0 0
          0.1539204202955741 0.20267741133991632 0 0.323583770367918 0.4859562710618245 0
          1.3564692985237816 0.25716790766098574 0 0.1666601792505782 0.2893576115323022 0
          0.06410029911957157 0.008872626677975618 0 0.6531879287665775 0.5085979559472903 0
          0.15387269581554772 0.3348691472430897 0 0.9846533753658394 0.4232735040211041 0
          0.3616171976854502 0.4582390326614139 0 0.11021425498905653 0.20603769344737954 0
          1.1782015837778625 0.3384587002858405 0 0.0850730234602683 0.03343036261476145 0
          0.10537412722060556 0.13791111714579396 0 1.2515053182636064 0.05656528508056239 0
          1.3146427195007064 0.2533664227068442 0 0.16120997680237806 0.346654049423718 0
          0.08358965702624964 0.19894808066984576 0 1.403334799973829 0.15230360221705308 0
          0.427367895684528 0.3587668541004318 0 0.08916257541745998 0.1017887292741922 0
          0.07318203455540204 0.24468249502993605 0 0.0764096264913597 0.047329401712442404 0
          0.7635646749270065 0.3078194359791963 0 0.07934436258591436 0.13639763719246803 0
          0.06735023344639775 0.21213611150651238 0 0.07033606362256274 0.21223376753205558 0
          0 0 0 0.08406038419748509 0.21816632135248562 0
          0.9935208861972719 0.25336421378883334 0 1.4011559445588988 0.07837626271821513 0
          1.1936414095262482 0.20967497773620067 0 0.040695334967260056 0.156728555097753 0
          0.06271379079723459 0.061878023946452816 0 0.04732940202261868 0.12664171301290378 0
          0.925067978755655 0.005715158538531587 0 0.03208451653537578 0.14237960939331584 0
          0.021431376745986472 0.12352436843513169 0 0 0 0
          0.05619254420767211 0.09154951793221475 0 0.40063411498630697 0.0703264034142563 0
          0 0 0 0.7054406263577687 0.11222863189982567 0
          0 0 0 0.01740099600197601 0.09442622750722728 0
          0.029091773832132038 0.11186429169861044 0 0.04263249429994005 0.014876699877383636 0
          1.3296670401057402 0.06808163257945352 0 0 0 0
          0.01102585353848826 0.0708279617770912 0 0.0436355875663659 0.06034311084469344 0
          0.9272583243122123 0.07503078928757063 0 0.033051490048802326 0.08012678117614315 0
          0 0 0 0.018765118813170268 0.080364650741925 0
          0 0 0 1.4156974600270853 0.008789143346634807 0
          0.35368564258054747 0.027814087760342728 0 0.0066196921648193335 0.05759270500318284 0
          1.1304566911050178 0.028319827263346163 0 0.018209617127588076 0.0709355118644507 0
          0.6734839967829743 0.03941929371260663 0 0.03481905949054906 0.024303565757795666 0
          0 0 0 0.006862199800117679 0.04531178965822811 0
          1.4068529520327853 -0.028815182378063964 0 0 0 0
          0 0 0 0.013882337841810947 0.04986495805761652 0
          0.026857360674209713 0.028588908392731902 0 0.0048957058068132345 0.03659870304652757 0
          0.019796388169176407 0.04371530692182856 0 0.3351330368669732 -0.0000703201158741908 0
          0.012957803217578041 0.04290162417565462 0 0 0 0
          1.2527595598116794 -0.04740785895643292 0 0.6593992975524026 -0.023120807510700017 0
          0.9413217091839681 -0.05570801992013415 0 0.004459819941864217 0.028463715683001923 0
          1.154476450274246 -0.09530951843732356 0 0.019118413678859768 0.006369348223665846 0
          0 0 0 0 0 0
          0.015570637409797734 0.025788987547357416 0 0 0 0
          1.3153338600794418 -0.11601656192227719 0 0.00854939057012298 0.02840469158439909 0
          0.0037931696807876 0.021848600598496 0 0.34152771956416095 -0.02671131152455181 0
          0 0 0 1.393505543685009 -0.12621439417272548 0
          0.008182498171063951 0.022136589435493067 0 0.6746294073623449 -0.12321462997937713 0
          0.01314539821258588 0.01104348902994604 0 0.0030185826665026076 0.015949638357832974 0
          0 0 0 0.9270471523763351 -0.16990578172751758 0
          0.005314558864248392 0.017131104827919758 0 1.373612935123317 -0.12585502427404263 0
          0 0 0 0.0026844132832603033 0.01169393374886729 0
          1.130389580868679 -0.19833276802630428 0 0 0 0
          0 0 0 0.3908222877023046 -0.17141275453490915 0
          0.007003707932358868 0.009294216724555819 0 0.005229135158466314 0.011354117652984127 0
          0.940347750924372 -0.04893761846545131 0 0.001627272400024426 0.00786954696842353 0
          1.2806581664323813 -0.2087888191083261 0 1.206766716757497 -0.09710264970613157 0
          0.007083251859698973 0.0023640260729724796 0 0 0 0
          0 0 0 0.6705495127125637 -0.2388156272916092 0
          0 0 0 0 0 0
          0.0010006008082233077 0.00552867916284859 0 0.046247715623795524 -0.0774690098487931 0
          0 0 0 0.003053497871568554 0.006466543218621254 0
          1.356169883684638 -0.2102591738139277 0 0.8996730235299742 -0.27373684134731274 0
          0.0041185502942569716 0.0031079522915258614 0 0 0 0
          0.025974067326132437 -0.036485026117435405 0 0.0011526773295269632 0.0033238382264311576 0
          0.002621661665880649 0.003981891797296975 0 0 0 0
          0.01491583505835907 -0.011236897142715004 0 0 0 0
          0.30972167379328186 -0.21499486887823177 0 1.3199393322727144 -0.1835007945857642 0
          0.0013096744410829194 0.002325921426565577 0 1.0576662477513465 -0.30859025046648353 0
          0.006285310335515194 0.005902868368151113 0 0.002297733321497235 0.0006065083037291382 0
          0.0008878349608043772 0.0019295263604721166 0 0 0 0
          0 0 0 0.1018463067000995 -0.11411373555076193 0
          0 0 0 0.0021679765152204087 0.01154954004872588 0
          0 0 0 1.2258807527520803 -0.30085636526581666 0
          0.0641830301758198 -0.06499220694506481 0 0.001291622224334217 0.0009930389265435644 0
          0 0 0 0.0004338832844703428 0.0007938267349952409 0
          0.25462897238169147 -0.0077701545395970455 0 0.5385596894903868 -0.29192008788859647 0
          0.0013031391927845982 0.014866498418022345 0 1.1556018840134188 -0.14799115371816465 0
          0 0 0 0 0 0
          0.0011054439723653718 0.016203161849144557 0 0.0002771581271175933 0.00032095571901598926 0
          0.2901816812701435 -0.2219132802509727 0 0.017015150459836002 -0.010254984925439272 0
          0.05204797336316742 -0.046121914143703806 0 0.7712901592311281 -0.33871908652487726 0
          0 0 0 1.2879605323107706 -0.2724181734637669 0
          0.13884669457975024 -0.13004266724391797 0 0.00020182520290651338 0.017460561729853167 0
          0 0 0 0.010412140561623384 0.004698024026684905 0
          0 0 0 0 0 0
          0.0047485602815505994 0.015160980227626401 0 0.00014824013432751876 -0.0001228300176492793 0
          -0.00043227259489873486 0.017242173555039396 0 0.004269744174027455 0.020011502130768345 0
          0.786886810660799 -0.09432625624603824 0 0 0 0
          0 0 0 0.479752841404018 -0.29856639171333127 0
          -0.0002851185204961385 0.016816439218982814 0 0.9384006292108827 -0.35980170969436814 0
          1.2393796813902667 -0.23669721744532907 0 0 0 0
          0.034594333377578834 -0.023920922884831684 0 0 0 0
          0.3061613810269369 -0.2323242010606754 0 0.000568967898666044 0.024354695704406605 0
          0 0 0 -0.0005651363484282876 0.015937624806937046 0
          0.013667668735200283 0.011291816003552129 0 0 0 0
          0.00008118855366302714 0.026113625078286618 0 0.15854952196485783 -0.13571441403971732 0
          0 0 0 -0.0009259930988843895 0.014702041245079903 0
          0 0 0 -0.0009821961109692475 0.02439741340486644 0
          0.657130286853589 -0.3475503479190868 0 0 0 0
          -0.0012221475642210915 0.012747258552591961 0 -0.0017589152325874877 0.023288910135467678 0
          1.0795702789107624 -0.16926887345118957 0 0.4670939482689097 -0.2984899704925065 0
          0.005229249111082243 0.022455452057637573 0 0 0 0
          -0.00130997924798073 0.010688898587210173 0 1.2055464710633361 -0.3194476959564844 0
          0.05259481669492433 -0.036265578001303506 0 -0.0038400074015832284 0.022652750298636608 0
          1.038350840582066 -0.3844347498994848 0 0.299465899069029 -0.22462548128584037 0
          0 0 0 -0.0011783728957893932 0.008714736881871306 0
          -0.0020062242116561423 0.027552332950409673 0 0.1371913019303638 -0.11592558600919212 0
          -0.004139522082550142 0.01970333353116752 0 0.031456735021104895 -0.011316276945274196 0
          0.8146521716956123 -0.38243607013947467 0 0 0 0
          -0.0012256892054688764 0.006567499733250686 0 -0.0036596972249854543 0.015581471841371318 0
          0.6239756516386356 -0.3412310086174428 0 0.7013093118623123 -0.08373099129624226 0
          0 0 0 -0.0012430204381899863 0.004469927789625338 0
          -0.007696175671093478 0.023898497958671567 0 -0.0043370908932431436 0.013132872422787725 0
          0.008832684326523073 0.012351208502643488 0 0.4529622410795959 -0.2866521972740611 0
          0.07827737362618607 -0.06691795850775417 0 0 0 0
          -0.0011470373517465796 0.0024460819615230505 0 1.099528670032486 -0.3724307321231057 0
          -0.004260539948594583 0.009643832018477521 0 -0.008414663265657391 0.01925762162087953 0
          0.299055501222472 -0.21816068177555853 0 1.1411520857905941 -0.30847046220521407 0
          0 0 0 0.9491176919792546 -0.38503838457114137 0
          -0.0041070208090906255 0.006435083842528053 0 -0.0004903539072759333 0.0006496249229075686 0
          0.04899017672843328 -0.031014922410340536 0 -0.008966918985969066 0.013771452587707742 0
          0.158816686371288 -0.1328621346052169 0 -0.003140869946128076 0.0034389937023042924 0
          0.6705488817123525 -0.3460335994130336 0 -0.004752169576803454 0.009328740734808718 0
          0 0 0 0.998121904431024 -0.2106686961208561 0
          0.31402428275608785 -0.017558428482988872 0 -0.007673583280623948 0.006822149155447824 0
          -0.012367205979096017 0.012368862031253426 0 -0.012538577840397086 0.01239616979612763 0
          0.10848208534208181 -0.08907643716250838 0 0.42754825620163656 -0.27607674922787645 0
          0 0 0 -0.0036279022447213666 0.001650320669617218 0
          1.0323126926560013 -0.3416699772590452 0 0.012426415282115098 -0.025916792073046258 0
          -0.013946139888686796 0.007460826029129171 0 -0.008618443131835402 -0.004021738071719304 0
          0.8172225537229199 -0.35113727146669943 0 0.2088265804667324 -0.16741260597382573 0
          0.5454533898680335 -0.07348519855896248 0 -0.015212564776312498 0.0036330670575569057 0
          0 0 0 -0.008814342855702243 0.0022758238086347375 0
          0.563365794449452 -0.31163275597598356 0 1.0723737339972108 -0.2796512398134005 0
          0.06290968728399879 -0.07564049940710571 0 0.3517757613833714 -0.2434818761645952 0
          0.011130290540727483 -0.03282617984034231 0 -0.008435201902875793 -0.010837475007744589 0
          -0.014320554156977392 0.0014128637350055782 0 0.9644505332761335 -0.32934903174295416 0
          0 0 0 -0.014331139974960624 -0.0012287869139722015 0
          0.7404346906340241 -0.348752788631378 0 0.4884078085436048 -0.2994982202178296 0
          0 0 0 0.1520356400208279 -0.14244547504180344 0
          0.052651701733868364 -0.07325368949741161 0 0.9459016335896651 -0.09784201115139927 0
          0.014613712604915821 -0.035928737274900896 0 -0.01212296492942197 -0.0006802398637837302 0
          -0.004553583017638979 -0.012494213206383721 0 0.294686580371644 -0.23424815671933522 0
          0 0 0 0.975410478238323 -0.3869924462342154 0
          -0.006446972130918231 -0.0007573900970339764 0 0.12813942592276453 -0.14395425426233432 0
          0.052249640406928595 -0.06602455988970361 0 0.5659858770334792 -0.42445160867828713 0
          0.012613457399840622 -0.018658032212418737 0 0.27166113255932534 -0.29041235041218805 0
          0 0 0 0.05151484836548908 -0.03885674876976878 0
          0.13145651639250283 -0.11927783342846053 0 0 0 0
          <InformationKey name="L2_NORM_RANGE" location="vtkDataArray" length="2">
            <Value index="0">
              0
            </Value>
            <Value index="1">
              1.4157247428
            </Value>
          </InformationKey>
        </DataArray>
        <DataArray type="Float64" Name="Pressure" format="ascii" RangeMin="-8.594304059681784" RangeMax="36.941255172573165">
          36.2752220430853 36.440717016518725 36.7610694885295 36.21370900691598 36.04304691579131 36.80457669033405
          36.06811458170109 35.52803222426837 35.372474432084864 34.616214073298714 36.120426991240414 34.39670238640639
          36.941255172573165 35.31094308646614 34.39550586773356 33.60510875598562 33.450848186839494 34.499972723505984
          36.51018591001855 35.552915069520644 33.30521681050841 34.75589687904239 32.35885214244169 36.90963017466929
          33.48405601031414 32.18884393905903 32.29808306489811 33.90628632200522 31.402816123424675 34.93268932142589
          35.93478717398636 30.839931333540083 36.7279555553624 34.18195313885711 33.051008873796384 31.12541574083348
          30.290807173415523 31.52992841107994 33.50428954412251 35.21369526716738 29.437186605700994 35.64301754398996
          36.75954019463128 34.36852155970467 29.60749710379378 32.099214719221436 30.102245818123706 32.76352233237751
          33.84641177454559 30.7139690134882 34.500360725459025 27.447450401215793 27.789831483875574 28.450975154960595
          33.37559561079641 32.01603644659461 29.284144728918857 33.99350911061325 30.147893605753705 32.73419170098191
          34.75197831242868 27.44872795213465 31.097856946252662 34.0985610187483 25.767568291892655 33.749553434179866