<?xml version="1.0"?>
<VTKFile type="UnstructuredGrid" version="0.1" byte_order="LittleEndian" header_type="UInt32" compressor="vtkZLibDataCompressor">
  <UnstructuredGrid>
    <Piece NumberOfPoints="418" NumberOfCells="757">
      <PointData>
        <DataArray type="Float64" Name="nsi_BC" NumberOfComponents="3" format="ascii" RangeMin="0" RangeMax="1">
          0 0 0 0 0 0
          0 0 0 0 0 0
          0 0 0 1 0 0
          0 0 0 0 0 0
          0 0 0 0 0 0
          0 0 0 0 0 0
          0 0 0 0 0 0
          0 0 0 0 0 0
          0 0 0 0 0 0
          0 0 0 0 0 0
          0 0 0 0 0 0
          0 0 0 0 0 0
          0 0 0 0 0 0
          0 0 0 0 0 0
          0 0 0 0 0 0
          0 0 0 0 0 0
          0 0 0 0 0 0
          0 0 0 0 0 0
          0 0 0 0 0 0
          0 0 0 0 0 0
          0 0 0 0 0 0
          0 0 0 0 0 0
          0 0 0 0 0 0
          0 0 0 0 0 0
          0 0 0 0 0 0
          0 0 0 0 0 0
          0 0 0 0 0 0
          0 0 0 0 0 0
          0 0 0 0 0 0
          0 0 0 0 0 0
          0 0 0 0 0 0
          0 0 0 0 0 0
          0 0 0 0 0 0
          0 0 0 0 0 0
          0 0 0 0 0 0
          0 0 0 0 0 0
          0 0 0 0 0 0
          0 0 0 0 0 0
          0 0 0 0 0 0
          0 0 0 0 0 0
          0 0 0 0 0 0
          0 0 0 0 0 0
          0 0 0 0 0 0
          0 0 0 0 0 0
          0 0 0 0 0 0
          0 0 0 0 0 0
          0 0 0 0 0 0
          0 0 0 0 0 0
          0 0 0 0 0 0
          0 0 0 0 0 0
          0 0 0 0 0 0
          0 0 0 0 0 0
          0 0 0 0 0 0
          0 0 0 0 0 0
          0 0 0 0 0 0
          0 0 0 0 0 0
          0 0 0 0 0 0
          0 0 0 0 0 0
          0 0 0 0 0 0
          0 0 0 0 0 0
          0 0 0 0 0 0
          0 0 0 0 0 0
          0 0 0 0 0 0
          0 0 0 0 0 0
          0 0 0 0 0 0
          0 0 0 0 0 0
          0 0 0 0 0 0
          0 0 0 0 0 0
          0 0 0 0 0 0
          0 0 0 0 0 0
          0 0 0 0 0 0
          0 0 0 0 0 0
          0 0 0 0 0 0
          0 0 0 0 0 0
          0 0 0 0 0 0
          0 0 0 0 0 0
          0 0 0 0 0 0
          0 0 0 0 0 0
          0 0 0 0 0 0
          0 0 0 0 0 0
          0 0 0 0 0 0
          0 0 0 0 0 0
          0 0 0 0 0 0
          0 0 0 0 0 0
          0 0 0 0 0 0
          0 0 0 0 0 0
          0 0 0 0 0 0
          0 0 0 0 0 0
          0 0 0 0 0 0
          0 0 0 0 0 0
          0 0 0 0 0 0
          0 0 0 0 0 0
          0 0 0 0 0 0
          0 0 0 0 0 0
          0 0 0 0 0 0
          0 0 0 0 0 0
          0 0 0 0 0 0
          0 0 0 0 0 0
          0 0 0 0 0 0
          0 0 0 0 0 0
          0 0 0 0 0 0
          0 0 0 0 0 0
          0 0 0 0 0 0
          0 0 0 0 0 0
          0 0 0 0 0 0
          0 0 0 0 0 0
          0 0 0 0 0 0
          0 0 0 0 0 0
          0 0 0 0 0 0
          0 0 0 0 0 0
          0 0 0 0 0 0
          0 0 0 0 0 0
          0 0 0 0 0 0
          0 0 0 0 0 0
          0 0 0 0 0 0
          0 0 0 0 0 0
          0 0 0 0 0 0
          0 0 0 0 0 0
          0 0 0 0 0 0
          0 0 0 0 0 0
          0 0 0 0 0 0
          0 0 0 0 0 0
          0 0 0 0 0 0
          0 0 0 0 0 0
          0 0 0 0 0 0
          0 0 0 0 0 0
          0 0 0 0 0 0
          0 0 0 0 0 0
          0 0 0 0 0 0
          0 0 0 0 0 0
          0 0 0 0 0 0
          0 0 0 0 0 0
          0 0 0 0 0 0
          0 0 0 0 0 0
          0 0 0 0 0 0
          0 0 0 0 0 0
          0 0 0 0 0 0
          0 0 0 0 0 0
          0 0 0 0 0 0
          0 0 0 0 0 0
          0 0 0 0 0 0
          0 0 0 0 0 0
          0 0 0 0 0 0
          0 0 0 0 0 0
          0 0 0 0 0 0
          0 0 0 0 0 0
          0 0 0 0 0 0
          0 0 0 0 0 0
          0 0 0 0 0 0
          0 0 0 0 0 0
          0 0 0 0 0 0
          0 0 0 0 0 0
          0 0 0 0 0 0
          0 0 0 0 0 0
          0 0 0 0 0 0
          0 0 0 0 0 0
          0 0 0 0 0 0
          0 0 0 0 0 0
          0 0 0 0 0 0
          0 0 0 0 0 0
          0 0 0 0 0 0
          0 0 0 0 0 0
          0 0 0 0 0 0
          0 0 0 0 0 0
          0 0 0 0 0 0
          0 0 0 0 0 0
          0 0 0 0 0 0
          0 0 0 0 0 0
          0 0 0 0 0 0
          0 0 0 0 0 0
          0 0 0 0 0 0
          0 0 0 0 0 0
          0 0 0 0 0 0
          0 0 0 0 0 0
          0 0 0 0 0 0
          0 0 0 0 0 0
          0 0 0 0 0 0
          0 0 0 0 0 0
          0 0 0 0 0 0
          0 0 0 0 0 0
          0 0 0 0 0 0
          0 0 0 0 0 0
          0 0 0 0 0 0
          0 0 0 0 0 0
          0 0 0 0 0 0
          0 0 0 0 0 0
          0 0 0 0 0 0
          0 0 0 0 0 0
          0 0 0 0 0 0
          0 0 0 0 0 0
          0 0 0 0 0 0
          0 0 0 0 0 0
          0 0 0 0 0 0
          0 0 0 0 0 0
          0 0 0 0 0 0
          0 0 0 0 0 0
          0 0 0 0 0 0
          0 0 0 0 0 0
          0 0 0 0 0 0
          0 0 0 0 0 0
          0 0 0 0 0 0
          0 0 0 0 0 0
          0 0 0 0 0 0
          0 0 0 0 0 0
          0 0 0 0 0 0
          0 0 0 0 0 0
          0 0 0 0 0 0
          0 0 0 0 0 0
          0 0 0 0 0 0
          <InformationKey name="L2_NORM_RANGE" location="vtkDataArray" length="2">
            <Value index="0">
              0
            </Value>
            <Value index="1">
              1
            </Value>
          </InformationKey>
        </DataArray>
        <DataArray type="Float64" Name="nsi_FIXNO" NumberOfComponents="3" format="ascii" RangeMin="1.4142135623730951" RangeMax="1.4142135623730951">
          1 1 0 -1 -1 0
          -1 -1 0 -1 -1 0
          1 1 0 1 1 0
          -1 -1 0 -1 -1 0
          -1 -1 0 -1 -1 0
          -1 -1 0 -1 -1 0
          -1 -1 0 -1 -1 0
          -1 -1 0 1 1 0
          -1 -1 0 -1 -1 0
          -1 -1 0 -1 -1 0
          -1 -1 0 -1 -1 0
          -1 -1 0 -1 -1 0
          -1 -1 0 -1 -1 0
          -1 -1 0 -1 -1 0
          -1 -1 0 -1 -1 0
          -1 -1 0 -1 -1 0
          1 1 0 -1 -1 0
          -1 -1 0 -1 -1 0
          1 1 0 -1 -1 0
          -1 -1 0 -1 -1 0
          -1 -1 0 -1 -1 0
          1 1 0 -1 -1 0
          -1 -1 0 -1 -1 0
          -1 -1 0 -1 -1 0
          -1 -1 0 -1 -1 0
          -1 -1 0 -1 -1 0
          -1 -1 0 -1 -1 0
          -1 -1 0 -1 -1 0
          -1 -1 0 -1 -1 0
          -1 -1 0 -1 -1 0
          1 1 0 -1 -1 0
          -1 -1 0 -1 -1 0
          -1 -1 0 -1 -1 0
          -1 -1 0 -1 -1 0
          -1 -1 0 1 1 0
          -1 -1 0 -1 -1 0
          -1 -1 0 -1 -1 0
          -1 -1 0 -1 -1 0
          -1 -1 0 -1 -1 0
          -1 -1 0 -1 -1 0
          -1 -1 0 -1 -1 0
          -1 -1 0 -1 -1 0
          -1 -1 0 -1 -1 0
          -1 -1 0 -1 -1 0
          1 1 0 -1 -1 0
          -1 -1 0 -1 -1 0
          -1 -1 0 -1 -1 0
          -1 -1 0 -1 -1 0
          -1 -1 0 -1 -1 0
          -1 -1 0 -1 -1 0
          -1 -1 0 -1 -1 0
          -1 -1 0 -1 -1 0
          -1 -1 0 -1 -1 0
          -1 -1 0 -1 -1 0
          -1 -1 0 -1 -1 0
          -1 -1 0 -1 -1 0
          -1 -1 0 -1 -1 0
          -1 -1 0 -1 -1 0
          -1 -1 0 -1 -1 0
          -1 -1 0 -1 -1 0
          -1 -1 0 1 1 0
          -1 -1 0 -1 -1 0
          -1 -1 0 -1 -1 0
          -1 -1 0 -1 -1 0
          -1 -1 0 -1 -1 0
          -1 -1 0 -1 -1 0
          -1 -1 0 -1 -1 0
          -1 -1 0 -1 -1 0
          -1 -1 0 -1 -1 0
          -1 -1 0 -1 -1 0
          -1 -1 0 -1 -1 0
          -1 -1 0 -1 -1 0
          -1 -1 0 -1 -1 0
          -1 -1 0 -1 -1 0
          1 1 0 -1 -1 0
          -1 -1 0 -1 -1 0
          -1 -1 0 -1 -1 0
          -1 -1 0 -1 -1 0
          -1 -1 0 -1 -1 0
          -1 -1 0 1 1 0
          -1 -1 0 -1 -1 0
          1 1 0 -1 -1 0
          1 1 0 -1 -1 0
          -1 -1 0 -1 -1 0
          -1 -1 0 1 1 0
          -1 -1 0 -1 -1 0
          -1 -1 0 -1 -1 0
          1 1 0 -1 -1 0
          1 1 0 -1 -1 0
          -1 -1 0 -1 -1 0
          -1 -1 0 -1 -1 0
          -1 -1 0 -1 -1 0
          1 1 0 -1 -1 0
          -1 -1 0 1 1 0
          1 1 0 -1 -1 0
          -1 -1 0 -1 -1 0
          -1 -1 0 -1 -1 0
          -1 -1 0 1 1 0
          -1 -1 0 -1 -1 0
          -1 -1 0 -1 -1 0
          -1 -1 0 -1 -1 0
          1 1 0 1 1 0
          -1 -1 0 1 1 0
          -1 -1 0 -1 -1 0
          -1 -1 0 -1 -1 0
          1 1 0 -1 -1 0
          -1 -1 0 -1 -1 0
          -1 -1 0 -1 -1 0
          1 1 0 -1 -1 0
          -1 -1 0 -1 -1 0
          1 1 0 -1 -1 0
          -1 -1 0 1 1 0
          1 1 0 -1 -1 0
          -1 -1 0 -1 -1 0
          -1 -1 0 -1 -1 0
          -1 -1 0 -1 -1 0
          -1 -1 0 1 1 0
          1 1 0 -1 -1 0
          1 1 0 1 1 0
          -1 -1 0 -1 -1 0
          1 1 0 -1 -1 0
          -1 -1 0 -1 -1 0
          -1 -1 0 1 1 0
          -1 -1 0 -1 -1 0
          -1 -1 0 1 1 0
          -1 -1 0 1 1 0
          -1 -1 0 -1 -1 0
          -1 -1 0 -1 -1 0
          -1 -1 0 -1 -1 0
          -1 -1 0 1 1 0
          1 1 0 -1 -1 0
          1 1 0 -1 -1 0
          1 1 0 -1 -1 0
          -1 -1 0 -1 -1 0
          1 1 0 -1 -1 0
          -1 -1 0 -1 -1 0
          -1 -1 0 -1 -1 0
          1 1 0 1 1 0
          -1 -1 0 -1 -1 0
          -1 -1 0 -1 -1 0
          -1 -1 0 -1 -1 0
          1 1 0 -1 -1 0
          -1 -1 0 -1 -1 0
          1 1 0 -1 -1 0
          1 1 0 1 1 0
          -1 -1 0 -1 -1 0
          -1 -1 0 -1 -1 0
          -1 -1 0 1 1 0
          1 1 0 -1 -1 0
          -1 -1 0 -1 -1 0
          -1 -1 0 1 1 0
          -1 -1 0 1 1 0
          -1 -1 0 -1 -1 0
          1 1 0 -1 -1 0
          -1 -1 0 1 1 0
          -1 -1 0 -1 -1 0
          1 1 0 -1 -1 0
          1 1 0 -1 -1 0
          -1 -1 0 1 1 0
          -1 -1 0 -1 -1 0
          -1 -1 0 -1 -1 0
          -1 -1 0 1 1 0
          -1 -1 0 -1 -1 0
          -1 -1 0 -1 -1 0
          -1 -1 0 -1 -1 0
          1 1 0 -1 -1 0
          -1 -1 0 -1 -1 0
          -1 -1 0 -1 -1 0
          -1 -1 0 1 1 0
          -1 -1 0 -1 -1 0
          -1 -1 0 -1 -1 0
          1 1 0 -1 -1 0
          -1 -1 0 -1 -1 0
          -1 -1 0 -1 -1 0
          -1 -1 0 1 1 0
          -1 -1 0 -1 -1 0
          -1 -1 0 -1 -1 0
          -1 -1 0 -1 -1 0
          1 1 0 -1 -1 0
          -1 -1 0 -1 -1 0
          -1 -1 0 -1 -1 0
          -1 -1 0 -1 -1 0
          -1 -1 0 -1 -1 0
          1 1 0 -1 -1 0
          -1 -1 0 -1 -1 0
          -1 -1 0 -1 -1 0
          -1 -1 0 -1 -1 0
          1 1 0 -1 -1 0
          -1 -1 0 -1 -1 0
          -1 -1 0 -1 -1 0
          -1 -1 0 -1 -1 0
          -1 -1 0 -1 -1 0
          1 1 0 -1 -1 0
          -1 -1 0 -1 -1 0
          -1 -1 0 -1 -1 0
          -1 -1 0 -1 -1 0
          -1 -1 0 -1 -1 0
          1 1 0 -1 -1 0
          -1 -1 0 -1 -1 0
          1 1 0 -1 -1 0
          -1 -1 0 -1 -1 0
          -1 -1 0 -1 -1 0
          -1 -1 0 -1 -1 0
          1 1 0 -1 -1 0
          -1 -1 0 -1 -1 0
          -1 -1 0 -1 -1 0
          -1 -1 0 -1 -1 0
          1 1 0 -1 -1 0
          -1 -1 0 1 1 0
          <InformationKey name="L2_NORM_RANGE" location="vtkDataArray" length="2">
            <Value index="0">
              1.4142135624
            </Value>
            <Value index="1">
              1.4142135624
            </Value>
          </InformationKey>
        </DataArray>
        <DataArray type="Float64" Name="Velocity" NumberOfComponents="3" format="ascii" RangeMin="0" RangeMax="1.4197406669698214">
          0 0 0 0.3211169130062889 0.02552694460890664 0
          0.7321314624196753 0.10676362600718804 0 0.5240566446373566 0.04687508549842661 0
          0 0 0 0.9999999999999999 0 0
          0.7091891287138575 0.03652376930485315 0 0.3847943601456218 0.0289779001024282 0
          0.6448410634502634 0.04785010094102526 0 0.3312475708938769 0.006500719861538422 0
          0.6602143939688228 0.022154900822136732 0 0.576306013026433 0.0397847390317398 0
          0.7017665514792556 -0.09672511006126182 0 0.6906066924292101 0.0333533418038877 0
          0.6689439308334898 0.051914337418248094 0 0 0 0
          0.5322842739607142 0.026634932241745117 0 0.6885932311425406 0.05769844995736369 0
          0.608195105425122 -0.015339311410703233 0 0.6386257470499045 0.029257919673596897 0
          0.6619369976134131 0.058079024022878435 0 0.6563450040778391 0.05171377018684899 0
          0.44774122685656237 0.03602459962139611 0 0.3467846419656409 -0.028561642796138105 0
          0.6964177573101876 0.09408433830946347 0 0.6571890652803791 0.07600462270301224 0
          0.7255813300258275 0.1128016716790986 0 0.6681216667763882 0.09069776055690222 0
          0.3385851652372143 0.011241631076930643 0 0.5703121603191081 0.03447859916529091 0
          0.45591373346950764 -0.009828890386220625 0 0.6215630954735257 0.08693632556374041 0
          0 0 0 0.6024790402204078 0.07182691918939936 0
          0.6833326761664152 0.14818380296547812 0 0.754028352708848 0.14722520653341578 0
          0 0 0 0.749565308220166 0.1827862015209358 0
          0.6179991892284076 0.13004274228995313 0 0.344884620567027 0.004391432928182097 0
          0.5860265963481135 0.08153299988933221 0 0.21317600507514073 0.0033857864919819825 0
          0 0 0 0.4832052421592291 0.04388259255811952 0
          0.7716029288084052 0.17514923509252656 0 0.7098669113632234 0.21538494133000535 0
          0.808084189713366 0.23537108435236795 0 0.6345309816398329 0.20269673666943058 0
          0.5207498469756159 0.09108998514394043 0 0.7734249757892281 0.2733526412224141 0
          0.33658691755872505 0.022823208454559728 0 0.47439441419282696 0.022771517325100035 0
          0.8072075691279305 0.14506484543008466 0 0.8677156105171548 0.2650382973074333 0
          0.5403651976584133 0.1654735886047254 0 0.6480008919469139 0.287404326482116 0
          0.8404655439440005 0.3322851139253535 0 0.3809442030043722 0.04741863090620933 0
          0.7612612943743814 0.3643249172866172 0 0.5617188848947421 0.2555641048998433 0
          0 0 0 0.9289304622935747 0.3535945622434418 0
          0.6684605165280665 0.3737705062926751 0 0.2082502269544728 0.011068689970818462 0
          0.9875455261973115 0.22584253242974625 0 0.3978930664881319 0.09525448013759708 0
          0.4567823699549853 0.19689712195305653 0 0.8433599602802282 0.41921534853108544 0
          0.5618259653983053 0.3400605464901047 0 0 0 0
          0.75676694400557 0.09590713739435876 0 0.45785883194362376 0.2792574889577803 0
          0.7100668005225194 0.4676095222894475 0 1.0437713853648738 0.34941952521553427 0
          0.9438807380464054 0.4585874235530697 0 0.34977124718306063 0.13464526050289619 0
          0.24577802730504109 0.03684295655435806 0 0.5419555238751578 0.42682706139426224 0
          0.8248343601953422 0.5161067722443776 0 1.1168838277270554 0.27565247251128494 0
          0.4495014825558712 0.36104799813385535 0 0.700987229861546 0.5239258571661852 0
          0.35224810390232364 0.20523859282359364 0 0.275882560942706 0.06958362541620858 0
          1.0396116812194856 0.18406966061245322 0 0.5855210569371995 0.5120421824231283 0
          0.943889704462721 0.5255462414999039 0 0.3424301666489128 0.28219183731126035 0
          0 0 0 0.8375298745793558 0.07903807218548707 0
          1.1850919211091062 0.37530457966949515 0 0.7709586167277473 0.5743723251340062 0
          0.42355127842566787 0.4455112454856844 0 0.6233739494730667 0.5699857652328788 0
          1.226363040651761 0.26663858608381924 0 0.256265675551057 0.13441464634846167 0
          0.30969822832529637 0.33531149738357763 0 0.14683776645073904 0.018089850501415383 0
          0.2569623792736278 0.20695503059780787 0 0.477750441465627 0.009445051862252665 0
          0.9215102149482303 0.5699822818809788 0 0.4092788479810006 0.5028936530225722 0
          1.1410428129138823 0.47072882135728367 0 0.24938630426094857 0.2754908614887087 0
          0.6839511020778573 0.6006737278837921 0 0.2734699541345299 0.37702970862480956 0
          1.171651676990939 0.1329045719655731 0 1.293668758754088 0.3232142147670864 0
          0.16824987845107037 0.050514548243450995 0 0.510221287796442 0.5763858587921321 0
          0.7978059879547621 0.579262915236702 0 0.20218694117484642 0.299054745264568 0
          0.3170102936163522 0.4776482967187178 0 1.0765691763741867 0.4873574154878116 0
          0.916276800897291 0.024413753090600447 0 0.16064310477125313 0.08376289693997382 0
          0.5490452507525589 0.5701797547503299 0 0.21225141255072602 0.3752821469858346 0
          1.2704317294504277 0.35358050364298305 0 1.351190221418556 0.18519880957493576 0
          0.15718494704189612 0.14670386662672713 0 0 0 0
          0.1581339142226364 0.22153511922062807 0 0.32018132581309205 0.4969705885319637 0
          1.358232731806989 0.2512194458923188 0 0.16585310305023815 0.3080264750574652 0
          0.0737031536336585 0.009788997916745602 0 0.6511822472617554 0.5134953271387815 0
          0.15177423916762298 0.3480114351100341 0 0.9845598524193343 0.42476698244814093 0
          0.35961414045066364 0.4645635305943782 0 0.11167858512329679 0.2243592159567114 0
          1.180407812044178 0.3370470419026106 0 0.09864352607748282 0.03738041185217146 0
          0.11272134990691585 0.1540564377755845 0 1.2496063725694053 0.05001693986296269 0
          1.3182681055482302 0.24870542635927745 0 0.15967385041794938 0.3542244278173242 0
          0.08361122524659992 0.2143730080205786 0 1.4068994285743528 0.14376120561178551 0
          0.4262410631971741 0.36120925903308515 0 0.09746248530730092 0.11529558082650342 0
          0.07227293809706524 0.25261406646756196 0 0.08899892394208549 0.05361101529069475 0
          0.7629078176906987 0.30840618350449905 0 0.08319517552006869 0.1529032284419021 0
          0.06676077383359476 0.22394019615256605 0 0.0696414987747931 0.2215852828284811 0
          0 0 0 0.08350269379962821 0.22150327714159684 0
          0.9948707858621776 0.2520888457715421 0 1.4019076905931929 0.06908561065260982 0
          1.1975852083726244 0.2056674660395916 0 0.040319706434128286 0.16073553926686385 0
          0.07174132546216844 0.07179567934370377 0 0.048455805361831986 0.14056668880073242 0
          0.9188445541338747 0.002264411134941325 0 0.031943270909313294 0.15236152077404735 0
          0.02118897182179402 0.12797826025989328 0 0 0 0
          0.061180390388344864 0.1050658972833099 0 0.39955681448994235 0.0699358503407281 0
          0 0 0 0.7054560367076845 0.11105699266314087 0
          0 0 0 0.017244117416531188 0.09918608419071627 0
          0.029255764404318665 0.12181357986330592 0 0.05078224207405559 0.01707101126941083 0
          1.3361761301182677 0.05840387538924531 0 0 0 0
          0.010959553069206289 0.0757940198936979 0 0.049484725718669076 0.07090970041547362 0
          0.9302395240133403 0.07131515010678785 0 0.035167498453628376 0.09185884198179958 0
          0 0 0 0.01922000392761256 0.08917523173164388 0
          0 0 0 1.4197369182899826 -0.003262559175912184 0
          0.3530529684645206 0.027394784957840243 0 0.006620345198185209 0.06260615223642285 0
          1.1365778038820018 0.020358057808794378 0 0.01879296881913968 0.08009154455788588 0
          0.67479807802728 0.03733852035840978 0 0.042095388898924814 0.02858315911513631 0
          0 0 0 0.006951365697402039 0.05023394924272205 0
          1.404971161048628 -0.04008080044262693 0 0 0 0
          0 0 0 0.014786411531895017 0.057521113744593406 0
          0.032153531591774843 0.034484625945988674 0 0.005041936634449755 0.04129313029165886 0
          0.02238114100973881 0.05222411185507208 0 0.3353569129513927 -0.0010297642476947819 0
          0.013976370546278824 0.05044380958373598 0 0 0 0
          1.2456668741550077 -0.05525215576643016 0 0.6625545857545884 -0.027204079033692322 0
          0.9478949596226857 -0.06460009220207114 0 0.004661277513269212 0.032866782151488326 0
          1.1630974648285832 -0.1099299442326796 0 0.023444267379491582 0.0076402629953989405 0
          0 0 0 0 0 0
          0.01837036870708284 0.03178551168659904 0 0 0 0
          1.3217210286252747 -0.1331077545216105 0 0.00966393823972423 0.034198397150190525 0
          0.0040785355706529575 0.025802893515566454 0 0.34339214711751415 -0.028779366108579747 0
          0 0 0 1.3944622945058194 -0.14291916585805134 0
          0.009351914958013808 0.027134624959158755 0 0.6809635331440169 -0.1330258258454362 0
          0.01657702854377067 0.013557437743702879 0 0.003325972923938089 0.01940625922200498 0
          0 0 0 0.9358725958880318 -0.18634473475318367 0
          0.006388312984083742 0.021461819583469346 0 1.3673119323973901 -0.13912635228324693 0
          0 0 0 0.003073705351612382 0.014573482637876178 0
          1.1390414346890276 -0.21944204047321714 0 0 0 0
          0 0 0 0.39676598310655936 -0.18285008159893867 0
          0.008813623763473596 0.012064237400335274 0 0.006278609964060863 0.014610257973758766 0
          0.9283450194640561 -0.05300675291473678 0 0.0019378914116979975 0.010157665510435107 0
          1.2848957519957382 -0.23111763577156166 0 1.1956234992862038 -0.10513911001062076 0
          0.008975227403932437 0.0030109811792620564 0 0 0 0
          0 0 0 0.6791673445211284 -0.2586366418908226 0
          0 0 0 0 0 0
          0.0012413584529239483 0.007307409496993048 0 0.04764198012112997 -0.08938888279593053 0
          0 0 0 0.00385592952875807 0.008580639443340728 0
          1.3530528205257824 -0.2296646808316448 0 0.9088507786995114 -0.3000141378284796 0
          0.005480502842224765 0.00410620410259648 0 0 0 0
          0.02659192837595527 -0.04737707295345013 0 0.0014164021870449659 0.0046141961667535 0
          0.0033613009670680296 0.005437885236361511 0 0 0 0
          0.015260031947013383 -0.0214908183936705 0 0 0 0
          0.3154903854416499 -0.2392568203657899 0 1.3084447232090537 -0.1961076289202315 0
          0.0018298965381626498 0.0032730885968470518 0 1.0636081925899132 -0.3389773550628164 0
          0.006454089489819001 -0.0038971554644999656 0 0.0030269379600218927 0.0008705863046848632 0
          0.001143756665544889 0.002814631576345962 0 0 0 0
          0 0 0 0.10404246287246516 -0.13741730871826252 0
          0 0 0 0.002236856211099477 0.0019709332927130238 0
          0 0 0 1.2241151037941926 -0.3273741057729208 0
          0.06557765813813152 -0.08748046636729814 0 0.0017948181460123453 0.0014476301389697898 0
          0 0 0 0.000596865807533311 0.0013143975089238127 0
          0.2497021017564219 -0.007745968353992231 0 0.5461616533984263 -0.32628831493031757 0
          0.001444471089597673 0.0055095696051464214 0 1.140081807952302 -0.15262482092706767 0
          0 0 0 0 0 0
          0.0013883090242075408 0.007224657844854335 0 0.000413327325905193 0.0006025810280923504 0
          0.2949545449792949 -0.25722793711831765 0 0.0175765709671964 -0.03138237306449362 0
          0.053246001962608536 -0.07240813176423902 0 0.777815487542402 -0.3771113347729844 0
          0 0 0 1.2771282229949317 -0.29027370493601456 0
          0.1412444498591566 -0.16390384819082135 0 0.0005599737694944772 0.008977176587090597 0
          0 0 0 0.010961884662126149 -0.015736094135199576 0
          0 0 0 0 0 0
          0.005592333915042446 -0.0022610373864314624 0 0.00022531446673255108 -0.00008459543436435098 0
          -0.00004208524183732774 0.009476686279218586 0 0.0053000104958138535 0.003086784496473503 0
          0.7725602719135509 -0.09435867403220007 0 0 0 0
          0 0 0 0.48500533934998025 -0.34318351739976144 0
          0.00024120178099082604 0.009900937101488778 0 0.9384073409456504 -0.39723003768494697 0
          1.2201459702681565 -0.24430367694325147 0 0 0 0
          0.036224551513516924 -0.05655122229128223 0 0 0 0
          0.3099511888296377 -0.2782822929158525 0 0.002177192118904202 0.007139305350771937 0
          0 0 0 0.0000692892966455 0.009995941026483955 0
          0.015965753964449186 -0.016277115370914606 0 0 0 0
          0.0019410106805563812 0.01064565696275551 0 0.1614371765844443 -0.1804909349318852 0
          0 0 0 -0.00036932323987406317 0.009717875080605046 0
          0 0 0 0.0009963388579644946 0.012116075254455178 0
          0.658099175312853 -0.39406485426215476 0 0 0 0
          -0.0006800950195728038 0.008776960379270008 0 0.00013924820330008891 0.012820630858041028 0
          1.0606486547344682 -0.1687556480380189 0 0.46942951795255433 -0.349257089229853 0
          0.009823491812731622 -0.0031068889039708694 0 0 0 0
          -0.0005833874955170611 0.007874279655577411 0 1.1840785636151192 -0.3308097249353573 0
          0.05716235099488305 -0.07688641970072119 0 -0.0016544863233822977 0.013092575348899642 0
          1.0240746005633354 -0.41185991250855686 0 0.3024739578593576 -0.2769677154486384 0
          0 0 0 -0.0006257262172392098 0.006955070617821943 0
          0.002742945252003631 0.008410422030751949 0 0.14261405148712603 -0.166101628554062 0
          -0.001609260712741586 0.01248794598950811 0 0.03896434928339433 -0.048552025192054774 0
          0.8062255065037593 -0.42097737590041734 0 0 0 0
          -0.0008636886916797481 0.0055960955131267205 0 -0.0014762509943813092 0.010931510703375275 0
          0.6196294340504603 -0.38619069682750545 0 0.6871328759198478 -0.08114393570813902 0
          0 0 0 -0.000949824493869643 0.00405827570500084 0
          -0.0015254263349186413 0.011234652371504686 0 -0.0026137835544553173 0.009909353316588593 0
          0.01887578700134036 -0.017771124915536073 0 0.45300568451730205 -0.3365383364930309 0
          0.08878423139185734 -0.11210913120684739 0 0 0 0
          -0.0010224592365171289 0.0023691398377417732 0 1.0727944690545281 -0.38209214188918084 0
          -0.0029704627976516293 0.007815644949819006 0 -0.0029719450231926307 0.011209276794743308 0
          0.3040257511669876 -0.26944065117794 0 1.1121019613308847 -0.30616249970173515 0
          0 0 0 0.9271855796685853 -0.4047444723555128 0
          -0.0032752947779240895 0.005416834822571767 0 -0.00048611453597431696 0.0006926756847165426 0
          0.06402709807689459 -0.06926922848143155 0 -0.00523115494032133 0.009202289379533041 0
          0.17105651354872534 -0.1804167080976399 0 -0.002776232582298866 0.003038416509700637 0
          0.6597072156118468 -0.3801010147368554 0 0.010661090497419744 -0.014356787920353041 0
          0 0 0 0.9784598573368816 -0.20375346854405407 0
          0.3079526132179165 -0.01709890586598539 0 -0.005999045192184021 0.005189115338358895 0
          0.0002992701627525389 -0.002565526337852139 0 -0.0038745234488287883 0.0034089084795311075 0
          0.12698972949390774 -0.13072023393737559 0 0.4285423602093649 -0.31336581893552173 0
          0 0 0 -0.003114528413307009 0.001372526688464204 0
          0.9987760655915934 -0.3381130042699033 0 0.03682817282615979 -0.05480434097251358 0
          -0.00885044886561222 0.0035643620166466803 0 0.01233122967633522 -0.02314791089870547 0
          0.7922383680694784 -0.35797800307265826 0 0.22726766439151314 -0.20320954096919192 0
          0.5363439777802258 -0.0712693036518892 0 0.0003095221489833759 -0.007717532373582736 0
          0 0 0 -0.006697256874064615 0.0013082187868575302 0
          0.5547180745254547 -0.3234943220303807 0 1.0376070995457873 -0.2618157765444916 0
          0.09505469389503883 -0.1005067278933176 0 0.36358251245195283 -0.2618852474955319 0
          0.04210413023675401 -0.0519741474036005 0 0.015507387250994889 -0.022814516301698215 0
          -0.008795680957065838 -0.000010164295151147075 0 0.9266800053985595 -0.3131946433988219 0
          0 0 0 0.00024083329871454407 -0.007437826347861676 0
          0.7161697499419107 -0.333089825956843 0 0.4878927923987152 -0.29317461860506605 0
          0 0 0 0.18781378690816944 -0.15287905357280882 0
          0.09183120909188587 -0.08455634504274902 0 0.9357859936493058 -0.0892367983258183 0
          0.0475657363902002 -0.04415719030106895 0 -0.00411452921718788 -0.0029217575334144616 0
          0.016673047810373553 -0.017216951736157046 0 0.32110545518679456 -0.22790005992616555 0
          0 0 0 0.934302960560154 -0.3611673592067031 0
          0.004067740351258434 -0.001648544593741791 0 0.17059472606946316 -0.1409390883213726 0
          0.09046135162653707 -0.06646718571988437 0 0.5589877136377474 -0.38790758071778647 0
          0.02973698065318285 -0.018312422579827837 0 0.3050117797038383 -0.2663898269483835 0
          0 0 0 0.07838425588652087 -0.0377967919872754 0
          0.16542141835540128 -0.11610139519399112 0 0 0 0
          <InformationKey name="L2_NORM_RANGE" location="vtkDataArray" length="2">
            <Value index="0">
              0
            </Value>
            <Value index="1">
              1.419740667
            </Value>
          </InformationKey>
        </DataArray>
        <DataArray type="Float64" Name="Pressure" format="ascii" RangeMin="-8.869254364411267" RangeMax="36.85844689574945">
          36.204530024902 36.433233230234194 36.65781200726785 36.22518005968413 36.142261524314485 36.60933905312177
          36.04947723916688 35.651575496370796 35.43192066908515 34.759333060385195 36.08602943226978 34.52394396561353
          36.81076660417886 35.33054792801834 34.48749972020923 33.78954853677981 33.63164234985193 34.579075647217365
          36.469918275921216 35.59617920729136 33.44189511934663 34.82572961132502 32.505802139543626 36.85844689574945
          33.57903705018273 32.315588364814936 32.40472629335662 33.98133936799452 31.505457422179674 35.028237580208085
          36.050411089067815 30.926452574524056 36.60762650869977 34.26340483706505 33.11557355687815 31.217072408848992
          30.356722721298574 31.6053278681927 33.56115424283783 35.33152430637914 29.485286447524352 35.770585852824716
          36.80718327081777 34.48511702773874 29.670186629465512 32.15862223045791 30.176347876522453 32.80809965567815
          33.92512255583165 30.757846949058735 34.656043860631314 27.434962367042004 27.804938019538504 28.50837270945355
          33.42859692495912 32.051523617088634 29.333155337740067 34.117725902494264 30.165635008269998 32.766415401285
          34.90858916813418 27.503996153236983 31.117869562902328 34.24870465635841 25.78500792252126 33.85852965018528