<?xml version="1.0"?>
<VTKFile type="UnstructuredGrid" version="0.1" byte_order="LittleEndian" header_type="UInt32" compressor="vtkZLibDataCompressor">
  <UnstructuredGrid>
    <Piece NumberOfPoints="418" NumberOfCells="757">
      <PointData>
        <DataArray type="Float64" Name="nsi_BC" NumberOfComponents="3" format="ascii" RangeMin="0" RangeMax="1">
          0 0 0 0 0 0
          0 0 0 0 0 0
          0 0 0 1 0 0
          0 0 0 0 0 0
          0 0 0 0 0 0
          0 0 0 0 0 0
          0 0 0 0 0 0
          0 0 0 0 0 0
          0 0 0 0 0 0
          0 0 0 0 0 0
          0 0 0 0 0 0
          0 0 0 0 0 0
          0 0 0 0 0 0
          0 0 0 0 0 0
          0 0 0 0 0 0
          0 0 0 0 0 0
          0 0 0 0 0 0
          0 0 0 0 0 0
          0 0 0 0 0 0
          0 0 0 0 0 0
          0 0 0 0 0 0
          0 0 0 0 0 0
          0 0 0 0 0 0
          0 0 0 0 0 0
          0 0 0 0 0 0
          0 0 0 0 0 0
          0 0 0 0 0 0
          0 0 0 0 0 0
          0 0 0 0 0 0
          0 0 0 0 0 0
          0 0 0 0 0 0
          0 0 0 0 0 0
          0 0 0 0 0 0
          0 0 0 0 0 0
          0 0 0 0 0 0
          0 0 0 0 0 0
          0 0 0 0 0 0
          0 0 0 0 0 0
          0 0 0 0 0 0
          0 0 0 0 0 0
          0 0 0 0 0 0
          0 0 0 0 0 0
          0 0 0 0 0 0
          0 0 0 0 0 0
          0 0 0 0 0 0
          0 0 0 0 0 0
          0 0 0 0 0 0
          0 0 0 0 0 0
          0 0 0 0 0 0
          0 0 0 0 0 0
          0 0 0 0 0 0
          0 0 0 0 0 0
          0 0 0 0 0 0
          0 0 0 0 0 0
          0 0 0 0 0 0
          0 0 0 0 0 0
          0 0 0 0 0 0
          0 0 0 0 0 0
          0 0 0 0 0 0
          0 0 0 0 0 0
          0 0 0 0 0 0
          0 0 0 0 0 0
          0 0 0 0 0 0
          0 0 0 0 0 0
          0 0 0 0 0 0
          0 0 0 0 0 0
          0 0 0 0 0 0
          0 0 0 0 0 0
          0 0 0 0 0 0
          0 0 0 0 0 0
          0 0 0 0 0 0
          0 0 0 0 0 0
          0 0 0 0 0 0
          0 0 0 0 0 0
          0 0 0 0 0 0
          0 0 0 0 0 0
          0 0 0 0 0 0
          0 0 0 0 0 0
          0 0 0 0 0 0
          0 0 0 0 0 0
          0 0 0 0 0 0
          0 0 0 0 0 0
          0 0 0 0 0 0
          0 0 0 0 0 0
          0 0 0 0 0 0
          0 0 0 0 0 0
          0 0 0 0 0 0
          0 0 0 0 0 0
          0 0 0 0 0 0
          0 0 0 0 0 0
          0 0 0 0 0 0
          0 0 0 0 0 0
          0 0 0 0 0 0
          0 0 0 0 0 0
          0 0 0 0 0 0
          0 0 0 0 0 0
          0 0 0 0 0 0
          0 0 0 0 0 0
          0 0 0 0 0 0
          0 0 0 0 0 0
          0 0 0 0 0 0
          0 0 0 0 0 0
          0 0 0 0 0 0
          0 0 0 0 0 0
          0 0 0 0 0 0
          0 0 0 0 0 0
          0 0 0 0 0 0
          0 0 0 0 0 0
          0 0 0 0 0 0
          0 0 0 0 0 0
          0 0 0 0 0 0
          0 0 0 0 0 0
          0 0 0 0 0 0
          0 0 0 0 0 0
          0 0 0 0 0 0
          0 0 0 0 0 0
          0 0 0 0 0 0
          0 0 0 0 0 0
          0 0 0 0 0 0
          0 0 0 0 0 0
          0 0 0 0 0 0
          0 0 0 0 0 0
          0 0 0 0 0 0
          0 0 0 0 0 0
          0 0 0 0 0 0
          0 0 0 0 0 0
          0 0 0 0 0 0
          0 0 0 0 0 0
          0 0 0 0 0 0
          0 0 0 0 0 0
          0 0 0 0 0 0
          0 0 0 0 0 0
          0 0 0 0 0 0
          0 0 0 0 0 0
          0 0 0 0 0 0
          0 0 0 0 0 0
          0 0 0 0 0 0
          0 0 0 0 0 0
          0 0 0 0 0 0
          0 0 0 0 0 0
          0 0 0 0 0 0
          0 0 0 0 0 0
          0 0 0 0 0 0
          0 0 0 0 0 0
          0 0 0 0 0 0
          0 0 0 0 0 0
          0 0 0 0 0 0
          0 0 0 0 0 0
          0 0 0 0 0 0
          0 0 0 0 0 0
          0 0 0 0 0 0
          0 0 0 0 0 0
          0 0 0 0 0 0
          0 0 0 0 0 0
          0 0 0 0 0 0
          0 0 0 0 0 0
          0 0 0 0 0 0
          0 0 0 0 0 0
          0 0 0 0 0 0
          0 0 0 0 0 0
          0 0 0 0 0 0
          0 0 0 0 0 0
          0 0 0 0 0 0
          0 0 0 0 0 0
          0 0 0 0 0 0
          0 0 0 0 0 0
          0 0 0 0 0 0
          0 0 0 0 0 0
          0 0 0 0 0 0
          0 0 0 0 0 0
          0 0 0 0 0 0
          0 0 0 0 0 0
          0 0 0 0 0 0
          0 0 0 0 0 0
          0 0 0 0 0 0
          0 0 0 0 0 0
          0 0 0 0 0 0
          0 0 0 0 0 0
          0 0 0 0 0 0
          0 0 0 0 0 0
          0 0 0 0 0 0
          0 0 0 0 0 0
          0 0 0 0 0 0
          0 0 0 0 0 0
          0 0 0 0 0 0
          0 0 0 0 0 0
          0 0 0 0 0 0
          0 0 0 0 0 0
          0 0 0 0 0 0
          0 0 0 0 0 0
          0 0 0 0 0 0
          0 0 0 0 0 0
          0 0 0 0 0 0
          0 0 0 0 0 0
          0 0 0 0 0 0
          0 0 0 0 0 0
          0 0 0 0 0 0
          0 0 0 0 0 0
          0 0 0 0 0 0
          0 0 0 0 0 0
          0 0 0 0 0 0
          0 0 0 0 0 0
          0 0 0 0 0 0
          0 0 0 0 0 0
          0 0 0 0 0 0
          0 0 0 0 0 0
          0 0 0 0 0 0
          0 0 0 0 0 0
          0 0 0 0 0 0
          <InformationKey name="L2_NORM_RANGE" location="vtkDataArray" length="2">
            <Value index="0">
              0
            </Value>
            <Value index="1">
              1
            </Value>
          </InformationKey>
        </DataArray>
        <DataArray type="Float64" Name="nsi_FIXNO" NumberOfComponents="3" format="ascii" RangeMin="1.4142135623730951" RangeMax="1.4142135623730951">
          1 1 0 -1 -1 0
          -1 -1 0 -1 -1 0
          1 1 0 1 1 0
          -1 -1 0 -1 -1 0
          -1 -1 0 -1 -1 0
          -1 -1 0 -1 -1 0
          -1 -1 0 -1 -1 0
          -1 -1 0 1 1 0
          -1 -1 0 -1 -1 0
          -1 -1 0 -1 -1 0
          -1 -1 0 -1 -1 0
          -1 -1 0 -1 -1 0
          -1 -1 0 -1 -1 0
          -1 -1 0 -1 -1 0
          -1 -1 0 -1 -1 0
          -1 -1 0 -1 -1 0
          1 1 0 -1 -1 0
          -1 -1 0 -1 -1 0
          1 1 0 -1 -1 0
          -1 -1 0 -1 -1 0
          -1 -1 0 -1 -1 0
          1 1 0 -1 -1 0
          -1 -1 0 -1 -1 0
          -1 -1 0 -1 -1 0
          -1 -1 0 -1 -1 0
          -1 -1 0 -1 -1 0
          -1 -1 0 -1 -1 0
          -1 -1 0 -1 -1 0
          -1 -1 0 -1 -1 0
          -1 -1 0 -1 -1 0
          1 1 0 -1 -1 0
          -1 -1 0 -1 -1 0
          -1 -1 0 -1 -1 0
          -1 -1 0 -1 -1 0
          -1 -1 0 1 1 0
          -1 -1 0 -1 -1 0
          -1 -1 0 -1 -1 0
          -1 -1 0 -1 -1 0
          -1 -1 0 -1 -1 0
          -1 -1 0 -1 -1 0
          -1 -1 0 -1 -1 0
          -1 -1 0 -1 -1 0
          -1 -1 0 -1 -1 0
          -1 -1 0 -1 -1 0
          1 1 0 -1 -1 0
          -1 -1 0 -1 -1 0
          -1 -1 0 -1 -1 0
          -1 -1 0 -1 -1 0
          -1 -1 0 -1 -1 0
          -1 -1 0 -1 -1 0
          -1 -1 0 -1 -1 0
          -1 -1 0 -1 -1 0
          -1 -1 0 -1 -1 0
          -1 -1 0 -1 -1 0
          -1 -1 0 -1 -1 0
          -1 -1 0 -1 -1 0
          -1 -1 0 -1 -1 0
          -1 -1 0 -1 -1 0
          -1 -1 0 -1 -1 0
          -1 -1 0 -1 -1 0
          -1 -1 0 1 1 0
          -1 -1 0 -1 -1 0
          -1 -1 0 -1 -1 0
          -1 -1 0 -1 -1 0
          -1 -1 0 -1 -1 0
          -1 -1 0 -1 -1 0
          -1 -1 0 -1 -1 0
          -1 -1 0 -1 -1 0
          -1 -1 0 -1 -1 0
          -1 -1 0 -1 -1 0
          -1 -1 0 -1 -1 0
          -1 -1 0 -1 -1 0
          -1 -1 0 -1 -1 0
          -1 -1 0 -1 -1 0
          1 1 0 -1 -1 0
          -1 -1 0 -1 -1 0
          -1 -1 0 -1 -1 0
          -1 -1 0 -1 -1 0
          -1 -1 0 -1 -1 0
          -1 -1 0 1 1 0
          -1 -1 0 -1 -1 0
          1 1 0 -1 -1 0
          1 1 0 -1 -1 0
          -1 -1 0 -1 -1 0
          -1 -1 0 1 1 0
          -1 -1 0 -1 -1 0
          -1 -1 0 -1 -1 0
          1 1 0 -1 -1 0
          1 1 0 -1 -1 0
          -1 -1 0 -1 -1 0
          -1 -1 0 -1 -1 0
          -1 -1 0 -1 -1 0
          1 1 0 -1 -1 0
          -1 -1 0 1 1 0
          1 1 0 -1 -1 0
          -1 -1 0 -1 -1 0
          -1 -1 0 -1 -1 0
          -1 -1 0 1 1 0
          -1 -1 0 -1 -1 0
          -1 -1 0 -1 -1 0
          -1 -1 0 -1 -1 0
          1 1 0 1 1 0
          -1 -1 0 1 1 0
          -1 -1 0 -1 -1 0
          -1 -1 0 -1 -1 0
          1 1 0 -1 -1 0
          -1 -1 0 -1 -1 0
          -1 -1 0 -1 -1 0
          1 1 0 -1 -1 0
          -1 -1 0 -1 -1 0
          1 1 0 -1 -1 0
          -1 -1 0 1 1 0
          1 1 0 -1 -1 0
          -1 -1 0 -1 -1 0
          -1 -1 0 -1 -1 0
          -1 -1 0 -1 -1 0
          -1 -1 0 1 1 0
          1 1 0 -1 -1 0
          1 1 0 1 1 0
          -1 -1 0 -1 -1 0
          1 1 0 -1 -1 0
          -1 -1 0 -1 -1 0
          -1 -1 0 1 1 0
          -1 -1 0 -1 -1 0
          -1 -1 0 1 1 0
          -1 -1 0 1 1 0
          -1 -1 0 -1 -1 0
          -1 -1 0 -1 -1 0
          -1 -1 0 -1 -1 0
          -1 -1 0 1 1 0
          1 1 0 -1 -1 0
          1 1 0 -1 -1 0
          1 1 0 -1 -1 0
          -1 -1 0 -1 -1 0
          1 1 0 -1 -1 0
          -1 -1 0 -1 -1 0
          -1 -1 0 -1 -1 0
          1 1 0 1 1 0
          -1 -1 0 -1 -1 0
          -1 -1 0 -1 -1 0
          -1 -1 0 -1 -1 0
          1 1 0 -1 -1 0
          -1 -1 0 -1 -1 0
          1 1 0 -1 -1 0
          1 1 0 1 1 0
          -1 -1 0 -1 -1 0
          -1 -1 0 -1 -1 0
          -1 -1 0 1 1 0
          1 1 0 -1 -1 0
          -1 -1 0 -1 -1 0
          -1 -1 0 1 1 0
          -1 -1 0 1 1 0
          -1 -1 0 -1 -1 0
          1 1 0 -1 -1 0
          -1 -1 0 1 1 0
          -1 -1 0 -1 -1 0
          1 1 0 -1 -1 0
          1 1 0 -1 -1 0
          -1 -1 0 1 1 0
          -1 -1 0 -1 -1 0
          -1 -1 0 -1 -1 0
          -1 -1 0 1 1 0
          -1 -1 0 -1 -1 0
          -1 -1 0 -1 -1 0
          -1 -1 0 -1 -1 0
          1 1 0 -1 -1 0
          -1 -1 0 -1 -1 0
          -1 -1 0 -1 -1 0
          -1 -1 0 1 1 0
          -1 -1 0 -1 -1 0
          -1 -1 0 -1 -1 0
          1 1 0 -1 -1 0
          -1 -1 0 -1 -1 0
          -1 -1 0 -1 -1 0
          -1 -1 0 1 1 0
          -1 -1 0 -1 -1 0
          -1 -1 0 -1 -1 0
          -1 -1 0 -1 -1 0
          1 1 0 -1 -1 0
          -1 -1 0 -1 -1 0
          -1 -1 0 -1 -1 0
          -1 -1 0 -1 -1 0
          -1 -1 0 -1 -1 0
          1 1 0 -1 -1 0
          -1 -1 0 -1 -1 0
          -1 -1 0 -1 -1 0
          -1 -1 0 -1 -1 0
          1 1 0 -1 -1 0
          -1 -1 0 -1 -1 0
          -1 -1 0 -1 -1 0
          -1 -1 0 -1 -1 0
          -1 -1 0 -1 -1 0
          1 1 0 -1 -1 0
          -1 -1 0 -1 -1 0
          -1 -1 0 -1 -1 0
          -1 -1 0 -1 -1 0
          -1 -1 0 -1 -1 0
          1 1 0 -1 -1 0
          -1 -1 0 -1 -1 0
          1 1 0 -1 -1 0
          -1 -1 0 -1 -1 0
          -1 -1 0 -1 -1 0
          -1 -1 0 -1 -1 0
          1 1 0 -1 -1 0
          -1 -1 0 -1 -1 0
          -1 -1 0 -1 -1 0
          -1 -1 0 -1 -1 0
          1 1 0 -1 -1 0
          -1 -1 0 1 1 0
          <InformationKey name="L2_NORM_RANGE" location="vtkDataArray" length="2">
            <Value index="0">
              1.4142135624
            </Value>
            <Value index="1">
              1.4142135624
            </Value>
          </InformationKey>
        </DataArray>
        <DataArray type="Float64" Name="Velocity" NumberOfComponents="3" format="ascii" RangeMin="0" RangeMax="1.4149923295344058">
          0 0 0 0.31853175698526237 0.024337148491516875 0
          0.732237238764518 0.10039329774417509 0 0.5148737016909882 0.0366968961663213 0
          0 0 0 1 0 0
          0.7173929598521401 0.026515216313876152 0 0.36958656693139413 0.021732394983416524 0
          0.6437812026548284 0.038218524340592225 0 0.31166322270607766 0.004858282467994302 0
          0.6663680607385056 0.028920495649937615 0 0.5621108564483348 0.03288961870101885 0
          0.7022497313935785 -0.0976631948969013 0 0.7198274023936523 0.0335513611521192 0
          0.6861930924764816 0.04772258908603474 0 0 0 0
          0.5053434800480759 0.02672557198191037 0 0.727501203230289 0.061409595103648414 0
          0.6054087937342684 -0.004494528700011353 0 0.6491258164635558 0.04404300001144373 0
          0.6613212707976859 0.0577689529621751 0 0.6874494883779972 0.06477240077202893 0
          0.4236707069490224 0.03645372931599784 0 0.34874029937233164 -0.028471198203440767 0
          0.7343411141681527 0.09957929061150184 0 0.6429447682450877 0.08018685600821256 0
          0.7444862109416263 0.11948403583979006 0 0.7156222333004064 0.1016266997925241 0
          0.3205055479061971 0.01213980444738197 0 0.5695116185186616 0.05058505230036573 0
          0.4445166787301657 0.0039507237392414525 0 0.6011480709202303 0.09034717073569373 0
          0 0 0 0.6200765689550066 0.08471477251265705 0
          0.7370273157879956 0.15850464600341996 0 0.7591528537723936 0.15538565534377924 0
          0 0 0 0.7807160789405194 0.19163737770343917 0
          0.653453908121952 0.1399992905790803 0 0.3207226565932311 0.01051447682616133 0
          0.5646967180442906 0.0852370022731863 0 0.20031444688976485 0.005392722409320623 0
          0 0 0 0.4630961286977823 0.053940099954316915 0
          0.7665673740874518 0.18321553565439966 0 0.7596475026847427 0.22671875313258524 0
          0.8296835536591362 0.24630587310150506 0 0.6803286813289694 0.21058824959225853 0
          0.5145652207866083 0.09827337667158562 0 0.8152941435734866 0.2844109469782995 0
          0.3052083440221899 0.02672273569126918 0 0.46051782994983814 0.024706909790075542 0
          0.7953602120480314 0.15326943408864402 0 0.8788289962986718 0.275685240018649 0
          0.5537685936530972 0.1684539525026028 0 0.6937842464707241 0.29119004381987657 0
          0.8731095969655172 0.34242924351311654 0 0.3443223109020412 0.04989389982275276 0
          0.8019924632014038 0.3701662924112106 0 0.5902293849964955 0.2545747566003169 0
          0 0 0 0.9505448354011361 0.36348881461060356 0
          0.7084505941920953 0.37222233326615656 0 0.1820321870975403 0.011543141604798498 0
          0.9842925331465319 0.23710726435692908 0 0.36596575313619395 0.09378008843651336 0
          0.4547587409370269 0.1907538077125698 0 0.8763037804790236 0.42287426876716816 0
          0.5926575345122187 0.3319953413127086 0 0 0 0
          0.7474979211626139 0.1026617102344288 0 0.4675844139596703 0.2663046398685388 0
          0.7450501014861097 0.4618071420065282 0 1.0549945941354686 0.35816983786442064 0
          0.9668935403151775 0.46165686570877235 0 0.32193653814536216 0.12554030785198242 0
          0.2095373840034658 0.036505675925680874 0 0.5677630447307788 0.41039479426460607 0
          0.852427209703532 0.5109546760042735 0 1.1171501667221428 0.28616486630186094 0
          0.4642597609563543 0.340346780860865 0 0.7284055472920111 0.5115939799688054 0
          0.3379373873381444 0.1885219531662365 0 0.23946869175992438 0.06438865398947421 0
          1.0351095233064906 0.193180109748522 0 0.6090667994894284 0.49308695391561946 0
          0.9628137057759606 0.5213258255860106 0 0.33974255064471465 0.25815666687472755 0
          0 0 0 0.8326862328094935 0.08442657865808602 0
          1.1912326527945272 0.38200810801696766 0 0.7911471883181297 0.5618403367384358 0
          0.438477935802336 0.4186639427153924 0 0.6422211402122592 0.5511963952431378 0
          1.2247192464945955 0.2759923824493513 0 0.228091298448766 0.11885901214264251 0
          0.31193773069266684 0.30467995811513754 0 0.11894886697016713 0.016226529685267995 0
          0.23966016986624353 0.1822639304580233 0 0.47734570257586895 0.010987119184823528 0
          0.93376890943676 0.5618013164048001 0 0.4222471365085907 0.47578723287238234 0
          1.1487077850171075 0.4713333035279746 0 0.24300170284373576 0.24409912412362736 0
          0.6972360281199458 0.5848214110760613 0 0.27824130985434103 0.3444697505076666 0
          1.169018955836176 0.14220330011725504 0 1.2948688757606843 0.3308000107286853 0
          0.1364702138823863 0.04352962772363493 0 0.521957943821941 0.55585806461651 0
          0.8063568616425798 0.5694312023463881 0 0.2004606821423123 0.265466184768321 0
          0.32548330713304624 0.4527790812276813 0 1.0820404660033012 0.48453343957057216 0
          0.9178733341862104 0.029064892559258662 0 0.13217466568786165 0.0702478471676252 0
          0.5572287035422532 0.5559499901110124 0 0.2163968715458479 0.3452240887302345 0
          1.2711336190631486 0.35764555278290616 0 1.348152127061745 0.19592582370073308 0
          0.1383215959670757 0.12208886961733928 0 0 0 0
          0.1506654575067999 0.18994820645091468 0 0.3267695385729892 0.4788520009001538 0
          1.3563831462228657 0.2595275801050367 0 0.1669969956227113 0.27690244544965853 0
          0.05729429639335551 0.008076929472187416 0 0.6566836997019044 0.5059575639308449 0
          0.1554344268834321 0.32597001045432633 0 0.9883363508683934 0.4229538911101878 0
          0.3640136834406853 0.45428911230511426 0 0.10888075372003027 0.19398259225090234 0
          1.1810627869262453 0.33966021648202865 0 0.07574686222232557 0.0303877077403242 0
          0.10032168928707323 0.12717048929000097 0 1.2502041941893807 0.05991514701050637 0
          1.3158747210480863 0.2559374964613614 0 0.1626656141207565 0.34151381223399174 0
          0.0833962903370687 0.18854495917761988 0 1.4027455925711878 0.1566835986679192 0
          0.42924424005523704 0.35752244345746764 0 0.08364498160863526 0.09284319670796957 0
          0.0738801542046166 0.23910110071418023 0 0.0681680984422106 0.042841209768151214 0
          0.7665133186070742 0.3079875887098249 0 0.07654946929052796 0.12568154601848355 0
          0.06770497528875057 0.20399283179585131 0 0.070836632748926 0.20567631626879218 0
          0 0 0 0.08465406828950549 0.2158429017044513 0
          0.9964783357428602 0.25461320067403675 0 1.400166062898392 0.08354217716819999 0
          1.1957984927174523 0.21228349703550725 0 0.04103017636392116 0.15377164974850177 0
          0.056916313185548115 0.05530865172161033 0 0.046361998702101205 0.11739210022600688 0
          0.9257130601004185 0.007897260053582981 0 0.03208738667260252 0.13543524081893393 0
          0.021611184716703015 0.1202218726003328 0 0 0 0
          0.05282540323307144 0.08285386499225178 0 0.4024540957151775 0.07074559485441713 0
          0 0 0 0.7078769471925123 0.1132098297152995 0
          0 0 0 0.017510332948312387 0.090908503773559 0
          0.02889256564100259 0.10499105368384214 0 0.03716403578466378 0.013339242660757504 0
          1.3299115963824555 0.0735921989505973 0 0 0 0
          0.011034994969796387 0.0671980818695499 0 0.03986938755266434 0.05356270426702118 0
          0.9291879905639652 0.07728942832968459 0 0.031530114385369123 0.07244319061617989 0
          0 0 0 0.01835948409049096 0.07431423481706363 0
          0 0 0 1.4148990236542647 0.01624947701968054 0
          0.35509017974155005 0.028124519105428847 0 0.006586907070058786 0.05398561907249586 0
          1.1313377020212807 0.03274081981417292 0 0.017711567237915067 0.06474243807088072 0
          0.6750962040982109 0.04067279532889237 0 0.030106823769725462 0.021460823835265624 0
          0 0 0 0.006767494625227972 0.04181718684275126 0
          1.4067663167361086 -0.02072263372019843 0 0 0 0
          0 0 0 0.013220757626357065 0.04471555114961895 0
          0.023474044334908004 0.024760659424267615 0 0.004764966595105059 0.03331477481466706 0
          0.018090504541468256 0.03818580450983678 0 0.3360038993979411 0.0004438637257193962 0
          0.012226184655662678 0.03788379972016625 0 0 0 0
          1.2551226489893255 -0.04083914045249074 0 0.6599619665292148 -0.020993311319089363 0
          0.9413457096928443 -0.05103095996465312 0 0.004292846177785985 0.02543010408023537 0
          1.1537645616086145 -0.08722119852664426 0 0.016201058657348843 0.005535465469807528 0
          0 0 0 0 0 0
          0.013766412188905874 0.021874971454564615 0 0 0 0
          1.314635960250469 -0.1056823746612214 0 0.007808095547734305 0.024545470365965858 0
          0.0035866446522063613 0.019150055418679084 0 0.3415362414597717 -0.0257004536136727 0
          0 0 0 1.3934062581115858 -0.11455495142082267 0
          0.007404932461721576 0.018803966732030705 0 0.6734975601199178 -0.11834256978956988 0
          0.010868447441076803 0.009383788708451232 0 0.002801165895554046 0.013610028537024473 0
          0 0 0 0.9255642434494048 -0.16138107467862808 0
          0.004609532059762056 0.014240479943947917 0 1.3758249920693155 -0.11463798154940195 0
          0 0 0 0.002425855179745182 0.009742532230144296 0
          1.1289949010060647 -0.18652133848911573 0 0 0 0
          0 0 0 0.38880432485496735 -0.16580533023298305 0
          0.005816555589851478 0.0074208028267166775 0 0.004540326220543889 0.009152369401567734 0
          0.9463970951527331 -0.04473651233797977 0 0.001421577255244404 0.006312793677073692 0
          1.2800876784984918 -0.19435121366129265 0 1.2128462544485155 -0.08869691097928327 0
          0.005772220220040655 0.0019372496904582564 0 0 0 0
          0 0 0 0.6680597145145318 -0.22876076488306563 0
          0 0 0 0 0 0
          0.0008387989187673372 0.004307731015895913 0 0.04562064246542741 -0.07131074869795866 0
          0 0 0 0.002525517843709641 0.005010853718753335 0
          1.3575767274708213 -0.1947723891281211 0 0.8973824753908771 -0.25951998020542905 0
          0.003174925383766234 0.0024116985728456224 0 0 0 0
          0.02569600483615596 -0.030843305385106597 0 0.0009780526755537335 0.002424679024398622 0
          0.0021301213899225283 0.0029583828295207367 0 0 0 0
          0.014743339134471291 -0.0059176190740876725 0 0 0 0
          0.3075053701503721 -0.20227388619070236 0 1.3254193628449011 -0.16946099391217387 0
          0.0009388322836378578 0.0016457382917868444 0 1.0562972742217216 -0.29005530221809644 0
          0.006152735789793577 0.010957910879494843 0 0.0017775711621946604 0.0004168538928658055 0
          0.0007183117760661207 0.0012989569292062163 0 0 0 0
          0 0 0 0.10080778343382737 -0.1017876832582208 0
          0 0 0 0.0020659682606971653 0.01638696661640895 0
          0 0 0 1.2268038057136166 -0.2808274018423449 0
          0.06351661597885926 -0.05314676599349562 0 0.0009301795015041228 0.000656681592100278 0
          0 0 0 0.0003204239838927804 0.00040855619488215075 0
          0.25649460254001705 -0.007526043116675859 0 0.5359574392798537 -0.2728703959923039 0
          0.0011900250457827892 0.019513821621811218 0 1.1664822229354914 -0.13842180381496227 0
          0 0 0 0 0 0
          0.0009274608691788918 0.020601508794708207 0 0.00017605203477792894 0.00010884480352462569 0
          0.28816947976210866 -0.20243750787041592 0 0.01649642674800363 0.0007800891336064717 0
          0.05137459467796995 -0.03225279073290136 0 0.7694331928541281 -0.3154252483298582 0
          0 0 0 1.2929656395764255 -0.25252973112672544 0
          0.13757112353794076 -0.11139530713270393 0 -0.000012335926990586745 0.021569153786316842 0
          0 0 0 0.009969461053792568 0.01525551236314533 0
          0 0 0 0 0 0
          0.004209168621473143 0.02401960812285197 0 0.0000932260530547401 -0.00015543127964496 0
          -0.0006461741781852606 0.020943376306117895 0 0.0036664004584055867 0.02857189303114572 0
          0.7979949434065101 -0.08961950643561845 0 0 0 0
          0 0 0 0.4777349899373494 -0.27187569235955433 0
          -0.0005618397013091276 0.020073326108856867 0 0.9387117531531748 -0.33153422253119325 0
          1.2509403410702427 -0.22042644819808574 0 0 0 0
          0.03336978780758299 -0.0062354557263050074 0 0 0 0
          0.3042690414751567 -0.20520286526412923 0 -0.0003546840099391662 0.033038497779849116 0
          0 0 0 -0.0009106721513648275 0.01866007303378106 0
          0.012301595496422303 0.025869269491807317 0 0 0 0
          -0.0008994695626872006 0.03385040811096036 0 0.15677306509465241 -0.1095766089971647 0
          0 0 0 -0.0012137102601174183 0.016916673858738008 0
          0 0 0 -0.0020864936377037635 0.03040601166698153 0
          0.6567641671343466 -0.3145513112668524 0 0 0 0
          -0.0014853945198427618 0.014445550974711842 0 -0.0027788611905401614 0.028297303146358962 0
          1.0975474309116209 -0.15941540334957255 0 0.4656017053736254 -0.26405876863620076 0
          0.0027005082875237512 0.03616697152126765 0 0 0 0
          -0.0016814508896967522 0.011794305432211011 0 1.2172387160169462 -0.2955170899449823 0
          0.04965505426644057 -0.012411939373086144 0 -0.004957444678267422 0.027158518966203315 0
          1.0441235821695571 -0.3523735214274915 0 0.29727281961404733 -0.19018656507616752 0
          0 0 0 -0.0014535697487857197 0.00927618181154479 0
          -0.004651303260061549 0.0375294880833774 0 0.1336763335913832 -0.08454884090154463 0
          -0.005444692013844107 0.02294475090593878 0 0.027104811985226587 0.010527115364216015 0
          0.8177978872201389 -0.345266306008803 0 0 0 0
          -0.001381973781701842 0.006763088291066991 0 -0.004803712177074851 0.01748518632814073 0
          0.6249772694582706 -0.30166065747205606 0 0.716923277677661 -0.08054171694617378 0
          0 0 0 -0.0013528863636359553 0.004438136093988949 0
          -0.011006693701343339 0.030191462990592267 0 -0.005154070550093512 0.014279897136531057 0
          0.0031335347779660374 0.029908908520909792 0 0.45142344930095946 -0.24549868218971813 0
          0.07175366386227344 -0.037461796746017594 0 0 0 0
          -0.0011529980601707145 0.0023336536246396852 0 1.113758857248666 -0.34338018713350993 0
          -0.004818250733950805 0.010133949179331213 0 -0.011303698239182156 0.022946810031902402 0
          0.295059351650493 -0.17766294742656527 0 1.1628811970838553 -0.2884953471970956 0
          0 0 0 0.9588504688840971 -0.3481207890979109 0
          -0.004365260645496745 0.006625735912897951 0 -0.00046573478934343354 0.0005770663528575338 0
          0.04025426661263305 -0.005430614153929396 0 -0.010758774322628511 0.015614878461986687 0
          0.15034260354032838 -0.09618313513630172 0 -0.0031690082223163434 0.0034430406175357587 0
          0.6736770566206028 -0.3033726957116996 0 -0.013740909016033146 0.023622347859655675 0
          0 0 0 1.0267829965116282 -0.2022133158144203 0
          0.32412753405874545 -0.017508522213254853 0 -0.008220879367712456 0.007315243872062473 0
          -0.019545681882959704 0.02092820345824346 0 -0.017261941018101534 0.017102717758747873 0
          0.09673983421260121 -0.055364666264139946 0 0.42395846170153734 -0.2322872195256889 0
          0 0 0 -0.0036947720747311755 0.0016946157412732511 0
          1.052361003444305 -0.31088921270837694 0 -0.0032426664946047143 -0.004384132959250247 0
          -0.01621301596382441 0.00924916487534419 0 -0.021269745613586043 0.009169679518735234 0
          0.8270592150894044 -0.3126665004798165 0 0.19506887725453806 -0.12788894557558522 0
          0.566318224740319 -0.07252170736443928 0 -0.024196905788225816 0.010891025072250012 0
          0 0 0 -0.009491212304344365 0.0026550727526169307 0
          0.5634515997472852 -0.27109650167269944 0 1.1045893534835511 -0.2590079480574695 0
          0.04011645398180719 -0.04909252584401903 0 0.3393606430551535 -0.2032840117903139 0
          -0.00961156942054126 -0.014869713378748853 0 -0.023811391583583794 -0.0007718287299066868 0
          -0.016765023426366866 0.00228084224520533 0 0.9876566513802033 -0.3024746450258417 0
          0 0 0 -0.023017505347285586 0.003355121268387948 0
          0.74892476249458 -0.3182230474928291 0 0.481568597249806 -0.2667856212250695 0
          0 0 0 0.1222161513260958 -0.1137456224626788 0
          0.022805742075005672 -0.05302052229165828 0 0.9918335451163922 -0.09003791205377958 0
          -0.009955783084958167 -0.0237742833581977 0 -0.016657898840263037 0.0011820590377797015 0
          -0.019319964860273636 -0.006579758774435644 0 0.26737846729887843 -0.20608906875855673 0
          0 0 0 1.0058220836736447 -0.370732242322969 0
          -0.01397644610303186 -0.0000036156959935325924 0 0.08845181489922387 -0.12389644836308045 0
          0.017988255124136928 -0.05415731037869812 0 0.5601359854970313 -0.40785185851852385 0
          -0.0031838683488129437 -0.01611948244666814 0 0.2308408208709852 -0.27716591118463374 0
          0 0 0 0.021761970940638645 -0.03492379987758333 0
          0.08383563020898874 -0.10695610770065203 0 0 0 0
          <InformationKey name="L2_NORM_RANGE" location="vtkDataArray" length="2">
            <Value index="0">
              0
            </Value>
            <Value index="1">
              1.4149923295
            </Value>
          </InformationKey>
        </DataArray>
        <DataArray type="Float64" Name="Pressure" format="ascii" RangeMin="-8.280220353531432" RangeMax="36.94571773620938">
          36.28644724392899 36.444491882875326 36.77056129840951 36.22117496862869 36.038954539428985 36.81190629164399
          36.083566976907434 35.53224587591917 35.39209788914535 34.62906933322595 36.13424489028793 34.41568783184092
          36.94571773620938 35.34256640557954 34.42554478683369 33.6271632021603 33.475508153327866 34.53639816879743
          36.52006617328194 35.576206380645544 33.34060701555999 34.79317350236211 32.412643357771806 36.910440655208646
          33.537670490025576 32.24817959569631 32.366250428243305 33.96296691754681 31.487127612378554 34.9607779135146
          35.935203986051704 30.93216669149359 36.730732008600945 34.231291077514456 33.13067877975737 31.21425335294097
          30.40661742368597 31.628218195951128 33.58205282857113 35.21628385930702 29.557661014223072 35.62689055951655
          36.750986350134916 34.39572062477661 29.720136060286947 32.19695666266088 30.21204250932321 32.864351920973604
          33.90527489871021 30.836315564560774 34.50946261729855 27.605540681315304 27.93266576980087 28.57886806019389
          33.46222893966362 32.140648318653874 29.418299529985404 34.03113608543094 30.297009081891588 32.84855235049517
          34.739406999806405 27.59324786142701 31.247595350543474 34.11781631997339 25.925235499570146 33.80525829753811