<?xml version="1.0"?>
<VTKFile type="UnstructuredGrid" version="0.1" byte_order="LittleEndian" header_type="UInt32" compressor="vtkZLibDataCompressor">
  <UnstructuredGrid>
    <Piece NumberOfPoints="418" NumberOfCells="757">
      <PointData>
        <DataArray type="Float64" Name="nsi_BC" NumberOfComponents="3" format="ascii" RangeMin="0" RangeMax="1">
          0 0 0 0 0 0
          0 0 0 0 0 0
          0 0 0 1 0 0
          0 0 0 0 0 0
          0 0 0 0 0 0
          0 0 0 0 0 0
          0 0 0 0 0 0
          0 0 0 0 0 0
          0 0 0 0 0 0
          0 0 0 0 0 0
          0 0 0 0 0 0
          0 0 0 0 0 0
          0 0 0 0 0 0
          0 0 0 0 0 0
          0 0 0 0 0 0
          0 0 0 0 0 0
          0 0 0 0 0 0
          0 0 0 0 0 0
          0 0 0 0 0 0
          0 0 0 0 0 0
          0 0 0 0 0 0
          0 0 0 0 0 0
          0 0 0 0 0 0
          0 0 0 0 0 0
          0 0 0 0 0 0
          0 0 0 0 0 0
          0 0 0 0 0 0
          0 0 0 0 0 0
          0 0 0 0 0 0
          0 0 0 0 0 0
          0 0 0 0 0 0
          0 0 0 0 0 0
          0 0 0 0 0 0
          0 0 0 0 0 0
          0 0 0 0 0 0
          0 0 0 0 0 0
          0 0 0 0 0 0
          0 0 0 0 0 0
          0 0 0 0 0 0
          0 0 0 0 0 0
          0 0 0 0 0 0
          0 0 0 0 0 0
          0 0 0 0 0 0
          0 0 0 0 0 0
          0 0 0 0 0 0
          0 0 0 0 0 0
          0 0 0 0 0 0
          0 0 0 0 0 0
          0 0 0 0 0 0
          0 0 0 0 0 0
          0 0 0 0 0 0
          0 0 0 0 0 0
          0 0 0 0 0 0
          0 0 0 0 0 0
          0 0 0 0 0 0
          0 0 0 0 0 0
          0 0 0 0 0 0
          0 0 0 0 0 0
          0 0 0 0 0 0
          0 0 0 0 0 0
          0 0 0 0 0 0
          0 0 0 0 0 0
          0 0 0 0 0 0
          0 0 0 0 0 0
          0 0 0 0 0 0
          0 0 0 0 0 0
          0 0 0 0 0 0
          0 0 0 0 0 0
          0 0 0 0 0 0
          0 0 0 0 0 0
          0 0 0 0 0 0
          0 0 0 0 0 0
          0 0 0 0 0 0
          0 0 0 0 0 0
          0 0 0 0 0 0
          0 0 0 0 0 0
          0 0 0 0 0 0
          0 0 0 0 0 0
          0 0 0 0 0 0
          0 0 0 0 0 0
          0 0 0 0 0 0
          0 0 0 0 0 0
          0 0 0 0 0 0
          0 0 0 0 0 0
          0 0 0 0 0 0
          0 0 0 0 0 0
          0 0 0 0 0 0
          0 0 0 0 0 0
          0 0 0 0 0 0
          0 0 0 0 0 0
          0 0 0 0 0 0
          0 0 0 0 0 0
          0 0 0 0 0 0
          0 0 0 0 0 0
          0 0 0 0 0 0
          0 0 0 0 0 0
          0 0 0 0 0 0
          0 0 0 0 0 0
          0 0 0 0 0 0
          0 0 0 0 0 0
          0 0 0 0 0 0
          0 0 0 0 0 0
          0 0 0 0 0 0
          0 0 0 0 0 0
          0 0 0 0 0 0
          0 0 0 0 0 0
          0 0 0 0 0 0
          0 0 0 0 0 0
          0 0 0 0 0 0
          0 0 0 0 0 0
          0 0 0 0 0 0
          0 0 0 0 0 0
          0 0 0 0 0 0
          0 0 0 0 0 0
          0 0 0 0 0 0
          0 0 0 0 0 0
          0 0 0 0 0 0
          0 0 0 0 0 0
          0 0 0 0 0 0
          0 0 0 0 0 0
          0 0 0 0 0 0
          0 0 0 0 0 0
          0 0 0 0 0 0
          0 0 0 0 0 0
          0 0 0 0 0 0
          0 0 0 0 0 0
          0 0 0 0 0 0
          0 0 0 0 0 0
          0 0 0 0 0 0
          0 0 0 0 0 0
          0 0 0 0 0 0
          0 0 0 0 0 0
          0 0 0 0 0 0
          0 0 0 0 0 0
          0 0 0 0 0 0
          0 0 0 0 0 0
          0 0 0 0 0 0
          0 0 0 0 0 0
          0 0 0 0 0 0
          0 0 0 0 0 0
          0 0 0 0 0 0
          0 0 0 0 0 0
          0 0 0 0 0 0
          0 0 0 0 0 0
          0 0 0 0 0 0
          0 0 0 0 0 0
          0 0 0 0 0 0
          0 0 0 0 0 0
          0 0 0 0 0 0
          0 0 0 0 0 0
          0 0 0 0 0 0
          0 0 0 0 0 0
          0 0 0 0 0 0
          0 0 0 0 0 0
          0 0 0 0 0 0
          0 0 0 0 0 0
          0 0 0 0 0 0
          0 0 0 0 0 0
          0 0 0 0 0 0
          0 0 0 0 0 0
          0 0 0 0 0 0
          0 0 0 0 0 0
          0 0 0 0 0 0
          0 0 0 0 0 0
          0 0 0 0 0 0
          0 0 0 0 0 0
          0 0 0 0 0 0
          0 0 0 0 0 0
          0 0 0 0 0 0
          0 0 0 0 0 0
          0 0 0 0 0 0
          0 0 0 0 0 0
          0 0 0 0 0 0
          0 0 0 0 0 0
          0 0 0 0 0 0
          0 0 0 0 0 0
          0 0 0 0 0 0
          0 0 0 0 0 0
          0 0 0 0 0 0
          0 0 0 0 0 0
          0 0 0 0 0 0
          0 0 0 0 0 0
          0 0 0 0 0 0
          0 0 0 0 0 0
          0 0 0 0 0 0
          0 0 0 0 0 0
          0 0 0 0 0 0
          0 0 0 0 0 0
          0 0 0 0 0 0
          0 0 0 0 0 0
          0 0 0 0 0 0
          0 0 0 0 0 0
          0 0 0 0 0 0
          0 0 0 0 0 0
          0 0 0 0 0 0
          0 0 0 0 0 0
          0 0 0 0 0 0
          0 0 0 0 0 0
          0 0 0 0 0 0
          0 0 0 0 0 0
          0 0 0 0 0 0
          0 0 0 0 0 0
          0 0 0 0 0 0
          0 0 0 0 0 0
          0 0 0 0 0 0
          0 0 0 0 0 0
          0 0 0 0 0 0
          0 0 0 0 0 0
          0 0 0 0 0 0
          <InformationKey name="L2_NORM_RANGE" location="vtkDataArray" length="2">
            <Value index="0">
              0
            </Value>
            <Value index="1">
              1
            </Value>
          </InformationKey>
        </DataArray>
        <DataArray type="Float64" Name="nsi_FIXNO" NumberOfComponents="3" format="ascii" RangeMin="1.4142135623730951" RangeMax="1.4142135623730951">
          1 1 0 -1 -1 0
          -1 -1 0 -1 -1 0
          1 1 0 1 1 0
          -1 -1 0 -1 -1 0
          -1 -1 0 -1 -1 0
          -1 -1 0 -1 -1 0
          -1 -1 0 -1 -1 0
          -1 -1 0 1 1 0
          -1 -1 0 -1 -1 0
          -1 -1 0 -1 -1 0
          -1 -1 0 -1 -1 0
          -1 -1 0 -1 -1 0
          -1 -1 0 -1 -1 0
          -1 -1 0 -1 -1 0
          -1 -1 0 -1 -1 0
          -1 -1 0 -1 -1 0
          1 1 0 -1 -1 0
          -1 -1 0 -1 -1 0
          1 1 0 -1 -1 0
          -1 -1 0 -1 -1 0
          -1 -1 0 -1 -1 0
          1 1 0 -1 -1 0
          -1 -1 0 -1 -1 0
          -1 -1 0 -1 -1 0
          -1 -1 0 -1 -1 0
          -1 -1 0 -1 -1 0
          -1 -1 0 -1 -1 0
          -1 -1 0 -1 -1 0
          -1 -1 0 -1 -1 0
          -1 -1 0 -1 -1 0
          1 1 0 -1 -1 0
          -1 -1 0 -1 -1 0
          -1 -1 0 -1 -1 0
          -1 -1 0 -1 -1 0
          -1 -1 0 1 1 0
          -1 -1 0 -1 -1 0
          -1 -1 0 -1 -1 0
          -1 -1 0 -1 -1 0
          -1 -1 0 -1 -1 0
          -1 -1 0 -1 -1 0
          -1 -1 0 -1 -1 0
          -1 -1 0 -1 -1 0
          -1 -1 0 -1 -1 0
          -1 -1 0 -1 -1 0
          1 1 0 -1 -1 0
          -1 -1 0 -1 -1 0
          -1 -1 0 -1 -1 0
          -1 -1 0 -1 -1 0
          -1 -1 0 -1 -1 0
          -1 -1 0 -1 -1 0
          -1 -1 0 -1 -1 0
          -1 -1 0 -1 -1 0
          -1 -1 0 -1 -1 0
          -1 -1 0 -1 -1 0
          -1 -1 0 -1 -1 0
          -1 -1 0 -1 -1 0
          -1 -1 0 -1 -1 0
          -1 -1 0 -1 -1 0
          -1 -1 0 -1 -1 0
          -1 -1 0 -1 -1 0
          -1 -1 0 1 1 0
          -1 -1 0 -1 -1 0
          -1 -1 0 -1 -1 0
          -1 -1 0 -1 -1 0
          -1 -1 0 -1 -1 0
          -1 -1 0 -1 -1 0
          -1 -1 0 -1 -1 0
          -1 -1 0 -1 -1 0
          -1 -1 0 -1 -1 0
          -1 -1 0 -1 -1 0
          -1 -1 0 -1 -1 0
          -1 -1 0 -1 -1 0
          -1 -1 0 -1 -1 0
          -1 -1 0 -1 -1 0
          1 1 0 -1 -1 0
          -1 -1 0 -1 -1 0
          -1 -1 0 -1 -1 0
          -1 -1 0 -1 -1 0
          -1 -1 0 -1 -1 0
          -1 -1 0 1 1 0
          -1 -1 0 -1 -1 0
          1 1 0 -1 -1 0
          1 1 0 -1 -1 0
          -1 -1 0 -1 -1 0
          -1 -1 0 1 1 0
          -1 -1 0 -1 -1 0
          -1 -1 0 -1 -1 0
          1 1 0 -1 -1 0
          1 1 0 -1 -1 0
          -1 -1 0 -1 -1 0
          -1 -1 0 -1 -1 0
          -1 -1 0 -1 -1 0
          1 1 0 -1 -1 0
          -1 -1 0 1 1 0
          1 1 0 -1 -1 0
          -1 -1 0 -1 -1 0
          -1 -1 0 -1 -1 0
          -1 -1 0 1 1 0
          -1 -1 0 -1 -1 0
          -1 -1 0 -1 -1 0
          -1 -1 0 -1 -1 0
          1 1 0 1 1 0
          -1 -1 0 1 1 0
          -1 -1 0 -1 -1 0
          -1 -1 0 -1 -1 0
          1 1 0 -1 -1 0
          -1 -1 0 -1 -1 0
          -1 -1 0 -1 -1 0
          1 1 0 -1 -1 0
          -1 -1 0 -1 -1 0
          1 1 0 -1 -1 0
          -1 -1 0 1 1 0
          1 1 0 -1 -1 0
          -1 -1 0 -1 -1 0
          -1 -1 0 -1 -1 0
          -1 -1 0 -1 -1 0
          -1 -1 0 1 1 0
          1 1 0 -1 -1 0
          1 1 0 1 1 0
          -1 -1 0 -1 -1 0
          1 1 0 -1 -1 0
          -1 -1 0 -1 -1 0
          -1 -1 0 1 1 0
          -1 -1 0 -1 -1 0
          -1 -1 0 1 1 0
          -1 -1 0 1 1 0
          -1 -1 0 -1 -1 0
          -1 -1 0 -1 -1 0
          -1 -1 0 -1 -1 0
          -1 -1 0 1 1 0
          1 1 0 -1 -1 0
          1 1 0 -1 -1 0
          1 1 0 -1 -1 0
          -1 -1 0 -1 -1 0
          1 1 0 -1 -1 0
          -1 -1 0 -1 -1 0
          -1 -1 0 -1 -1 0
          1 1 0 1 1 0
          -1 -1 0 -1 -1 0
          -1 -1 0 -1 -1 0
          -1 -1 0 -1 -1 0
          1 1 0 -1 -1 0
          -1 -1 0 -1 -1 0
          1 1 0 -1 -1 0
          1 1 0 1 1 0
          -1 -1 0 -1 -1 0
          -1 -1 0 -1 -1 0
          -1 -1 0 1 1 0
          1 1 0 -1 -1 0
          -1 -1 0 -1 -1 0
          -1 -1 0 1 1 0
          -1 -1 0 1 1 0
          -1 -1 0 -1 -1 0
          1 1 0 -1 -1 0
          -1 -1 0 1 1 0
          -1 -1 0 -1 -1 0
          1 1 0 -1 -1 0
          1 1 0 -1 -1 0
          -1 -1 0 1 1 0
          -1 -1 0 -1 -1 0
          -1 -1 0 -1 -1 0
          -1 -1 0 1 1 0
          -1 -1 0 -1 -1 0
          -1 -1 0 -1 -1 0
          -1 -1 0 -1 -1 0
          1 1 0 -1 -1 0
          -1 -1 0 -1 -1 0
          -1 -1 0 -1 -1 0
          -1 -1 0 1 1 0
          -1 -1 0 -1 -1 0
          -1 -1 0 -1 -1 0
          1 1 0 -1 -1 0
          -1 -1 0 -1 -1 0
          -1 -1 0 -1 -1 0
          -1 -1 0 1 1 0
          -1 -1 0 -1 -1 0
          -1 -1 0 -1 -1 0
          -1 -1 0 -1 -1 0
          1 1 0 -1 -1 0
          -1 -1 0 -1 -1 0
          -1 -1 0 -1 -1 0
          -1 -1 0 -1 -1 0
          -1 -1 0 -1 -1 0
          1 1 0 -1 -1 0
          -1 -1 0 -1 -1 0
          -1 -1 0 -1 -1 0
          -1 -1 0 -1 -1 0
          1 1 0 -1 -1 0
          -1 -1 0 -1 -1 0
          -1 -1 0 -1 -1 0
          -1 -1 0 -1 -1 0
          -1 -1 0 -1 -1 0
          1 1 0 -1 -1 0
          -1 -1 0 -1 -1 0
          -1 -1 0 -1 -1 0
          -1 -1 0 -1 -1 0
          -1 -1 0 -1 -1 0
          1 1 0 -1 -1 0
          -1 -1 0 -1 -1 0
          1 1 0 -1 -1 0
          -1 -1 0 -1 -1 0
          -1 -1 0 -1 -1 0
          -1 -1 0 -1 -1 0
          1 1 0 -1 -1 0
          -1 -1 0 -1 -1 0
          -1 -1 0 -1 -1 0
          -1 -1 0 -1 -1 0
          1 1 0 -1 -1 0
          -1 -1 0 1 1 0
          <InformationKey name="L2_NORM_RANGE" location="vtkDataArray" length="2">
            <Value index="0">
              1.4142135624
            </Value>
            <Value index="1">
              1.4142135624
            </Value>
          </InformationKey>
        </DataArray>
        <DataArray type="Float64" Name="Velocity" NumberOfComponents="3" format="ascii" RangeMin="0" RangeMax="1.4149551642143532">
          0 0 0 0.31853894219752554 0.024336247744927826 0
          0.7322450789673677 0.10039199013643979 0 0.5148639414400592 0.03666164480149263 0
          0 0 0 1 0 0
          0.7173916949612621 0.026417839065875023 0 0.36951431050707434 0.02165211413988957 0
          0.6436891293655952 0.03802155991833542 0 0.31150832001187023 0.004815938824979301 0
          0.6663755233005689 0.028847531304850637 0 0.5618548052704313 0.03266518750892172 0
          0.7022468585501783 -0.09765424544181028 0 0.7198308524110898 0.0332492780735668 0
          0.686024689409123 0.04733083322097401 0 0 0 0
          0.5048990049325003 0.026538329255340384 0 0.7274588122001382 0.06094348143073268 0
          0.6054181146122789 -0.004529786919601268 0 0.6492204286066849 0.043837827412171924 0
          0.6608793329528504 0.057411361343130414 0 0.6875867464145511 0.06430605028407682 0
          0.42319540592749466 0.036344490709870975 0 0.3487309392178386 -0.028468174867273956 0
          0.7341135972350409 0.09902485455047216 0 0.64229805627358 0.07995483047994037 0
          0.743911711211388 0.1191120317709321 0 0.7156975755337537 0.10101583322118661 0
          0.3200946460789246 0.012120105030520807 0 0.5697342979600544 0.05022553701685439 0
          0.44457006321535425 0.0038614816939945232 0 0.6004370793056114 0.09027627225468997 0
          0 0 0 0.6204078972663513 0.08417513766755626 0
          0.7369467157064599 0.15794557465064535 0 0.7583917500978443 0.15522347113856882 0
          0 0 0 0.7801235889283232 0.19140295208648678 0
          0.6537479859924441 0.13944801466574344 0 0.32088451398913487 0.010419680548165782 0
          0.5640561365816613 0.08527066937944283 0 0.20036949037988258 0.0053766792471926774 0
          0 0 0 0.46352805921514073 0.05359730710211475 0
          0.7657528627538577 0.18326730854655984 0 0.7593863528335629 0.2264411908442525 0
          0.8289437445705147 0.24635868250338702 0 0.6804623740589643 0.21026536006810434 0
          0.5151584076469142 0.097851964678096 0 0.8147457456430751 0.2844502898736131 0
          0.3055675543865703 0.02655618942428911 0 0.4601323393848411 0.024743988430660415 0
          0.7946486504866612 0.1534541465264409 0 0.8780632196575541 0.2759674254739895 0
          0.5543205659037886 0.16816244848251602 0 0.6937895640357047 0.2912513432858998 0
          0.8724767234806218 0.3427764953491155 0 0.34495754541164036 0.04969581853381677 0
          0.8015697031470399 0.3705561534191799 0 0.5905767669877868 0.2546025938783483 0
          0 0 0 0.9499152620550848 0.3640178106101451 0
          0.7083720321576942 0.3726814746603403 0 0.18239328635009877 0.011488951462951232 0
          0.9836904936664128 0.23749642108876473 0 0.3667923587659927 0.09361878552968725 0
          0.45545699611273266 0.19079525009989756 0 0.8758454124843437 0.42352083974834703 0
          0.592858610261663 0.3324316145167422 0 0 0 0
          0.7471962292810259 0.10285403089651474 0 0.46811380236634303 0.2666750932534091 0
          0.7448650832049473 0.4625768703820869 0 1.054480684023604 0.358757817522426 0
          0.9664550444587532 0.46242092307982463 0 0.32276393766676736 0.12563487050639915 0
          0.21016268000521815 0.03644197155075579 0 0.5679084928686078 0.4111848896027177 0
          0.8521535370268771 0.511841319172084 0 1.1167259373616947 0.28665489596744326 0
          0.4646209184765296 0.3410621233223781 0 0.7282846530872382 0.5125460059918486 0
          0.33868214524767115 0.18886727870382583 0 0.24026781936398509 0.06439839876115311 0
          1.0347808726591585 0.19349950642889321 0 0.6090884791872615 0.4940886963968344 0
          0.9625726495732437 0.5222202778146968 0 0.3403158749221499 0.2587939818676023 0
          0 0 0 0.8325417950554909 0.0845572648904397 0
          1.1909306531284702 0.38263494343015936 0 0.7910336340322822 0.5628519293040011 0
          0.43868481766945805 0.4196708414582713 0 0.6422145935351699 0.5522641461587631 0
          1.2244673263425796 0.27643090134011156 0 0.22885373522232352 0.1191523127923216 0
          0.31236062232397926 0.30555246181871876 0 0.11946301565729095 0.0162368450740343 0
          0.24032080876084874 0.18282653360928125 0 0.47734877519583235 0.011008852762836167 0
          0.9336995080768167 0.5627078299146628 0 0.42237463890161786 0.47688416294223435 0
          1.1485630813292311 0.4720465865768553 0 0.2435017536772588 0.24489877061549092 0
          0.6972455873728304 0.5858418435768115 0 0.2785196386015203 0.34547974664564113 0
          1.1688833373932985 0.14240884229751638 0 1.2947063041819202 0.33127546199904184 0
          0.1371213805747506 0.04364363037960874 0 0.5220155696660952 0.5569149618445234 0
          0.8063990207258322 0.5702843732343168 0 0.20080573018060172 0.26638272217183845 0
          0.32559054860912057 0.4538132043084371 0 1.0820295361906 0.4852035930211022 0
          0.9178730645834069 0.029105964449211652 0 0.13280958380288396 0.07050625609316581 0
          0.557301305477626 0.5568564358066501 0 0.21657293065374625 0.3462377862923516 0
          1.271080964737548 0.35810210755818295 0 1.3480497132212133 0.19616085076554535 0
          0.13885926201882667 0.12261376287079405 0 0 0 0
          0.15105261102990664 0.19071726408055292 0 0.32684498989695226 0.47977198941291227 0
          1.3562890697110008 0.2598366844788333 0 0.16721333489320048 0.2778374625853297 0
          0.05760534554114479 0.008105083687947368 0 0.6567891931130582 0.5066335792355561 0
          0.1555200420875324 0.3268332279995154 0 0.9883967469924069 0.42345401928213605 0
          0.36409427525266735 0.454987765564997 0 0.10912125507051526 0.1947872370795175 0
          1.181089059072519 0.34002692048163813 0 0.07620003464779922 0.030515637315129688 0
          0.10070472465601861 0.12777461528093922 0 1.2501579189646375 0.05992787648348443 0
          1.3158591092253613 0.25618308682009205 0 0.16270949288879502 0.342188667358113 0
          0.0835337182153165 0.18930652356698952 0 1.402696872209741 0.15676395679735597 0
          0.4293532679947806 0.3579290677351093 0 0.08401707760892559 0.09332407110608816 0
          0.07391890767858664 0.23970014869112452 0 0.06859676839452303 0.04305286282062258 0
          0.7665911692869692 0.30828863015237995 0 0.07680695858551435 0.12632129380261214 0
          0.06777675240160896 0.2046823626687613 0 0.07089351233555556 0.20628876261498139 0
          0 0 0 0.08467666028772623 0.2162191930802308 0
          0.9965252882923656 0.25483778444440297 0 1.4000858241791334 0.08349791002032336 0
          1.1958278423480415 0.2124375215408042 0 0.04104625580211416 0.15413041789835413 0
          0.05725268601328088 0.05563593716548376 0 0.04648967005334587 0.11799091435201935 0
          0.9257080063153835 0.007851426497116553 0 0.03213715799921799 0.13597352283365888 0
          0.0216256789058446 0.12056166968840898 0 0 0 0
          0.05306430811100996 0.08334254788756942 0 0.402459097976754 0.07078660263717027 0
          0 0 0 0.7078846376632512 0.11327902112979232 0
          0 0 0 0.017526871181055476 0.09122253903960272 0
          0.028949932028835435 0.10547915150257647 0 0.037431447273827634 0.013410831415676646 0
          1.32993392738223 0.07349955295041287 0 0 0 0
          0.011051424530641554 0.06748406530804534 0 0.04010005435437175 0.05392106190083939 0
          0.9292010199997492 0.077290868554982 0 0.0316563269805453 0.07289575938349085 0
          0 0 0 0.018412364893032038 0.0747141516617873 0
          0 0 0 1.4148644370083265 0.016023159051146152 0
          0.35506650273769136 0.028138672254881158 0 0.00659999423627061 0.05424798829955981 0
          1.1313753250192522 0.03263352152969688 0 0.017768581098598083 0.06512891270705945 0
          0.6750977695264991 0.04067014858961779 0 0.03034552418530359 0.021599846290979965 0
          0 0 0 0.006784221197725257 0.042052542089006245 0
          1.406662301636667 -0.021023667584830423 0 0 0 0
          0 0 0 0.013275587036177126 0.045020006234765805 0
          0.023657276294943044 0.024949604410624236 0 0.004780423194182638 0.033523491210939504 0
          0.018198036179028026 0.03848523264816475 0 0.3359815743751332 0.00042854658665116403 0
          0.012282727437411909 0.0381678368066964 0 0 0 0
          1.254950713309832 -0.041118500857368886 0 0.6599828969428235 -0.02107827971462406 0
          0.9414097156557056 -0.05122966887589292 0 0.0043091893427513435 0.025611427287112038 0
          1.1538332973041514 -0.08759331140849086 0 0.01634072737661079 0.005575501613300633 0
          0 0 0 0 0 0
          0.013869851941287982 0.022073022403654656 0 0 0 0
          1.3146476075730495 -0.1061741600889011 0 0.00785513014113899 0.024755012261788972 0
          0.0036028948857218797 0.019303776537285152 0 0.3415494444969622 -0.02574876007011924 0
          0 0 0 1.393305739962534 -0.11513082143007232 0
          0.007452779359355643 0.018979730903857985 0 0.673591990985653 -0.11858943525639103 0
          0.010978908884120814 0.009463077854743727 0 0.002816435481602364 0.013736589117919395 0
          0 0 0 0.9256840584080686 -0.1618225542836234 0
          0.004649077470723197 0.014387668117628932 0 1.3755946787008182 -0.11521795874819798 0
          0 0 0 0.0024417144604223164 0.009844531559195712 0
          1.129080736183264 -0.18714870247777157 0 0 0 0
          0 0 0 0.3889250139032073 -0.16609571114314436 0
          0.005877643213521144 0.007509188817810572 0 0.004579473633420319 0.009260363158079718 0
          0.946129673382562 -0.044931006002722366 0 0.0014332809881925906 0.0063909121402427466 0
          1.280069721840178 -0.19513708664102272 0 1.2124574177471146 -0.08914232644027908 0
          0.00583273055876828 0.001957031153917823 0 0 0 0
          0 0 0 0.6682272208279117 -0.22930153206915718 0
          0 0 0 0 0 0
          0.0008477292167510558 0.004367227372201908 0 0.045658412103193005 -0.07161030921210498 0
          0 0 0 0.0025528409432983364 0.005079402077690806 0
          1.3573755995682095 -0.19563966102066283 0 0.897539254361514 -0.2603095107616379 0
          0.0032181953726761023 0.002443373178973391 0 0 0 0
          0.025716617871497014 -0.031101047224807457 0 0.000987659005980907 0.0024662576215297516 0
          0.0021549475294239226 0.0030048818977435133 0 0 0 0
          0.014760460814696489 -0.006146241491530527 0 0 0 0
          0.3076511666583017 -0.2029416299868282 0 1.3249941674411634 -0.17028381039632484 0
          0.0009555932984622444 0.0016752735642373419 0 1.0563786043241519 -0.2911191532966703 0
          0.006167857605673537 0.010758083978660207 0 0.0018005362690377347 0.00042509237911297286 0
          0.0007269029824043075 0.0013268213835732048 0 0 0 0
          0 0 0 0.10089262458215972 -0.10239667404892051 0
          0 0 0 0.002078842900986228 0.016212632084238746 0
          0 0 0 1.2266906260232384 -0.2820059864124755 0
          0.06357879544015285 -0.053699315394709936 0 0.000945816341054147 0.0006707074775743 0
          0 0 0 0.0003257285992491797 0.00042432801049838154 0
          0.25645880390993425 -0.007541842759516693 0 0.5361549951528085 -0.2739397208626328 0
          0.0012013503923386437 0.019360367980102187 0 1.1657935286657448 -0.1390153439013721 0
          0 0 0 0 0 0
          0.0009414238085262903 0.02046855525572212 0 0.0001803026814263931 0.00011703808472075695 0
          0.28834555791280186 -0.20348588467561274 0 0.016557319495048874 0.00031810928700229797 0
          0.05144969827795027 -0.03287900725680397 0 0.7695880294366152 -0.31679772098369735 0
          0 0 0 1.2925399704406058 -0.2537727839487199 0
          0.13770904788028146 -0.11234820105048515 0 7.560470362184074e-7 0.021456717576954793 0
          0 0 0 0.010017567533691795 0.014844878642729448 0
          0 0 0 0 0 0
          0.004252926677041606 0.02370590835665639 0 0.00009547778664957594 -0.00015459628220896172 0
          -0.0006355297553380884 0.020853252677759383 0 0.003709965897352795 0.02828672140706643 0
          0.7974315227242208 -0.08994734210058694 0 0 0 0
          0 0 0 0.47794991647619794 -0.27341639717295746 0
          -0.0005490653470510233 0.020004485771324833 0 0.9387156799277037 -0.3333080542433384 0
          1.2501354728268343 -0.22151206667635992 0 0 0 0
          0.03350115562086409 -0.007019688531614106 0 0 0 0
          0.3045013625083992 -0.20671336765112655 0 -0.0003034255094207186 0.03276691198496516 0
          0 0 0 -0.0008958982173298688 0.01861482781508894 0
          0.01240568310017814 0.025304860092246646 0 0 0 0
          -0.0008511579101726049 0.0336296687971417 0 0.15699755965194642 -0.11095059587141347 0
          0 0 0 -0.001203869606032372 0.016891406163941598 0
          0 0 0 -0.0020361962727564846 0.030257535327049133 0
          0.6569055549942623 -0.3166040933617242 0 0 0 0
          -0.00147855121855092 0.014436280429771535 0 -0.0027368968398416276 0.028191771026782532 0
          1.09636082999349 -0.16015812163825605 0 0.4658703317721748 -0.26614397786095745 0
          0.002837861053534266 0.03567114820411823 0 0 0 0
          -0.0016704034726834586 0.011803276665974912 0 1.2163737633918288 -0.2972408276076929 0
          0.04991033174430352 -0.0135498358693608 0 -0.0049221319078389565 0.027077951102265373 0
          1.0437630426250988 -0.35458370346918 0 0.297606224381062 -0.19219031904192296 0
          0 0 0 -0.001447150822824779 0.009300429413506532 0
          -0.0045325621601724235 0.037224481020845135 0 0.1340431408849861 -0.08622588863619099 0
          -0.005403276605449304 0.022909808208339943 0 0.027391874428620806 0.009544050393842377 0
          0.8177142869445123 -0.34779578916303 0 0 0 0
          -0.0013813159468304861 0.006792535987716573 0 -0.004769507464074196 0.017489706963408905 0
          0.6251225899489021 -0.30430319235091935 0 0.7160210112598034 -0.08082360078696467 0
          0 0 0 -0.0013548882471265372 0.004466322373424683 0
          -0.01088800599173377 0.030045833871933176 0 -0.0051402011222894785 0.014307771113717718 0
          0.003426269457776829 0.02918402921502181 0 0.4517979575358341 -0.24818504834419713 0
          0.07224095259499155 -0.03900653495262682 0 0 0 0
          -0.001159534061330193 0.002353392092756289 0 1.112767683524034 -0.34564449754596915 0
          -0.0048163663248727085 0.01017174474535804 0 -0.011213900006409627 0.022899061339199923 0
          0.295567717868568 -0.18021581410519402 0 1.161309901010496 -0.2902173968287867 0
          0 0 0 0.9582734297240946 -0.35099163043648746 0
          -0.004378192357609495 0.006657832588265456 0 -0.00046945508502943534 0.0005842747315464622 0
          0.04077316418053144 -0.006738651310096113 0 -0.010727602996050151 0.015621650289279556 0
          0.15105217966907725 -0.09840183273097365 0 -0.0031865487037665394 0.0034650678176648833 0
          0.6737425819138833 -0.3065605459998748 0 -0.013335990979230395 0.02302984075478822 0
          0 0 0 1.0246645245770063 -0.2031287165035085 0
          0.32351699258174155 -0.01753716460695981 0 -0.008242857988222795 0.007339290603907126 0
          -0.019273827519217197 0.020621570895775772 0 -0.017112499072538763 0.01697474877040259 0
          0.0975396070474385 -0.05740732424422484 0 0.4245469890249039 -0.23554325901831227 0
          0 0 0 -0.00371497649453077 0.001703734081865551 0
          1.0509205338675465 -0.31384169007232543 0 -0.0024226998643827966 -0.00555311950583826 0
          -0.01619652448529508 0.009225963309309259 0 -0.020716329439582817 0.008531803479168282 0
          0.8266166863534816 -0.3161920325886529 0 0.19616976515377182 -0.1307321889788481 0
          0.5647990509428465 -0.07276768565492862 0 -0.023863050932537638 0.01058457382384297 0
          0 0 0 -0.009519350912629369 0.002656515719718607 0
          0.5638429947773468 -0.2747959412017692 0 1.1020760832537249 -0.26159909008839527 0
          0.041473618524819636 -0.05093444830182204 0 0.3405585549759497 -0.20679796500490344 0
          -0.008550465935487543 -0.016007713779234583 0 -0.023120001050881547 -0.0013484188515009072 0
          -0.01675168635502615 0.002252209060903484 0 0.9859834938832203 -0.3056862365730321 0
          0 0 0 -0.022697127023753805 0.003128206673169038 0
          0.7486543719976124 -0.32186019784802555 0 0.4824820995139085 -0.2703947788768096 0
          0 0 0 0.1242556637844163 -0.11639213060333378 0
          0.024557945807684056 -0.05471555477551019 0 0.9877763288974272 -0.09150652567003585 0
          -0.008624789769337253 -0.02472926193510385 0 -0.016526193938179723 0.0010828852808301523 0
          -0.018612304363130876 -0.007003371993226587 0 0.26956195602109695 -0.2093567030136932 0
          0 0 0 1.0034485604723424 -0.3733664624261874 0
          -0.01363202761883952 -0.00004333296133702123 0 0.09118213678313555 -0.12620875452140365 0
          0.02016045098062745 -0.05541958657843157 0 0.5610504766369344 -0.4108206228484853 0
          -0.0022170655107177865 -0.01642044662235757 0 0.2341138759002088 -0.27961461444382657 0
          0 0 0 0.02384655025977729 -0.03542823691200256 0
          0.08760398040876567 -0.10852449738967991 0 0 0 0
          <InformationKey name="L2_NORM_RANGE" location="vtkDataArray" length="2">
            <Value index="0">
              0
            </Value>
            <Value index="1">
              1.4149551642
            </Value>
          </InformationKey>
        </DataArray>
        <DataArray type="Float64" Name="Pressure" format="ascii" RangeMin="-8.309119322209655" RangeMax="36.93260794806792">
          36.27217751107097 36.43018740827468 36.75674748042027 36.2069721417299 36.024196326336295 36.79844958710166
          36.06978469436173 35.5175172147495 35.37801240500845 34.61364988233856 36.12094576625979 34.400883906016055
          36.93260794806792 35.329047758095946 34.41144909008457 33.611039864512755 33.4599949144352 34.522817560930164
          36.507260931897214 35.563297307887545 33.32577372215333 34.78024573184924 32.397146531879116 36.89767940250599
          33.52386498105477 32.23297470888258 32.35145179320327 33.95020943009863 31.472020034163418 34.94858959147585
          35.92308324609409 30.91736448590476 36.717927057170144 34.21937495006895 33.1181462041074 31.19951818269203
          30.39214098331227 31.61384694741816 33.57036579147712 35.20528086963455 29.543438056701063 35.61586927433097
          36.738573470879075 34.38511193861323 29.70594766870265 32.18424626377855 30.19795294163646 32.852880207089406
          33.89492701318377 30.82265661298013 34.49984195020459 27.592242979506487 27.91907356558761 28.565122902193654
          33.45220854289625 32.12931988293736 29.404459183380002 34.022143257888544 30.283724715789848 32.83855006287267
          34.729902501632154 27.57883029092502 31.235748322823067 34.109362821515404 25.911014803611337 33.79714312914197