<?xml version="1.0"?>
<VTKFile type="UnstructuredGrid" version="0.1" byte_order="LittleEndian" header_type="UInt32" compressor="vtkZLibDataCompressor">
  <UnstructuredGrid>
    <Piece NumberOfPoints="418" NumberOfCells="757">
      <PointData>
        <DataArray type="Float64" Name="nsi_BC" NumberOfComponents="3" format="ascii" RangeMin="0" RangeMax="1">
          0 0 0 0 0 0
          0 0 0 0 0 0
          0 0 0 1 0 0
          0 0 0 0 0 0
          0 0 0 0 0 0
          0 0 0 0 0 0
          0 0 0 0 0 0
          0 0 0 0 0 0
          0 0 0 0 0 0
          0 0 0 0 0 0
          0 0 0 0 0 0
          0 0 0 0 0 0
          0 0 0 0 0 0
          0 0 0 0 0 0
          0 0 0 0 0 0
          0 0 0 0 0 0
          0 0 0 0 0 0
          0 0 0 0 0 0
          0 0 0 0 0 0
          0 0 0 0 0 0
          0 0 0 0 0 0
          0 0 0 0 0 0
          0 0 0 0 0 0
          0 0 0 0 0 0
          0 0 0 0 0 0
          0 0 0 0 0 0
          0 0 0 0 0 0
          0 0 0 0 0 0
          0 0 0 0 0 0
          0 0 0 0 0 0
          0 0 0 0 0 0
          0 0 0 0 0 0
          0 0 0 0 0 0
          0 0 0 0 0 0
          0 0 0 0 0 0
          0 0 0 0 0 0
          0 0 0 0 0 0
          0 0 0 0 0 0
          0 0 0 0 0 0
          0 0 0 0 0 0
          0 0 0 0 0 0
          0 0 0 0 0 0
          0 0 0 0 0 0
          0 0 0 0 0 0
          0 0 0 0 0 0
          0 0 0 0 0 0
          0 0 0 0 0 0
          0 0 0 0 0 0
          0 0 0 0 0 0
          0 0 0 0 0 0
          0 0 0 0 0 0
          0 0 0 0 0 0
          0 0 0 0 0 0
          0 0 0 0 0 0
          0 0 0 0 0 0
          0 0 0 0 0 0
          0 0 0 0 0 0
          0 0 0 0 0 0
          0 0 0 0 0 0
          0 0 0 0 0 0
          0 0 0 0 0 0
          0 0 0 0 0 0
          0 0 0 0 0 0
          0 0 0 0 0 0
          0 0 0 0 0 0
          0 0 0 0 0 0
          0 0 0 0 0 0
          0 0 0 0 0 0
          0 0 0 0 0 0
          0 0 0 0 0 0
          0 0 0 0 0 0
          0 0 0 0 0 0
          0 0 0 0 0 0
          0 0 0 0 0 0
          0 0 0 0 0 0
          0 0 0 0 0 0
          0 0 0 0 0 0
          0 0 0 0 0 0
          0 0 0 0 0 0
          0 0 0 0 0 0
          0 0 0 0 0 0
          0 0 0 0 0 0
          0 0 0 0 0 0
          0 0 0 0 0 0
          0 0 0 0 0 0
          0 0 0 0 0 0
          0 0 0 0 0 0
          0 0 0 0 0 0
          0 0 0 0 0 0
          0 0 0 0 0 0
          0 0 0 0 0 0
          0 0 0 0 0 0
          0 0 0 0 0 0
          0 0 0 0 0 0
          0 0 0 0 0 0
          0 0 0 0 0 0
          0 0 0 0 0 0
          0 0 0 0 0 0
          0 0 0 0 0 0
          0 0 0 0 0 0
          0 0 0 0 0 0
          0 0 0 0 0 0
          0 0 0 0 0 0
          0 0 0 0 0 0
          0 0 0 0 0 0
          0 0 0 0 0 0
          0 0 0 0 0 0
          0 0 0 0 0 0
          0 0 0 0 0 0
          0 0 0 0 0 0
          0 0 0 0 0 0
          0 0 0 0 0 0
          0 0 0 0 0 0
          0 0 0 0 0 0
          0 0 0 0 0 0
          0 0 0 0 0 0
          0 0 0 0 0 0
          0 0 0 0 0 0
          0 0 0 0 0 0
          0 0 0 0 0 0
          0 0 0 0 0 0
          0 0 0 0 0 0
          0 0 0 0 0 0
          0 0 0 0 0 0
          0 0 0 0 0 0
          0 0 0 0 0 0
          0 0 0 0 0 0
          0 0 0 0 0 0
          0 0 0 0 0 0
          0 0 0 0 0 0
          0 0 0 0 0 0
          0 0 0 0 0 0
          0 0 0 0 0 0
          0 0 0 0 0 0
          0 0 0 0 0 0
          0 0 0 0 0 0
          0 0 0 0 0 0
          0 0 0 0 0 0
          0 0 0 0 0 0
          0 0 0 0 0 0
          0 0 0 0 0 0
          0 0 0 0 0 0
          0 0 0 0 0 0
          0 0 0 0 0 0
          0 0 0 0 0 0
          0 0 0 0 0 0
          0 0 0 0 0 0
          0 0 0 0 0 0
          0 0 0 0 0 0
          0 0 0 0 0 0
          0 0 0 0 0 0
          0 0 0 0 0 0
          0 0 0 0 0 0
          0 0 0 0 0 0
          0 0 0 0 0 0
          0 0 0 0 0 0
          0 0 0 0 0 0
          0 0 0 0 0 0
          0 0 0 0 0 0
          0 0 0 0 0 0
          0 0 0 0 0 0
          0 0 0 0 0 0
          0 0 0 0 0 0
          0 0 0 0 0 0
          0 0 0 0 0 0
          0 0 0 0 0 0
          0 0 0 0 0 0
          0 0 0 0 0 0
          0 0 0 0 0 0
          0 0 0 0 0 0
          0 0 0 0 0 0
          0 0 0 0 0 0
          0 0 0 0 0 0
          0 0 0 0 0 0
          0 0 0 0 0 0
          0 0 0 0 0 0
          0 0 0 0 0 0
          0 0 0 0 0 0
          0 0 0 0 0 0
          0 0 0 0 0 0
          0 0 0 0 0 0
          0 0 0 0 0 0
          0 0 0 0 0 0
          0 0 0 0 0 0
          0 0 0 0 0 0
          0 0 0 0 0 0
          0 0 0 0 0 0
          0 0 0 0 0 0
          0 0 0 0 0 0
          0 0 0 0 0 0
          0 0 0 0 0 0
          0 0 0 0 0 0
          0 0 0 0 0 0
          0 0 0 0 0 0
          0 0 0 0 0 0
          0 0 0 0 0 0
          0 0 0 0 0 0
          0 0 0 0 0 0
          0 0 0 0 0 0
          0 0 0 0 0 0
          0 0 0 0 0 0
          0 0 0 0 0 0
          0 0 0 0 0 0
          0 0 0 0 0 0
          0 0 0 0 0 0
          0 0 0 0 0 0
          0 0 0 0 0 0
          0 0 0 0 0 0
          0 0 0 0 0 0
          <InformationKey name="L2_NORM_RANGE" location="vtkDataArray" length="2">
            <Value index="0">
              0
            </Value>
            <Value index="1">
              1
            </Value>
          </InformationKey>
        </DataArray>
        <DataArray type="Float64" Name="nsi_FIXNO" NumberOfComponents="3" format="ascii" RangeMin="1.4142135623730951" RangeMax="1.4142135623730951">
          1 1 0 -1 -1 0
          -1 -1 0 -1 -1 0
          1 1 0 1 1 0
          -1 -1 0 -1 -1 0
          -1 -1 0 -1 -1 0
          -1 -1 0 -1 -1 0
          -1 -1 0 -1 -1 0
          -1 -1 0 1 1 0
          -1 -1 0 -1 -1 0
          -1 -1 0 -1 -1 0
          -1 -1 0 -1 -1 0
          -1 -1 0 -1 -1 0
          -1 -1 0 -1 -1 0
          -1 -1 0 -1 -1 0
          -1 -1 0 -1 -1 0
          -1 -1 0 -1 -1 0
          1 1 0 -1 -1 0
          -1 -1 0 -1 -1 0
          1 1 0 -1 -1 0
          -1 -1 0 -1 -1 0
          -1 -1 0 -1 -1 0
          1 1 0 -1 -1 0
          -1 -1 0 -1 -1 0
          -1 -1 0 -1 -1 0
          -1 -1 0 -1 -1 0
          -1 -1 0 -1 -1 0
          -1 -1 0 -1 -1 0
          -1 -1 0 -1 -1 0
          -1 -1 0 -1 -1 0
          -1 -1 0 -1 -1 0
          1 1 0 -1 -1 0
          -1 -1 0 -1 -1 0
          -1 -1 0 -1 -1 0
          -1 -1 0 -1 -1 0
          -1 -1 0 1 1 0
          -1 -1 0 -1 -1 0
          -1 -1 0 -1 -1 0
          -1 -1 0 -1 -1 0
          -1 -1 0 -1 -1 0
          -1 -1 0 -1 -1 0
          -1 -1 0 -1 -1 0
          -1 -1 0 -1 -1 0
          -1 -1 0 -1 -1 0
          -1 -1 0 -1 -1 0
          1 1 0 -1 -1 0
          -1 -1 0 -1 -1 0
          -1 -1 0 -1 -1 0
          -1 -1 0 -1 -1 0
          -1 -1 0 -1 -1 0
          -1 -1 0 -1 -1 0
          -1 -1 0 -1 -1 0
          -1 -1 0 -1 -1 0
          -1 -1 0 -1 -1 0
          -1 -1 0 -1 -1 0
          -1 -1 0 -1 -1 0
          -1 -1 0 -1 -1 0
          -1 -1 0 -1 -1 0
          -1 -1 0 -1 -1 0
          -1 -1 0 -1 -1 0
          -1 -1 0 -1 -1 0
          -1 -1 0 1 1 0
          -1 -1 0 -1 -1 0
          -1 -1 0 -1 -1 0
          -1 -1 0 -1 -1 0
          -1 -1 0 -1 -1 0
          -1 -1 0 -1 -1 0
          -1 -1 0 -1 -1 0
          -1 -1 0 -1 -1 0
          -1 -1 0 -1 -1 0
          -1 -1 0 -1 -1 0
          -1 -1 0 -1 -1 0
          -1 -1 0 -1 -1 0
          -1 -1 0 -1 -1 0
          -1 -1 0 -1 -1 0
          1 1 0 -1 -1 0
          -1 -1 0 -1 -1 0
          -1 -1 0 -1 -1 0
          -1 -1 0 -1 -1 0
          -1 -1 0 -1 -1 0
          -1 -1 0 1 1 0
          -1 -1 0 -1 -1 0
          1 1 0 -1 -1 0
          1 1 0 -1 -1 0
          -1 -1 0 -1 -1 0
          -1 -1 0 1 1 0
          -1 -1 0 -1 -1 0
          -1 -1 0 -1 -1 0
          1 1 0 -1 -1 0
          1 1 0 -1 -1 0
          -1 -1 0 -1 -1 0
          -1 -1 0 -1 -1 0
          -1 -1 0 -1 -1 0
          1 1 0 -1 -1 0
          -1 -1 0 1 1 0
          1 1 0 -1 -1 0
          -1 -1 0 -1 -1 0
          -1 -1 0 -1 -1 0
          -1 -1 0 1 1 0
          -1 -1 0 -1 -1 0
          -1 -1 0 -1 -1 0
          -1 -1 0 -1 -1 0
          1 1 0 1 1 0
          -1 -1 0 1 1 0
          -1 -1 0 -1 -1 0
          -1 -1 0 -1 -1 0
          1 1 0 -1 -1 0
          -1 -1 0 -1 -1 0
          -1 -1 0 -1 -1 0
          1 1 0 -1 -1 0
          -1 -1 0 -1 -1 0
          1 1 0 -1 -1 0
          -1 -1 0 1 1 0
          1 1 0 -1 -1 0
          -1 -1 0 -1 -1 0
          -1 -1 0 -1 -1 0
          -1 -1 0 -1 -1 0
          -1 -1 0 1 1 0
          1 1 0 -1 -1 0
          1 1 0 1 1 0
          -1 -1 0 -1 -1 0
          1 1 0 -1 -1 0
          -1 -1 0 -1 -1 0
          -1 -1 0 1 1 0
          -1 -1 0 -1 -1 0
          -1 -1 0 1 1 0
          -1 -1 0 1 1 0
          -1 -1 0 -1 -1 0
          -1 -1 0 -1 -1 0
          -1 -1 0 -1 -1 0
          -1 -1 0 1 1 0
          1 1 0 -1 -1 0
          1 1 0 -1 -1 0
          1 1 0 -1 -1 0
          -1 -1 0 -1 -1 0
          1 1 0 -1 -1 0
          -1 -1 0 -1 -1 0
          -1 -1 0 -1 -1 0
          1 1 0 1 1 0
          -1 -1 0 -1 -1 0
          -1 -1 0 -1 -1 0
          -1 -1 0 -1 -1 0
          1 1 0 -1 -1 0
          -1 -1 0 -1 -1 0
          1 1 0 -1 -1 0
          1 1 0 1 1 0
          -1 -1 0 -1 -1 0
          -1 -1 0 -1 -1 0
          -1 -1 0 1 1 0
          1 1 0 -1 -1 0
          -1 -1 0 -1 -1 0
          -1 -1 0 1 1 0
          -1 -1 0 1 1 0
          -1 -1 0 -1 -1 0
          1 1 0 -1 -1 0
          -1 -1 0 1 1 0
          -1 -1 0 -1 -1 0
          1 1 0 -1 -1 0
          1 1 0 -1 -1 0
          -1 -1 0 1 1 0
          -1 -1 0 -1 -1 0
          -1 -1 0 -1 -1 0
          -1 -1 0 1 1 0
          -1 -1 0 -1 -1 0
          -1 -1 0 -1 -1 0
          -1 -1 0 -1 -1 0
          1 1 0 -1 -1 0
          -1 -1 0 -1 -1 0
          -1 -1 0 -1 -1 0
          -1 -1 0 1 1 0
          -1 -1 0 -1 -1 0
          -1 -1 0 -1 -1 0
          1 1 0 -1 -1 0
          -1 -1 0 -1 -1 0
          -1 -1 0 -1 -1 0
          -1 -1 0 1 1 0
          -1 -1 0 -1 -1 0
          -1 -1 0 -1 -1 0
          -1 -1 0 -1 -1 0
          1 1 0 -1 -1 0
          -1 -1 0 -1 -1 0
          -1 -1 0 -1 -1 0
          -1 -1 0 -1 -1 0
          -1 -1 0 -1 -1 0
          1 1 0 -1 -1 0
          -1 -1 0 -1 -1 0
          -1 -1 0 -1 -1 0
          -1 -1 0 -1 -1 0
          1 1 0 -1 -1 0
          -1 -1 0 -1 -1 0
          -1 -1 0 -1 -1 0
          -1 -1 0 -1 -1 0
          -1 -1 0 -1 -1 0
          1 1 0 -1 -1 0
          -1 -1 0 -1 -1 0
          -1 -1 0 -1 -1 0
          -1 -1 0 -1 -1 0
          -1 -1 0 -1 -1 0
          1 1 0 -1 -1 0
          -1 -1 0 -1 -1 0
          1 1 0 -1 -1 0
          -1 -1 0 -1 -1 0
          -1 -1 0 -1 -1 0
          -1 -1 0 -1 -1 0
          1 1 0 -1 -1 0
          -1 -1 0 -1 -1 0
          -1 -1 0 -1 -1 0
          -1 -1 0 -1 -1 0
          1 1 0 -1 -1 0
          -1 -1 0 1 1 0
          <InformationKey name="L2_NORM_RANGE" location="vtkDataArray" length="2">
            <Value index="0">
              1.4142135624
            </Value>
            <Value index="1">
              1.4142135624
            </Value>
          </InformationKey>
        </DataArray>
        <DataArray type="Float64" Name="Velocity" NumberOfComponents="3" format="ascii" RangeMin="0" RangeMax="1.4147692031768002">
          0 0 0 0.3185289166654601 0.024331945168054495 0
          0.7322699847250161 0.10036028755172327 0 0.5148181345047486 0.03660705739493287 0
          0 0 0 0.9999999999999999 0 0
          0.7174415091778564 0.02629766502732426 0 0.36939228652043454 0.02158470016648752 0
          0.643558540882533 0.03781793297045453 0 0.3113278751133966 0.004800862757474983 0
          0.6664327284932243 0.02877875109054033 0 0.5615287783025329 0.0325392728611734 0
          0.7022524302191742 -0.09762298385277735 0 0.7198663753619818 0.03279764812905356 0
          0.6856694694365567 0.04692528451894217 0 0 0 0
          0.5045040712594873 0.026501048781381098 0 0.7271387735058962 0.06015534340165391 0
          0.6054013872901739 -0.004571122800240593 0 0.6493119408530565 0.04342417075535126 0
          0.6601716081873431 0.05718371105061463 0 0.6875919466110278 0.06320105706996396 0
          0.42287218256447945 0.03636147576414791 0 0.348706417239892 -0.028464143419235106 0
          0.7332176238388398 0.09824996599408742 0 0.6415113793005544 0.07990443772148144 0
          0.7426267548386969 0.1188137565239516 0 0.7151603774407803 0.09972267747991154 0
          0.3199259825594703 0.012136084019262505 0 0.5700467211736915 0.049210063995018406 0
          0.44463205905817044 0.003618903898991566 0 0.5998718225818218 0.09036869236968005 0
          0 0 0 0.6206749501128204 0.08274187409245203 0
          0.7357528629574986 0.15698155900553099 0 0.7571002864382894 0.15523219868505733 0
          0 0 0 0.778444632812441 0.19128067311789954 0
          0.6534783970041724 0.13823977185779715 0 0.3213058815164535 0.010102837866125402 0
          0.5638077160342477 0.08540405530910807 0 0.2004875659379885 0.005327640034725402 0
          0 0 0 0.464462994640262 0.05253167974919691 0
          0.7647626063567937 0.1834906512750799 0 0.7578194260190882 0.22608709319770715 0
          0.827305889863283 0.24660577551965845 0 0.6795261144869311 0.20974644650721033 0
          0.516158980184418 0.09675163125441866 0 0.8128599225390389 0.284687810663324 0
          0.30658742146407447 0.02601643676054061 0 0.4601682775846816 0.024784240411213805 0
          0.7941446804251642 0.15369468373806752 0 0.8767662741517972 0.27641542402000546 0
          0.5547439240763199 0.16761396901759976 0 0.6925349896374839 0.29154951019740427 0
          0.8707237780021168 0.3433918174220616 0 0.34666059781125425 0.049136974283039724 0
          0.7998172419041509 0.3713261489764576 0 0.5902130831163528 0.25486585429740305 0
          0 0 0 0.9485175154141351 0.36473840942601327 0
          0.7070712113832418 0.37365227325605826 0 0.18351088316672234 0.011329260564000911 0
          0.9831540691572506 0.23788600855806566 0 0.36873514274372704 0.09330870866642209 0
          0.45640455577263445 0.1911049796531668 0 0.8742569447721926 0.4245432355199805 0
          0.5921475050075435 0.333490495606653 0 0 0 0
          0.7473730940702027 0.1029784782850503 0 0.4684288372404864 0.2677086394306325 0
          0.7435019677385268 0.46394483814599624 0 1.0535579723830115 0.359418561507339 0
          0.9651839211018052 0.4634327366243531 0 0.3245640044802917 0.12606218994830787 0
          0.21201164919138799 0.036310667820770255 0 0.5672059222880113 0.4128037233784335 0
          0.8508768464029686 0.5131864124300494 0 1.1162772405410457 0.28708105021386165 0
          0.46451522085833463 0.34270335185779965 0 0.7271739677209106 0.5141333625555023 0
          0.33996063874881616 0.18990588139287404 0 0.2423610449398389 0.06455384424490124 0
          1.0347363132476537 0.1937091257531302 0 0.6082529388855967 0.49589245174052815 0
          0.9615526174539901 0.5234047969296732 0 0.3410012742603431 0.26039436689315104 0
          0 0 0 0.8328376558297139 0.08461599519411914 0
          1.1903176626529055 0.3831918327505125 0 0.7901018031477172 0.5643545543199022 0
          0.4383469724638993 0.42167401462652027 0 0.6414585892189537 0.5539897199157184 0
          1.2242433386800324 0.2766929541805932 0 0.23056584836626254 0.12006212326516083 0
          0.3126907566604891 0.30753569080312926 0 0.1209840015647987 0.016308944487939566 0
          0.24155173462844415 0.18431514920959566 0 0.4775840543182159 0.010999103740621255 0
          0.9330035211445016 0.5638498763167652 0 0.42198791873475955 0.47887611272690506 0
          1.1479441523436917 0.4727280303434608 0 0.24419986791638826 0.24681040517671243 0
          0.6966457745283536 0.5873244117889896 0 0.27859551086486567 0.3475844397419435 0
          1.1689852879625167 0.142384041302104 0 1.2943226197218731 0.33152416165487075 0
          0.13891041830304882 0.04402398585015696 0 0.5215579380694898 0.5585818841716295 0
          0.8059514713532472 0.5713569569971205 0 0.20118205851582677 0.2684198860135871 0
          0.32534380352231446 0.4556156440647763 0 1.0815662542406437 0.4858538834122292 0
          0.9181673776749291 0.029004824887768215 0 0.13441038157747245 0.07128229687615456 0
          0.5569658898093505 0.5581359833144027 0 0.21656569649618845 0.34821621987684026 0
          1.2707112307745647 0.35833882171629855 0 1.3479459013547548 0.19605194147838198 0
          0.14000607236557627 0.12400519721010397 0 0 0 0
          0.15166681017969902 0.19254401851828754 0 0.3266233021214877 0.48121934129198446 0
          1.356017746374676 0.2598297984224055 0 0.1673606559673317 0.27978250482727407 0
          0.05851522059502285 0.00820263951666426 0 0.656562410300461 0.5074555300431401 0
          0.15545038721016316 0.32839206805161963 0 0.9880944713904403 0.4238882750558238 0
          0.36394961613242316 0.4559534896004161 0 0.10943813553182602 0.1965882247563206 0
          1.180786473906551 0.3401856402938178 0 0.07747411332573163 0.030908010254515707 0
          0.10148428510338973 0.12928551397092897 0 1.250239072443676 0.059615508477739707 0
          1.3155928256657752 0.2560990284223853 0 0.1626157327248315 0.3432415531392171 0
          0.08366236686147605 0.19091895892957153 0 1.4025015731301829 0.15637634125013594 0
          0.42928374706748795 0.35839345716658877 0 0.08483630211420526 0.09456955393771048 0
          0.07388824469415221 0.24072767808691534 0 0.06973749895533705 0.04365683923244416 0
          0.7664044801624563 0.308520486849926 0 0.07727367344169211 0.12786547476022045 0
          0.06780320056341882 0.20602410488425832 0 0.0708960615465545 0.20741752589688806 0
          0 0 0 0.08464288639436801 0.21675561337602794 0
          0.9962975485902317 0.25488536512476045 0 1.3999151415336213 0.082952720571877 0
          1.1956050757604935 0.21228211209391284 0 0.041029783280470855 0.15470959928593472 0
          0.05808218626051659 0.05653418910016393 0 0.046681385181315385 0.11936491674774174 0
          0.9258249684988288 0.007636984240156929 0 0.032176208025719646 0.13707711956803664 0
          0.021621553306903758 0.12115649216406776 0 0 0 0
          0.053573015131089745 0.08457801764289792 0 0.40231745450902345 0.07078047096445608 0
          0 0 0 0.7077016925460601 0.11323416232823502 0
          0 0 0 0.01753064286998706 0.0918153706977813 0
          0.02901464537375304 0.1065355760578361 0 0.038186543627258374 0.013617566670437271 0
          1.329805348932164 0.07287120980910926 0 0 0 0
          0.011063872143806757 0.06806424371949514 0 0.04064677823541262 0.054871207752225384 0
          0.9290638746591119 0.07705725920799752 0 0.031899725805269195 0.07400687222178354 0
          0 0 0 0.0184921559187677 0.07562176278572544 0
          0 0 0 1.4146882853428349 0.015131211824158036 0
          0.3549459252182819 0.028117796003466717 0 0.006613316441175053 0.05480739472306331 0
          1.1313057210922652 0.032103122459333236 0 0.017860605279542963 0.066040912412861 0
          0.6749964761592506 0.04053756623534948 0 0.03100089394535167 0.021991006112552423 0
          0 0 0 0.006806525802968656 0.04257982437544303 0
          1.4063873703118468 -0.022002330850168034 0 0 0 0
          0 0 0 0.01338136737620034 0.04576737993906993 0
          0.024137764093405706 0.02547910387507252 0 0.0048047901548393425 0.03401003805035205 0
          0.018447324818716932 0.039270856564963035 0 0.33591903639272447 0.0003640193920150258 0
          0.012397135988829393 0.038888142592300154 0 0 0 0
          1.254571057108917 -0.04191080774753681 0 0.6600052210961651 -0.021358126677382717 0
          0.9414993489432482 -0.05184450031422688 0 0.004337942641210176 0.02605278799354754 0
          1.1539239523442013 -0.08865786019533822 0 0.01674420004736675 0.005690174500034703 0
          0 0 0 0 0 0
          0.014129592281422807 0.022621564142621623 0 0 0 0
          1.3145772987287758 -0.10752670651093565 0 0.007963627566419981 0.025304248263670264 0
          0.003635264410353767 0.01969173582319498 0 0.3416030199069828 -0.02588605921025032 0
          0 0 0 1.3929920833736447 -0.11664975877208177 0
          0.007565777225755277 0.019451713701810387 0 0.6738387389219989 -0.11924661809494144 0
          0.011295058727051496 0.009692522302573479 0 0.0028493697064760053 0.014068902385372643 0
          0 0 0 0.9259631498099582 -0.16296926836671752 0
          0.004749964285410153 0.014794689050928232 0 1.3750037524064216 -0.11668140479639921 0
          0 0 0 0.0024791819895641125 0.010120089432357014 0
          1.1292480874514044 -0.18873288924655013 0 0 0 0
          0 0 0 0.3892590541194155 -0.16684124735557862 0
          0.0060456273640187765 0.007769115173301102 0 0.0046788442401201336 0.009568410484719868 0
          0.9455366922054081 -0.04545230544782626 0 0.00146269007359662 0.006609371355363865 0
          1.2799616407091214 -0.19706788250235868 0 1.2115584874398824 -0.09025092964692882 0
          0.006013347989558853 0.002015895283426672 0 0 0 0
          0 0 0 0.6686659624504735 -0.2306476867403924 0
          0 0 0 0 0 0
          0.000870899858753596 0.0045377856190613524 0 0.04576131116554813 -0.07236738251599996 0
          0 0 0 0.0026276765878748476 0.005281480439621362 0
          1.356837428663788 -0.1977141043650942 0 0.897927655109804 -0.2622216142993683 0
          0.0033481339997390113 0.0025396688981116234 0 0 0 0
          0.025770447117094617 -0.031755592547836574 0 0.0010127250448526953 0.002590608746090831 0
          0.002224286041843973 0.0031459365632347234 0 0 0 0
          0.014801152238769424 -0.0067303667234127305 0 0 0 0
          0.30803965752004525 -0.20458264096599052 0 1.3239622772319775 -0.1722194528579644 0
          0.0010066643761880588 0.0017681683987705568 0 1.056558544994361 -0.29362280909745603 0
          0.0062010078244107624 0.010239082662881495 0 0.0018715717836212667 0.0004512147750676315 0
          0.000750850954185878 0.0014131984377749897 0 0 0 0
          0 0 0 0.10110468033801025 -0.10390126222566332 0
          0 0 0 0.00210555656395529 0.015747292957364777 0
          0 0 0 1.2263791784468734 -0.28473286200663905 0
          0.06372984717729015 -0.05507650604968223 0 0.0009949307436304341 0.0007163324472001977 0
          0 0 0 0.0003414826850262642 0.00047625705080812003 0
          0.25634857773222214 -0.007574099575835214 0 0.5366600577547632 -0.2764824820626589 0
          0.0012253006194994644 0.018939095378692816 0 1.1642030382659259 -0.14040310415152538 0
          0 0 0 0 0 0
          0.0009713223596304504 0.020090975962596486 0 0.00019398408581570257 0.000145251599553221 0
          0.2887817867529904 -0.20599618314305154 0 0.016684887052403126 -0.0008580003406485763 0
          0.05161944660246508 -0.034443402902527405 0 0.7699737524991499 -0.31998780732465626 0
          0 0 0 1.2915073306511207 -0.2566059090858977 0
          0.1380294995364038 -0.11464841121964216 0 0.000030052201226747243 0.02112391247247407 0
          0 0 0 0.010119245092751012 0.013777182625642474 0
          0 0 0 0 0 0
          0.004346408401993205 0.022864452184283693 0 0.00010281243005197652 -0.00015053403616934854 0
          -0.0006105510349544419 0.020571454104124115 0 0.0038049250432034055 0.027504219869419835 0
          0.7961270492653888 -0.09068467664467345 0 0 0 0
          0 0 0 0.4784686988051239 -0.2770048876240196 0
          -0.0005184854172028679 0.019773049151480898 0 0.9387233555287913 -0.337330349793223 0
          1.2482665321412894 -0.2239736730859473 0 0 0 0
          0.03377765724512608 -0.008972583848542444 0 0 0 0
          0.3050340111207637 -0.21025669064990232 0 -0.00018634136477757132 0.0320019117765493 0
          0 0 0 -0.0008596428960569725 0.018440679938855446 0
          0.012630500264078944 0.02383760140232177 0 0 0 0
          -0.0007374023658768496 0.03298153924847195 0 0.1574848434732524 -0.1142121458708019 0
          0 0 0 -0.0011775254116964625 0.016767637384230698 0
          0 0 0 -0.0019148744094476843 0.029790554568375198 0
          0.6572333170865864 -0.32126919740788096 0 0 0 0
          -0.0014579615958264958 0.01435715504211734 0 -0.002632404917543291 0.027830775617751317 0
          1.0936359647913636 -0.16182866327887185 0 0.46646559449407915 -0.27090950992255464 0
          0.0031532595205825305 0.03434478127081298 0 0 0 0
          -0.0016387380032365838 0.01177546744603413 0 1.2143842076990157 -0.30107939704962167 0
          0.050453526912333777 -0.016315770462511175 0 -0.004824047871872107 0.02677376098251061 0
          1.042924138082713 -0.35949318469698666 0 0.298317048875806 -0.19681149592880898 0
          0 0 0 -0.0014260352213180175 0.009318226349877577 0
          -0.004244548275721873 0.036345876358857235 0 0.1348171475136698 -0.09017488463643218 0
          -0.005288133827830718 0.022726372667965494 0 0.02802372908376541 0.007105964069027774 0
          0.8175031973403686 -0.3534254928586864 0 0 0 0
          -0.0013742433718297881 0.006832971153363768 0 -0.004669955932079137 0.017422164396303706 0
          0.6254252447679888 -0.3102078913173126 0 0.7139502013613933 -0.08145687066301129 0
          0 0 0 -0.001353722862154217 0.00451371814666794 0
          -0.010572901945656861 0.029560051706137656 0 -0.005085835815406057 0.01430705723027056 0
          0.004108572598593248 0.027323758709005982 0 0.45257183312876686 -0.25421462073020623 0
          0.07329195726164804 -0.04266994462664352 0 0 0 0
          -0.001169917678185922 0.00239034777369969 0 1.1105328711203322 -0.35063127588484116 0
          -0.004791096794689299 0.010213601695984276 0 -0.010956233832185091 0.022672768661959164 0
          0.296627017909888 -0.185988763021372 0 1.157772314554237 -0.2940170040107595 0
          0 0 0 0.9569640283869835 -0.3572928746960294 0
          -0.004388570908206203 0.006702602017154634 0 -0.00047650228816822747 0.0005991413415291561 0
          0.041940277439068606 -0.009876283145770907 0 -0.01060504639997032 0.015557907140351943 0
          0.15256100838002834 -0.10347416971938055 0 -0.00321393826774138 0.0035011471201082237 0
          0.6738445739222023 -0.3135664407472125 0 -0.012346881436597516 0.021494078519665 0
          0 0 0 1.0198793407325382 -0.205146698916681 0
          0.3221167695080121 -0.017595612632645023 0 -0.008255885343755957 0.007358928687990734 0
          -0.01855518330984082 0.019774627257709246 0 -0.016680152249088344 0.016574813952777986 0
          0.09928854462967546 -0.06209176221149798 0 0.42575199042740813 -0.24269830594076539 0
          0 0 0 -0.0037453794121772334 0.0017170416416719277 0
          1.0477392077545964 -0.3202744379935276 0 -0.00050764690160686 -0.008334140535686938 0
          -0.016076100293485683 0.009115631310801325 0 -0.01932990888327307 0.006948715134600615 0
          0.8256230814272225 -0.3238276969360684 0 0.19851651727779146 -0.1370341566420399 0
          0.561365190187784 -0.07329145564679936 0 -0.022957824940630638 0.009784449365591653 0
          0 0 0 -0.009537835299786664 0.0026438937838408664 0
          0.5646309169555623 -0.2827816830463262 0 1.0965367074548626 -0.26722914076836907 0
          0.04454237234610779 -0.05508006240793445 0 0.3430682533348149 -0.2143923634404618 0
          -0.006023837303879113 -0.018630976271579267 0 -0.02137058004086238 -0.0027187362736749206 0
          -0.016629324757670864 0.0021692117196740112 0 0.9823619804840263 -0.31259451547673245 0
          0 0 0 -0.021813869619305752 0.002564568883268022 0
          0.748058457678696 -0.3296314195326872 0 0.4844028522742731 -0.27809110504181656 0
          0 0 0 0.12874308972184384 -0.12209757424028787 0
          0.028582958895212295 -0.05843204226949659 0 0.9787471141827315 -0.09463455317512513 0
          -0.0054442720236864 -0.026845715540575334 0 -0.016120630584444344 0.0008389480263735641 0
          -0.016836772455401196 -0.007967003005405275 0 0.27425549001610433 -0.21625382083680855 0
          0 0 0 0.9983668657458281 -0.3789518233084924 0
          -0.012741684882685492 -0.00013976263606269574 0 0.09725235599785159 -0.13108205359425792 0
          0.025168676930960757 -0.058108958808724694 0 0.5630238951896499 -0.4170618554933044 0
          0.0000716813173936997 -0.01704260348682012 0 0.24121496888002114 -0.2846304357787488 0
          0 0 0 0.028613751069432564 -0.036458590598485593 0
          0.09601010975789262 -0.11175674710620036 0 0 0 0
          <InformationKey name="L2_NORM_RANGE" location="vtkDataArray" length="2">
            <Value index="0">
              0
            </Value>
            <Value index="1">
              1.4147692032
            </Value>
          </InformationKey>
        </DataArray>
        <DataArray type="Float64" Name="Pressure" format="ascii" RangeMin="-8.368796591859383" RangeMax="36.913192820487275">
          36.251434246626786 36.40971096934505 36.73652845281575 36.186663505153525 36.00366829688618 36.77859211566479
          36.04940460768632 35.4969385800421 35.357488015518484 34.5926232004612 36.10099052463849 34.379943503636845
          36.913192820487275 35.308561512242015 34.39064755654631 33.58973670636848 33.438398618215594 34.50174844066757
          36.488202564416255 35.54340644103551 33.30420214939101 34.759889492834375 32.37512435930214 36.87882920645659
          33.502047761877925 32.2104092356549 32.32829163453447 33.929290752497195 31.449615838616893 34.92912417340902
          35.90483569847658 30.894218724758183 36.69888920340101 34.19959129593353 33.096348958089216 31.17552326701053
          30.36927360167078 31.588956516878117 33.54955979671 35.18882303744891 29.5194717407005 35.6001088325025
          36.720390556390974 34.36801719133178 29.681534472486675 32.16112157367393 30.17275907277515 32.8307980184042
          33.87682667527909 30.79680378581253 34.48539132198951 27.56649452662038 27.89347271787933 28.53938694308915
          33.43271406988883 32.10516839478483 29.377228134372576 34.00719545305981 30.255531848466138 32.816836387101816
          34.71688683514227 27.550102398573213 31.20886028536353 34.09654878042554 25.88274682056416 33.78203985198108