<?xml version="1.0"?>
<VTKFile type="UnstructuredGrid" version="0.1" byte_order="LittleEndian" header_type="UInt32" compressor="vtkZLibDataCompressor">
  <UnstructuredGrid>
    <Piece NumberOfPoints="418" NumberOfCells="757">
      <PointData>
        <DataArray type="Float64" Name="nsi_BC" NumberOfComponents="3" format="ascii" RangeMin="0" RangeMax="1">
          0 0 0 0 0 0
          0 0 0 0 0 0
          0 0 0 1 0 0
          0 0 0 0 0 0
          0 0 0 0 0 0
          0 0 0 0 0 0
          0 0 0 0 0 0
          0 0 0 0 0 0
          0 0 0 0 0 0
          0 0 0 0 0 0
          0 0 0 0 0 0
          0 0 0 0 0 0
          0 0 0 0 0 0
          0 0 0 0 0 0
          0 0 0 0 0 0
          0 0 0 0 0 0
          0 0 0 0 0 0
          0 0 0 0 0 0
          0 0 0 0 0 0
          0 0 0 0 0 0
          0 0 0 0 0 0
          0 0 0 0 0 0
          0 0 0 0 0 0
          0 0 0 0 0 0
          0 0 0 0 0 0
          0 0 0 0 0 0
          0 0 0 0 0 0
          0 0 0 0 0 0
          0 0 0 0 0 0
          0 0 0 0 0 0
          0 0 0 0 0 0
          0 0 0 0 0 0
          0 0 0 0 0 0
          0 0 0 0 0 0
          0 0 0 0 0 0
          0 0 0 0 0 0
          0 0 0 0 0 0
          0 0 0 0 0 0
          0 0 0 0 0 0
          0 0 0 0 0 0
          0 0 0 0 0 0
          0 0 0 0 0 0
          0 0 0 0 0 0
          0 0 0 0 0 0
          0 0 0 0 0 0
          0 0 0 0 0 0
          0 0 0 0 0 0
          0 0 0 0 0 0
          0 0 0 0 0 0
          0 0 0 0 0 0
          0 0 0 0 0 0
          0 0 0 0 0 0
          0 0 0 0 0 0
          0 0 0 0 0 0
          0 0 0 0 0 0
          0 0 0 0 0 0
          0 0 0 0 0 0
          0 0 0 0 0 0
          0 0 0 0 0 0
          0 0 0 0 0 0
          0 0 0 0 0 0
          0 0 0 0 0 0
          0 0 0 0 0 0
          0 0 0 0 0 0
          0 0 0 0 0 0
          0 0 0 0 0 0
          0 0 0 0 0 0
          0 0 0 0 0 0
          0 0 0 0 0 0
          0 0 0 0 0 0
          0 0 0 0 0 0
          0 0 0 0 0 0
          0 0 0 0 0 0
          0 0 0 0 0 0
          0 0 0 0 0 0
          0 0 0 0 0 0
          0 0 0 0 0 0
          0 0 0 0 0 0
          0 0 0 0 0 0
          0 0 0 0 0 0
          0 0 0 0 0 0
          0 0 0 0 0 0
          0 0 0 0 0 0
          0 0 0 0 0 0
          0 0 0 0 0 0
          0 0 0 0 0 0
          0 0 0 0 0 0
          0 0 0 0 0 0
          0 0 0 0 0 0
          0 0 0 0 0 0
          0 0 0 0 0 0
          0 0 0 0 0 0
          0 0 0 0 0 0
          0 0 0 0 0 0
          0 0 0 0 0 0
          0 0 0 0 0 0
          0 0 0 0 0 0
          0 0 0 0 0 0
          0 0 0 0 0 0
          0 0 0 0 0 0
          0 0 0 0 0 0
          0 0 0 0 0 0
          0 0 0 0 0 0
          0 0 0 0 0 0
          0 0 0 0 0 0
          0 0 0 0 0 0
          0 0 0 0 0 0
          0 0 0 0 0 0
          0 0 0 0 0 0
          0 0 0 0 0 0
          0 0 0 0 0 0
          0 0 0 0 0 0
          0 0 0 0 0 0
          0 0 0 0 0 0
          0 0 0 0 0 0
          0 0 0 0 0 0
          0 0 0 0 0 0
          0 0 0 0 0 0
          0 0 0 0 0 0
          0 0 0 0 0 0
          0 0 0 0 0 0
          0 0 0 0 0 0
          0 0 0 0 0 0
          0 0 0 0 0 0
          0 0 0 0 0 0
          0 0 0 0 0 0
          0 0 0 0 0 0
          0 0 0 0 0 0
          0 0 0 0 0 0
          0 0 0 0 0 0
          0 0 0 0 0 0
          0 0 0 0 0 0
          0 0 0 0 0 0
          0 0 0 0 0 0
          0 0 0 0 0 0
          0 0 0 0 0 0
          0 0 0 0 0 0
          0 0 0 0 0 0
          0 0 0 0 0 0
          0 0 0 0 0 0
          0 0 0 0 0 0
          0 0 0 0 0 0
          0 0 0 0 0 0
          0 0 0 0 0 0
          0 0 0 0 0 0
          0 0 0 0 0 0
          0 0 0 0 0 0
          0 0 0 0 0 0
          0 0 0 0 0 0
          0 0 0 0 0 0
          0 0 0 0 0 0
          0 0 0 0 0 0
          0 0 0 0 0 0
          0 0 0 0 0 0
          0 0 0 0 0 0
          0 0 0 0 0 0
          0 0 0 0 0 0
          0 0 0 0 0 0
          0 0 0 0 0 0
          0 0 0 0 0 0
          0 0 0 0 0 0
          0 0 0 0 0 0
          0 0 0 0 0 0
          0 0 0 0 0 0
          0 0 0 0 0 0
          0 0 0 0 0 0
          0 0 0 0 0 0
          0 0 0 0 0 0
          0 0 0 0 0 0
          0 0 0 0 0 0
          0 0 0 0 0 0
          0 0 0 0 0 0
          0 0 0 0 0 0
          0 0 0 0 0 0
          0 0 0 0 0 0
          0 0 0 0 0 0
          0 0 0 0 0 0
          0 0 0 0 0 0
          0 0 0 0 0 0
          0 0 0 0 0 0
          0 0 0 0 0 0
          0 0 0 0 0 0
          0 0 0 0 0 0
          0 0 0 0 0 0
          0 0 0 0 0 0
          0 0 0 0 0 0
          0 0 0 0 0 0
          0 0 0 0 0 0
          0 0 0 0 0 0
          0 0 0 0 0 0
          0 0 0 0 0 0
          0 0 0 0 0 0
          0 0 0 0 0 0
          0 0 0 0 0 0
          0 0 0 0 0 0
          0 0 0 0 0 0
          0 0 0 0 0 0
          0 0 0 0 0 0
          0 0 0 0 0 0
          0 0 0 0 0 0
          0 0 0 0 0 0
          0 0 0 0 0 0
          0 0 0 0 0 0
          0 0 0 0 0 0
          0 0 0 0 0 0
          0 0 0 0 0 0
          0 0 0 0 0 0
          0 0 0 0 0 0
          0 0 0 0 0 0
          <InformationKey name="L2_NORM_RANGE" location="vtkDataArray" length="2">
            <Value index="0">
              0
            </Value>
            <Value index="1">
              1
            </Value>
          </InformationKey>
        </DataArray>
        <DataArray type="Float64" Name="nsi_FIXNO" NumberOfComponents="3" format="ascii" RangeMin="1.4142135623730951" RangeMax="1.4142135623730951">
          1 1 0 -1 -1 0
          -1 -1 0 -1 -1 0
          1 1 0 1 1 0
          -1 -1 0 -1 -1 0
          -1 -1 0 -1 -1 0
          -1 -1 0 -1 -1 0
          -1 -1 0 -1 -1 0
          -1 -1 0 1 1 0
          -1 -1 0 -1 -1 0
          -1 -1 0 -1 -1 0
          -1 -1 0 -1 -1 0
          -1 -1 0 -1 -1 0
          -1 -1 0 -1 -1 0
          -1 -1 0 -1 -1 0
          -1 -1 0 -1 -1 0
          -1 -1 0 -1 -1 0
          1 1 0 -1 -1 0
          -1 -1 0 -1 -1 0
          1 1 0 -1 -1 0
          -1 -1 0 -1 -1 0
          -1 -1 0 -1 -1 0
          1 1 0 -1 -1 0
          -1 -1 0 -1 -1 0
          -1 -1 0 -1 -1 0
          -1 -1 0 -1 -1 0
          -1 -1 0 -1 -1 0
          -1 -1 0 -1 -1 0
          -1 -1 0 -1 -1 0
          -1 -1 0 -1 -1 0
          -1 -1 0 -1 -1 0
          1 1 0 -1 -1 0
          -1 -1 0 -1 -1 0
          -1 -1 0 -1 -1 0
          -1 -1 0 -1 -1 0
          -1 -1 0 1 1 0
          -1 -1 0 -1 -1 0
          -1 -1 0 -1 -1 0
          -1 -1 0 -1 -1 0
          -1 -1 0 -1 -1 0
          -1 -1 0 -1 -1 0
          -1 -1 0 -1 -1 0
          -1 -1 0 -1 -1 0
          -1 -1 0 -1 -1 0
          -1 -1 0 -1 -1 0
          1 1 0 -1 -1 0
          -1 -1 0 -1 -1 0
          -1 -1 0 -1 -1 0
          -1 -1 0 -1 -1 0
          -1 -1 0 -1 -1 0
          -1 -1 0 -1 -1 0
          -1 -1 0 -1 -1 0
          -1 -1 0 -1 -1 0
          -1 -1 0 -1 -1 0
          -1 -1 0 -1 -1 0
          -1 -1 0 -1 -1 0
          -1 -1 0 -1 -1 0
          -1 -1 0 -1 -1 0
          -1 -1 0 -1 -1 0
          -1 -1 0 -1 -1 0
          -1 -1 0 -1 -1 0
          -1 -1 0 1 1 0
          -1 -1 0 -1 -1 0
          -1 -1 0 -1 -1 0
          -1 -1 0 -1 -1 0
          -1 -1 0 -1 -1 0
          -1 -1 0 -1 -1 0
          -1 -1 0 -1 -1 0
          -1 -1 0 -1 -1 0
          -1 -1 0 -1 -1 0
          -1 -1 0 -1 -1 0
          -1 -1 0 -1 -1 0
          -1 -1 0 -1 -1 0
          -1 -1 0 -1 -1 0
          -1 -1 0 -1 -1 0
          1 1 0 -1 -1 0
          -1 -1 0 -1 -1 0
          -1 -1 0 -1 -1 0
          -1 -1 0 -1 -1 0
          -1 -1 0 -1 -1 0
          -1 -1 0 1 1 0
          -1 -1 0 -1 -1 0
          1 1 0 -1 -1 0
          1 1 0 -1 -1 0
          -1 -1 0 -1 -1 0
          -1 -1 0 1 1 0
          -1 -1 0 -1 -1 0
          -1 -1 0 -1 -1 0
          1 1 0 -1 -1 0
          1 1 0 -1 -1 0
          -1 -1 0 -1 -1 0
          -1 -1 0 -1 -1 0
          -1 -1 0 -1 -1 0
          1 1 0 -1 -1 0
          -1 -1 0 1 1 0
          1 1 0 -1 -1 0
          -1 -1 0 -1 -1 0
          -1 -1 0 -1 -1 0
          -1 -1 0 1 1 0
          -1 -1 0 -1 -1 0
          -1 -1 0 -1 -1 0
          -1 -1 0 -1 -1 0
          1 1 0 1 1 0
          -1 -1 0 1 1 0
          -1 -1 0 -1 -1 0
          -1 -1 0 -1 -1 0
          1 1 0 -1 -1 0
          -1 -1 0 -1 -1 0
          -1 -1 0 -1 -1 0
          1 1 0 -1 -1 0
          -1 -1 0 -1 -1 0
          1 1 0 -1 -1 0
          -1 -1 0 1 1 0
          1 1 0 -1 -1 0
          -1 -1 0 -1 -1 0
          -1 -1 0 -1 -1 0
          -1 -1 0 -1 -1 0
          -1 -1 0 1 1 0
          1 1 0 -1 -1 0
          1 1 0 1 1 0
          -1 -1 0 -1 -1 0
          1 1 0 -1 -1 0
          -1 -1 0 -1 -1 0
          -1 -1 0 1 1 0
          -1 -1 0 -1 -1 0
          -1 -1 0 1 1 0
          -1 -1 0 1 1 0
          -1 -1 0 -1 -1 0
          -1 -1 0 -1 -1 0
          -1 -1 0 -1 -1 0
          -1 -1 0 1 1 0
          1 1 0 -1 -1 0
          1 1 0 -1 -1 0
          1 1 0 -1 -1 0
          -1 -1 0 -1 -1 0
          1 1 0 -1 -1 0
          -1 -1 0 -1 -1 0
          -1 -1 0 -1 -1 0
          1 1 0 1 1 0
          -1 -1 0 -1 -1 0
          -1 -1 0 -1 -1 0
          -1 -1 0 -1 -1 0
          1 1 0 -1 -1 0
          -1 -1 0 -1 -1 0
          1 1 0 -1 -1 0
          1 1 0 1 1 0
          -1 -1 0 -1 -1 0
          -1 -1 0 -1 -1 0
          -1 -1 0 1 1 0
          1 1 0 -1 -1 0
          -1 -1 0 -1 -1 0
          -1 -1 0 1 1 0
          -1 -1 0 1 1 0
          -1 -1 0 -1 -1 0
          1 1 0 -1 -1 0
          -1 -1 0 1 1 0
          -1 -1 0 -1 -1 0
          1 1 0 -1 -1 0
          1 1 0 -1 -1 0
          -1 -1 0 1 1 0
          -1 -1 0 -1 -1 0
          -1 -1 0 -1 -1 0
          -1 -1 0 1 1 0
          -1 -1 0 -1 -1 0
          -1 -1 0 -1 -1 0
          -1 -1 0 -1 -1 0
          1 1 0 -1 -1 0
          -1 -1 0 -1 -1 0
          -1 -1 0 -1 -1 0
          -1 -1 0 1 1 0
          -1 -1 0 -1 -1 0
          -1 -1 0 -1 -1 0
          1 1 0 -1 -1 0
          -1 -1 0 -1 -1 0
          -1 -1 0 -1 -1 0
          -1 -1 0 1 1 0
          -1 -1 0 -1 -1 0
          -1 -1 0 -1 -1 0
          -1 -1 0 -1 -1 0
          1 1 0 -1 -1 0
          -1 -1 0 -1 -1 0
          -1 -1 0 -1 -1 0
          -1 -1 0 -1 -1 0
          -1 -1 0 -1 -1 0
          1 1 0 -1 -1 0
          -1 -1 0 -1 -1 0
          -1 -1 0 -1 -1 0
          -1 -1 0 -1 -1 0
          1 1 0 -1 -1 0
          -1 -1 0 -1 -1 0
          -1 -1 0 -1 -1 0
          -1 -1 0 -1 -1 0
          -1 -1 0 -1 -1 0
          1 1 0 -1 -1 0
          -1 -1 0 -1 -1 0
          -1 -1 0 -1 -1 0
          -1 -1 0 -1 -1 0
          -1 -1 0 -1 -1 0
          1 1 0 -1 -1 0
          -1 -1 0 -1 -1 0
          1 1 0 -1 -1 0
          -1 -1 0 -1 -1 0
          -1 -1 0 -1 -1 0
          -1 -1 0 -1 -1 0
          1 1 0 -1 -1 0
          -1 -1 0 -1 -1 0
          -1 -1 0 -1 -1 0
          -1 -1 0 -1 -1 0
          1 1 0 -1 -1 0
          -1 -1 0 1 1 0
          <InformationKey name="L2_NORM_RANGE" location="vtkDataArray" length="2">
            <Value index="0">
              1.4142135624
            </Value>
            <Value index="1">
              1.4142135624
            </Value>
          </InformationKey>
        </DataArray>
        <DataArray type="Float64" Name="Velocity" NumberOfComponents="3" format="ascii" RangeMin="0" RangeMax="1.2733032110912093">
          0 0 0 0.3294167754527179 0.06953818676568842 0
          0.6485083006927271 0.17811675195169452 0 0.5071631766420202 0.08047369439845843 0
          0 0 0 1 0 0
          0.5760090885704909 0.04339150144152014 0 0.4205129016627005 0.045524988392575384 0
          0.5327899231564406 0.051465844443097986 0 0.41667438640516025 -0.003491041083696596 0
          0.5019957922469098 0.010736483719300659 0 0.5290413153411649 0.037982418180564984 0
          0.6195843857527714 -0.14243573238231508 0 0.5210367418302634 0.034158727134628676 0
          0.5306098049909029 0.048340581483733235 0 0 0 0
          0.5818243952735697 0.0058890902155910385 0 0.525940525068807 0.05686220432897057 0
          0.5432912824336164 -0.025934226324311263 0 0.4974683811551666 0.03588764241387447 0
          0.5655759608916017 0.04226451004301456 0 0.506174992477022 0.05692649462701444 0
          0.5143519516267695 0.0382845824125339 0 0.3218085307426951 -0.058526991606942004 0
          0.5461606694100535 0.07626684093178294 0 0.6180076137897434 0.056842433630827735 0
          0.59533498859912 0.08737972086717527 0 0.5150223164835219 0.08128286204896223 0
          0.44322288943457117 -0.00759911954684166 0 0.4814144812468104 0.0505860042749388 0
          0.45991574211339353 -0.008022877291899372 0 0.637612577323564 0.06486829758416456 0
          0 0 0 0.48611063335257265 0.07219262931131676 0
          0.5330345551779102 0.1221642588030037 0 0.6469935684426134 0.10502254219007011 0
          0 0 0 0.6084077650673964 0.13568953546070156 0
          0.4923894467204868 0.11706038883626055 0 0.4156403484038643 0.02500630962205611 0
          0.668013497569978 0.060646905639980285 0 0.2862607102653894 0.022418564181110524 0
          0 0 0 0.4488120238278883 0.047999206488078296 0
          0.6944650451355084 0.12299833469115304 0 0.5642537880700257 0.1657744443479809 0
          0.6668861936045747 0.16699175226305832 0 0.5092477646341366 0.16650931796918378 0
          0.4489020090085404 0.09483991807414571 0 0.624851275575883 0.200062772131142 0
          0.40003975108157186 0.020822163877185846 0 0.5760914439566045 0.006682125141858829 0
          0.765867471429643 0.09575694537723538 0 0.7313482500631325 0.18161883480954968 0
          0.45263841545129113 0.14957238532624714 0 0.5289869268680323 0.2292847179387803 0
          0.6871448137493142 0.2379497766454828 0 0.4044130702498599 0.06024528682856856 0
          0.6252863454351567 0.2720493264464931 0 0.47082210718610346 0.21598214172946514 0
          0 0 0 0.7679948260878195 0.25318082136109166 0
          0.5596398322045663 0.2993735758110035 0 0.29086405413419036 0.02288095747116886 0
          0.8589075731545858 0.14712033211553538 0 0.3910614453275118 0.10546259200037865 0
          0.406699696564278 0.18485993684653168 0 0.7016818640229738 0.3178433037808299 0
          0.48206026859041606 0.2866562215668105 0 0 0 0
          0.8001506621891732 0.05276477648239796 0 0.40935072321895777 0.25260895317777904 0
          0.6089940885503435 0.37911152065092535 0 0.8748832505182884 0.24808751797245357 0
          0.7925982062191754 0.34914824758482754 0 0.3530790140998736 0.14491218115621293 0
          0.33155867203658973 0.050184595238968746 0 0.4830664307849745 0.37435578574980427 0
          0.7117795277549761 0.419603693448532 0 0.9454140691154755 0.1919835379346864 0
          0.4119360715454348 0.331452243252154 0 0.6265090691377724 0.45163873627083173 0
          0.34196005341938124 0.20648547710181533 0 0.32898663511179616 0.09401815839257735 0
          0.9383713930603536 0.12447255429071455 0 0.534647813142885 0.46609425582405617 0
          0.8306957505259572 0.43735926880448767 0 0.3317994233909613 0.27974717756667095 0
          0 0 0 0.8652204070898851 0.06923305823531882 0
          0.9995815701420739 0.27439878319897737 0 0.7099761306402751 0.5207532769235816 0
          0.4090234619958034 0.4381986487612593 0 0.5955251737671462 0.5477888531426137 0
          1.0332061741661454 0.1765708926903018 0 0.29198953480014245 0.15693966941814944 0
          0.30881727695776184 0.349387654790213 0 0.23904426277804794 0.03723866983763542 0
          0.275359915057737 0.2297251404230513 0 0.5348147723851494 0.0005532308310142617 0
          0.8758577516408014 0.5318068317308886 0 0.4110131774661554 0.530994158736502 0
          1.0195350397241678 0.3870938676039878 0 0.2625066299846705 0.3048372342186707 0
          0.6848043317908379 0.6132924605035077 0 0.28590757423077867 0.42077929908647344 0
          1.0206192153044107 0.07678353976408407 0 1.1058769113534788 0.22925170796619082 0
          0.25130672854973624 0.07736810040193609 0 0.5274676020293586 0.6281725993352384 0
          0.8312878460217447 0.6139622195842993 0 0.222103023793539 0.35932859201993744 0
          0.34294825233421733 0.5649555979936784 0 1.061323885485461 0.4542412413648707 0
          0.9237695832122566 -0.013197362011985476 0 0.2277203917914037 0.1159910683988223 0
          0.6077488677446289 0.6662502220541874 0 0.2375557160246593 0.4681861817161716 0
          1.1607575521384148 0.28429708085403416 0 1.1339497073361915 0.11641831607540826 0
          0.20049818307801742 0.1956149708866115 0 0 0 0
          0.18726556769643696 0.28887400151980885 0 0.363329917034282 0.6264778396865984 0
          1.1703609314156875 0.1786431712189039 0 0.18909147076772678 0.4041874197823249 0
          0.14176115688640026 0.023796888216899455 0 0.7640753299366607 0.6210869279977799 0
          0.18133323727731385 0.48202331103712165 0 1.0790000245219036 0.4455757551198635 0
          0.44355472538876284 0.6254139884701918 0 0.1393309805848774 0.32509034212311244 0
          1.1954138136706314 0.30926944792161953 0 0.1867485742781135 0.061112549470084404 0
          0.15125099573841133 0.22362064010719934 0 1.0839078522845136 0.012200566101583142 0
          1.224978625369502 0.19286671974775077 0 0.19503953465608528 0.5118652613724205 0
          0.10860487552473934 0.3378567021632094 0 1.2204686412420795 0.07737996390770992 0
          0.5662192400276749 0.4957296389305495 0 0.14002445075160874 0.18090118131909697 0
          0.09307809310650167 0.3995378139357061 0 0.16081306252929592 0.09115568966445699 0
          0.9520870481799084 0.3730404836532206 0 0.11311827036451265 0.24784476097321165 0
          0.08798640427628522 0.3683100931547999 0 0.0942545559301664 0.363867463558619 0
          0 0 0 0.11081710105081136 0.3441821091064072 0
          1.1409922130487042 0.2589531159300556 0 1.1723321588037998 0.016776838758853507 0
          1.2409020835228193 0.1697797625891764 0 0.05511026501160157 0.2765084277888467 0
          0.1282094761015482 0.12664532313506183 0 0.06923271272307804 0.25580402041697875 0
          0.9182112264750857 0.0023163987600207533 0 0.04235956095585841 0.2776134609346666 0
          0.029822558433456842 0.23542345841747847 0 0 0 0
          0.0940555269323675 0.1919194579107735 0 0.5683936627746011 0.08939903453346032 0
          0 0 0 0.9187129658545758 0.11610017437018262 0
          0 0 0 0.02392144295974498 0.19601191114101904 0
          0.044375278876541836 0.23895703321922007 0 0.11888690765570166 0.03468018504954596 0
          1.2733029848755208 -0.0007590008389897919 0 0 0 0
          0.01690706070152731 0.16407892562426918 0 0.08889773147195203 0.144364577565675 0
          1.1130188361229607 0.04041281830503962 0 0.05475694191548994 0.19382102259378275 0
          0 0 0 0.029701587450532516 0.1930825110399004 0
          0 0 0 1.2305976931789804 -0.04637632432703222 0
          0.5269630156502929 0.02808331495929693 0 0.010769551961952157 0.14463673485424294 0
          1.2206781194272858 -0.03764802178108661 0 0.03134478377285573 0.18081328399213484 0
          0.9012837294678369 0.019515356831910653 0 0.10046124659690678 0.06266508317519759 0
          0 0 0 0.012166948936216273 0.12447538485870574 0
          1.1616894528316641 -0.06305883351494326 0 0 0 0
          0 0 0 0.024578492877969156 0.14551617760491165 0
          0.07819149026420318 0.08313729042265974 0 0.008362483192287107 0.10935369051233161 0
          0.04349652135256995 0.13560428791071666 0 0.5160417411359287 -0.012332798097025583 0
          0.02565433122082503 0.13544164318263652 0 0 0 0
          1.0620528782667953 -0.05794629322102308 0 0.902848294380111 -0.06782284985168537 0
          1.137504148409375 -0.13539838394766943 0 0.008930817945204467 0.09450271128280899 0
          1.2131938611750792 -0.18177059932217943 0 0.07047154441761048 0.021319238735856366 0
          0 0 0 0 0 0
          0.04502189228978297 0.0949235184566119 0 0 0 0
          1.2210562226129116 -0.18318690585819025 0 0.01954003316334084 0.10535328157596598 0
          0.007237321693718789 0.08185556280982598 0 0.5318133595074458 -0.060178126835511436 0
          0 0 0 1.180050144328336 -0.16536360387736473 0
          0.020428599651663135 0.09177385872947444 0 0.9332380803473117 -0.2494857692401171 0
          0.0558207963775368 0.040733979850256244 0 0.007175518688605094 0.06949893473623273 0
          0 0 0 1.0999439647277094 -0.30413686492829095 0
          0.01866925819031705 0.07974176551487216 0 1.1153858731875148 -0.13648850935936532 0
          0 0 0 0.006765024255033874 0.05899995536691043 0
          1.1563934451126108 -0.3015981665993845 0 0 0 0
          0 0 0 0.6087127578407853 -0.36886599122825764 0
          0.03185618055702324 0.0510303903746687 0 0.01916263870644357 0.06298921789092297 0
          0.9024928692973688 -0.057545346424156096 0 0.0055146250544076654 0.04854734549375319 0
          1.1588851395362343 -0.2664776280702007 0 1.023350590687875 -0.09973408219224468 0
          0.03609311533972218 0.012185661063789198 0 0 0 0
          0 0 0 0.8813895033662498 -0.4490603238107319 0
          0 0 0 0 0 0
          0.004897373167600945 0.039542000907705765 0 0.0883251928577836 -0.2728412619933393 0
          0 0 0 0.014791157283066526 0.04407164014371192 0
          1.1235298352706602 -0.22407885673735597 0 1.0103418184330653 -0.4341387514328664 0
          0.027096378601185522 0.02166730851139471 0 0 0 0
          0.04889714146532219 -0.21058668171647663 0 0.005240912557911674 0.030463957476505845 0
          0.01412471666249429 0.03269062693628859 0 0 0 0
          0.028101640985399825 -0.16550789938404592 0 0 0 0
          0.46533752964688757 -0.5079990059931971 0 1.0603555203202892 -0.17148855449378617 0
          0.012391810534069953 0.022514781206695263 0 1.0350064503711904 -0.4110472355646243 0
          0.01668414168696159 -0.13164827780489965 0 0.016224037121888107 0.006983078676462792 0
          0.0050007430686948955 0.02266269671042047 0 0 0 0
          0 0 0 0.16529316028150898 -0.3912550299681469 0
          0 0 0 0.009418589429185643 -0.11413479023690622 0
          0 0 0 1.0587985742046844 -0.3287416462924391 0
          0.11186026029922636 -0.3239304462188595 0 0.011889388888944814 0.012275721381352293 0
          0 0 0 0.003811970778674041 0.015209518127692606 0
          0.3067488495899286 -0.00953096594051763 0 0.6734384204562062 -0.5526033195698133 0
          0.00913882146906948 -0.09811950321481223 0 0.985264695844156 -0.13381314605555072 0
          0 0 0 0 0 0
          0.007811018812930841 -0.08617888163866004 0 0.0038030315422106164 0.008979483878053194 0
          0.40491426652090773 -0.5216942750801823 0 0.03985943664896898 -0.22953808779672624 0
          0.09478130514648767 -0.31344508928579906 0 0.8228080122625259 -0.5152332505411493 0
          0 0 0 1.0382579909290617 -0.24687430003279628 0
          0.20816908952652183 -0.42119699062968863 0 0.0061798109885093854 -0.074034978291825 0
          0 0 0 0.036015305963410536 -0.1970351287147937 0
          0 0 0 0 0 0
          0.023254207397557524 -0.15482046328274157 0 0.0020284762930851533 0.0022685746286823104 0
          0.005417871267828837 -0.06426292669190325 0 0.024681144206558564 -0.13826152300406605 0
          0.7960705040586626 -0.09275356706590178 0 0 0 0
          0 0 0 0.5696846819262498 -0.5371361125138467 0
          0.005781902684375344 -0.05444531196171603 0 0.8713145502511178 -0.4335972707344078 0
          0.9935418448633052 -0.18938949516449793 0 0 0 0
          0.08286871603049908 -0.27680497396614523 0 0 0 0
          0.39341659732749346 -0.5000066897888537 0 0.020894231391962725 -0.12627704334316817 0
          0 0 0 0.005130556067790101 -0.04652894467096341 0
          0.053547463023489644 -0.20067095381872116 0 0 0 0
          0.02143545542219126 -0.10770597077391895 0 0.23125248462784917 -0.4062526395876592 0
          0 0 0 0.004009957045072799 -0.03904945297126366 0
          0 0 0 0.015417924957598902 -0.08488259970564566 0
          0.6672694099310518 -0.4845271552082948 0 0 0 0
          0.0036888134763528565 -0.03243022032793129 0 0.01477168782662262 -0.07243453347531242 0
          0.9453914687463526 -0.13076521466776367 0 0.5180094919686895 -0.48008945463855074 0
          0.050527288962164414 -0.15742182885888445 0 0 0 0
          0.004326723660688442 -0.025657307477615292 0 0.9452338271393677 -0.2562935279365971 0
          0.12318201769165518 -0.26731360818788485 0 0.014072118801690557 -0.0648512324112652 0
          0.8567461232009443 -0.3607523426647557 0 0.36783473105085723 -0.43647217416375633 0
          0 0 0 0.0034414820477527298 -0.019513847305408553 0
          0.03507528456917096 -0.11171999418505718 0 0.2186368835639764 -0.3479862675530655 0
          0.014627661861000294 -0.05231233837199599 0 0.10316530807548772 -0.21638959094051025 0
          0.7236597603754888 -0.4108159949193948 0 0 0 0
          0.0029395287974366027 -0.014030105554066679 0 0.012290114028665405 -0.03831800527052099 0
          0.602493319315499 -0.4149448151439469 0 0.7315284440349376 -0.05433262467919133 0
          0 0 0 0.0028423611168093797 -0.009207835361909748 0
          0.03391089176815331 -0.0773908751203399 0 0.011554048758156413 -0.03034630445435459 0
          0.08153070173254556 -0.15726995484049547 0 0.4788315428729903 -0.4006451733122885 0
          0.1706326533760575 -0.2647891492733777 0 0 0 0
          0.0024074241487888654 -0.0048918117672111005 0 0.8572550980938157 -0.27960049298039025 0
          0.010253071994120701 -0.021180800991892828 0 0.02964563300508261 -0.05421875482656621 0
          0.36306697762774953 -0.3590303072615493 0 0.8986747210137286 -0.2123094535730223 0
          0 0 0 0.767725656754456 -0.31570855539976583 0
          0.009115189578820775 -0.013903558437228762 0 0.0009765600878525666 -0.0012588863229717967 0
          0.148405525181467 -0.19886957748406833 0 0.024446566167090036 -0.03533791504871975 0
          0.25326800398200117 -0.2826854716567299 0 0.006624132008402042 -0.00731539904894177 0
          0.6037632405568815 -0.3422425090276242 0 0.08384971742390711 -0.119424011627119 0
          0 0 0 0.9075688440964657 -0.16372151915039682 0
          0.4001873265576884 -0.04063264791494391 0 0.017269509372615312 -0.016064333203691942 0
          0.06423662601161244 -0.07875911752439778 0 0.04745267455592133 -0.05217143374101902 0
          0.21969636129238831 -0.21995245210400688 0 0.44889932117524944 -0.3044999263660522 0
          0 0 0 0.0081087467348403 -0.0036111932229117823 0
          0.7997504105704956 -0.2060502861835319 0 0.13404604441150153 -0.137421728724319 0
          0.037454017012471814 -0.025412088427931724 0 0.1031084550695615 -0.09232700874801454 0
          0.6618527300766218 -0.24202777776948722 0 0.30610817435707005 -0.22911540912370482 0
          0.6133741908876802 -0.13773917094749422 0 0.079513409004034 -0.057723456614934464 0
          0 0 0 0.02159267804977449 -0.007021204412195623 0
          0.5211796259231537 -0.23153842145365458 0 0.8585449983055696 -0.12167629840173126 0
          0.20194615870527247 -0.13935253957024815 0 0.4001780652133776 -0.20830459255820943 0
          0.1514724304958797 -0.09696261533375065 0 0.11744934487799581 -0.06051981323989558 0
          0.04251442311520997 -0.00940765179642355 0 0.7371913991874465 -0.16007457095253858 0
          0 0 0 0.0814747314543032 -0.03167539747415926 0
          0.6053706724746577 -0.17173566345764965 0 0.4770206820301221 -0.16673074731867374 0
          0 0 0 0.280143123664742 -0.12566365946765984 0
          0.20660145824600845 -0.09005076492536543 0 1.0437731559146919 -0.1418171157676401 0
          0.16242049692723193 -0.05552763376795206 0 0.05332656877263243 -0.013337838510713677 0
          0.1129778034834465 -0.03140834933556143 0 0.3681079681811442 -0.1239161619370383 0
          0 0 0 0.7372841000271383 -0.17730956338649742 0
          0.06796225483848713 -0.006238767883320389 0 0.2655092008114461 -0.08507320026902046 0
          0.208072515128475 -0.0456218583547285 0 0.5175950878704363 -0.1653408897889682 0
          0.10656259007995127 -0.005450557512469907 0 0.33946279396554024 -0.11654516011239639 0
          0 0 0 0.1754763064879835 -0.011241041599818292 0
          0.2583222293149161 -0.04816282643799918 0 0 0 0
          <InformationKey name="L2_NORM_RANGE" location="vtkDataArray" length="2">
            <Value index="0">
              0
            </Value>
            <Value index="1">
              1.2733032111
            </Value>
          </InformationKey>
        </DataArray>
        <DataArray type="Float64" Name="Pressure" format="ascii" RangeMin="-0.19943428826847034" RangeMax="302.2830799286181">
          290.4759830268655 278.1145430261767 289.0795490018573 271.15474958231766 262.237845488764 302.2830799286181
          271.1545074204651 255.69621412141214 256.19235040785134 242.97032529471 274.7198109461902 241.0518222460546
          292.0588176657825 255.60334094856182 241.16297474072383 228.7904416301432 227.40973575547275 242.16432483235545
          274.6628555664614 259.2564249295572 227.38147259300226 244.3207401853898 215.44646498839512 283.499625031501
          227.68796856394246 213.98689876224518 214.92706219898486 230.7369762760608 205.4699652635182 246.03538386042746
          260.734363325378 200.91839802783275 292.6741237596195 233.1079253162872 218.18853882855032 202.4145530223541
          193.9824734240044 204.34878776532963 221.2880579114063 249.84174601083848 188.74696160253183 257.2954015836419
          274.43988860745736 235.00630099399518 190.01721906937036 206.36858031082502 192.4082570162306 210.30095733159047
          224.2761924307274 194.85203965983573 236.58223858131888 173.07770689878575 176.4025965433122 180.69717868671438
          214.04537972614315 200.35492056531913 183.89203913214524 226.32746378814034 187.16338960054154 204.35731533183628
          243.56083122909828 172.49842056700462 190.83785361508262 230.7730024848937 162.6193444969525 217.48703337219106
          208.3499513661098 176.61748661723598 195.56177531568312 151.92797985754174 152.44318902103169 200.69755134774417