<?xml version="1.0"?>
<VTKFile type="UnstructuredGrid" version="0.1" byte_order="LittleEndian" header_type="UInt32" compressor="vtkZLibDataCompressor">
  <UnstructuredGrid>
    <Piece NumberOfPoints="418" NumberOfCells="757">
      <PointData>
        <DataArray type="Float64" Name="nsi_BC" NumberOfComponents="3" format="ascii" RangeMin="0" RangeMax="1">
          0 0 0 0 0 0
          0 0 0 0 0 0
          0 0 0 1 0 0
          0 0 0 0 0 0
          0 0 0 0 0 0
          0 0 0 0 0 0
          0 0 0 0 0 0
          0 0 0 0 0 0
          0 0 0 0 0 0
          0 0 0 0 0 0
          0 0 0 0 0 0
          0 0 0 0 0 0
          0 0 0 0 0 0
          0 0 0 0 0 0
          0 0 0 0 0 0
          0 0 0 0 0 0
          0 0 0 0 0 0
          0 0 0 0 0 0
          0 0 0 0 0 0
          0 0 0 0 0 0
          0 0 0 0 0 0
          0 0 0 0 0 0
          0 0 0 0 0 0
          0 0 0 0 0 0
          0 0 0 0 0 0
          0 0 0 0 0 0
          0 0 0 0 0 0
          0 0 0 0 0 0
          0 0 0 0 0 0
          0 0 0 0 0 0
          0 0 0 0 0 0
          0 0 0 0 0 0
          0 0 0 0 0 0
          0 0 0 0 0 0
          0 0 0 0 0 0
          0 0 0 0 0 0
          0 0 0 0 0 0
          0 0 0 0 0 0
          0 0 0 0 0 0
          0 0 0 0 0 0
          0 0 0 0 0 0
          0 0 0 0 0 0
          0 0 0 0 0 0
          0 0 0 0 0 0
          0 0 0 0 0 0
          0 0 0 0 0 0
          0 0 0 0 0 0
          0 0 0 0 0 0
          0 0 0 0 0 0
          0 0 0 0 0 0
          0 0 0 0 0 0
          0 0 0 0 0 0
          0 0 0 0 0 0
          0 0 0 0 0 0
          0 0 0 0 0 0
          0 0 0 0 0 0
          0 0 0 0 0 0
          0 0 0 0 0 0
          0 0 0 0 0 0
          0 0 0 0 0 0
          0 0 0 0 0 0
          0 0 0 0 0 0
          0 0 0 0 0 0
          0 0 0 0 0 0
          0 0 0 0 0 0
          0 0 0 0 0 0
          0 0 0 0 0 0
          0 0 0 0 0 0
          0 0 0 0 0 0
          0 0 0 0 0 0
          0 0 0 0 0 0
          0 0 0 0 0 0
          0 0 0 0 0 0
          0 0 0 0 0 0
          0 0 0 0 0 0
          0 0 0 0 0 0
          0 0 0 0 0 0
          0 0 0 0 0 0
          0 0 0 0 0 0
          0 0 0 0 0 0
          0 0 0 0 0 0
          0 0 0 0 0 0
          0 0 0 0 0 0
          0 0 0 0 0 0
          0 0 0 0 0 0
          0 0 0 0 0 0
          0 0 0 0 0 0
          0 0 0 0 0 0
          0 0 0 0 0 0
          0 0 0 0 0 0
          0 0 0 0 0 0
          0 0 0 0 0 0
          0 0 0 0 0 0
          0 0 0 0 0 0
          0 0 0 0 0 0
          0 0 0 0 0 0
          0 0 0 0 0 0
          0 0 0 0 0 0
          0 0 0 0 0 0
          0 0 0 0 0 0
          0 0 0 0 0 0
          0 0 0 0 0 0
          0 0 0 0 0 0
          0 0 0 0 0 0
          0 0 0 0 0 0
          0 0 0 0 0 0
          0 0 0 0 0 0
          0 0 0 0 0 0
          0 0 0 0 0 0
          0 0 0 0 0 0
          0 0 0 0 0 0
          0 0 0 0 0 0
          0 0 0 0 0 0
          0 0 0 0 0 0
          0 0 0 0 0 0
          0 0 0 0 0 0
          0 0 0 0 0 0
          0 0 0 0 0 0
          0 0 0 0 0 0
          0 0 0 0 0 0
          0 0 0 0 0 0
          0 0 0 0 0 0
          0 0 0 0 0 0
          0 0 0 0 0 0
          0 0 0 0 0 0
          0 0 0 0 0 0
          0 0 0 0 0 0
          0 0 0 0 0 0
          0 0 0 0 0 0
          0 0 0 0 0 0
          0 0 0 0 0 0
          0 0 0 0 0 0
          0 0 0 0 0 0
          0 0 0 0 0 0
          0 0 0 0 0 0
          0 0 0 0 0 0
          0 0 0 0 0 0
          0 0 0 0 0 0
          0 0 0 0 0 0
          0 0 0 0 0 0
          0 0 0 0 0 0
          0 0 0 0 0 0
          0 0 0 0 0 0
          0 0 0 0 0 0
          0 0 0 0 0 0
          0 0 0 0 0 0
          0 0 0 0 0 0
          0 0 0 0 0 0
          0 0 0 0 0 0
          0 0 0 0 0 0
          0 0 0 0 0 0
          0 0 0 0 0 0
          0 0 0 0 0 0
          0 0 0 0 0 0
          0 0 0 0 0 0
          0 0 0 0 0 0
          0 0 0 0 0 0
          0 0 0 0 0 0
          0 0 0 0 0 0
          0 0 0 0 0 0
          0 0 0 0 0 0
          0 0 0 0 0 0
          0 0 0 0 0 0
          0 0 0 0 0 0
          0 0 0 0 0 0
          0 0 0 0 0 0
          0 0 0 0 0 0
          0 0 0 0 0 0
          0 0 0 0 0 0
          0 0 0 0 0 0
          0 0 0 0 0 0
          0 0 0 0 0 0
          0 0 0 0 0 0
          0 0 0 0 0 0
          0 0 0 0 0 0
          0 0 0 0 0 0
          0 0 0 0 0 0
          0 0 0 0 0 0
          0 0 0 0 0 0
          0 0 0 0 0 0
          0 0 0 0 0 0
          0 0 0 0 0 0
          0 0 0 0 0 0
          0 0 0 0 0 0
          0 0 0 0 0 0
          0 0 0 0 0 0
          0 0 0 0 0 0
          0 0 0 0 0 0
          0 0 0 0 0 0
          0 0 0 0 0 0
          0 0 0 0 0 0
          0 0 0 0 0 0
          0 0 0 0 0 0
          0 0 0 0 0 0
          0 0 0 0 0 0
          0 0 0 0 0 0
          0 0 0 0 0 0
          0 0 0 0 0 0
          0 0 0 0 0 0
          0 0 0 0 0 0
          0 0 0 0 0 0
          0 0 0 0 0 0
          0 0 0 0 0 0
          0 0 0 0 0 0
          0 0 0 0 0 0
          0 0 0 0 0 0
          0 0 0 0 0 0
          0 0 0 0 0 0
          0 0 0 0 0 0
          <InformationKey name="L2_NORM_RANGE" location="vtkDataArray" length="2">
            <Value index="0">
              0
            </Value>
            <Value index="1">
              1
            </Value>
          </InformationKey>
        </DataArray>
        <DataArray type="Float64" Name="nsi_FIXNO" NumberOfComponents="3" format="ascii" RangeMin="1.4142135623730951" RangeMax="1.4142135623730951">
          1 1 0 -1 -1 0
          -1 -1 0 -1 -1 0
          1 1 0 1 1 0
          -1 -1 0 -1 -1 0
          -1 -1 0 -1 -1 0
          -1 -1 0 -1 -1 0
          -1 -1 0 -1 -1 0
          -1 -1 0 1 1 0
          -1 -1 0 -1 -1 0
          -1 -1 0 -1 -1 0
          -1 -1 0 -1 -1 0
          -1 -1 0 -1 -1 0
          -1 -1 0 -1 -1 0
          -1 -1 0 -1 -1 0
          -1 -1 0 -1 -1 0
          -1 -1 0 -1 -1 0
          1 1 0 -1 -1 0
          -1 -1 0 -1 -1 0
          1 1 0 -1 -1 0
          -1 -1 0 -1 -1 0
          -1 -1 0 -1 -1 0
          1 1 0 -1 -1 0
          -1 -1 0 -1 -1 0
          -1 -1 0 -1 -1 0
          -1 -1 0 -1 -1 0
          -1 -1 0 -1 -1 0
          -1 -1 0 -1 -1 0
          -1 -1 0 -1 -1 0
          -1 -1 0 -1 -1 0
          -1 -1 0 -1 -1 0
          1 1 0 -1 -1 0
          -1 -1 0 -1 -1 0
          -1 -1 0 -1 -1 0
          -1 -1 0 -1 -1 0
          -1 -1 0 1 1 0
          -1 -1 0 -1 -1 0
          -1 -1 0 -1 -1 0
          -1 -1 0 -1 -1 0
          -1 -1 0 -1 -1 0
          -1 -1 0 -1 -1 0
          -1 -1 0 -1 -1 0
          -1 -1 0 -1 -1 0
          -1 -1 0 -1 -1 0
          -1 -1 0 -1 -1 0
          1 1 0 -1 -1 0
          -1 -1 0 -1 -1 0
          -1 -1 0 -1 -1 0
          -1 -1 0 -1 -1 0
          -1 -1 0 -1 -1 0
          -1 -1 0 -1 -1 0
          -1 -1 0 -1 -1 0
          -1 -1 0 -1 -1 0
          -1 -1 0 -1 -1 0
          -1 -1 0 -1 -1 0
          -1 -1 0 -1 -1 0
          -1 -1 0 -1 -1 0
          -1 -1 0 -1 -1 0
          -1 -1 0 -1 -1 0
          -1 -1 0 -1 -1 0
          -1 -1 0 -1 -1 0
          -1 -1 0 1 1 0
          -1 -1 0 -1 -1 0
          -1 -1 0 -1 -1 0
          -1 -1 0 -1 -1 0
          -1 -1 0 -1 -1 0
          -1 -1 0 -1 -1 0
          -1 -1 0 -1 -1 0
          -1 -1 0 -1 -1 0
          -1 -1 0 -1 -1 0
          -1 -1 0 -1 -1 0
          -1 -1 0 -1 -1 0
          -1 -1 0 -1 -1 0
          -1 -1 0 -1 -1 0
          -1 -1 0 -1 -1 0
          1 1 0 -1 -1 0
          -1 -1 0 -1 -1 0
          -1 -1 0 -1 -1 0
          -1 -1 0 -1 -1 0
          -1 -1 0 -1 -1 0
          -1 -1 0 1 1 0
          -1 -1 0 -1 -1 0
          1 1 0 -1 -1 0
          1 1 0 -1 -1 0
          -1 -1 0 -1 -1 0
          -1 -1 0 1 1 0
          -1 -1 0 -1 -1 0
          -1 -1 0 -1 -1 0
          1 1 0 -1 -1 0
          1 1 0 -1 -1 0
          -1 -1 0 -1 -1 0
          -1 -1 0 -1 -1 0
          -1 -1 0 -1 -1 0
          1 1 0 -1 -1 0
          -1 -1 0 1 1 0
          1 1 0 -1 -1 0
          -1 -1 0 -1 -1 0
          -1 -1 0 -1 -1 0
          -1 -1 0 1 1 0
          -1 -1 0 -1 -1 0
          -1 -1 0 -1 -1 0
          -1 -1 0 -1 -1 0
          1 1 0 1 1 0
          -1 -1 0 1 1 0
          -1 -1 0 -1 -1 0
          -1 -1 0 -1 -1 0
          1 1 0 -1 -1 0
          -1 -1 0 -1 -1 0
          -1 -1 0 -1 -1 0
          1 1 0 -1 -1 0
          -1 -1 0 -1 -1 0
          1 1 0 -1 -1 0
          -1 -1 0 1 1 0
          1 1 0 -1 -1 0
          -1 -1 0 -1 -1 0
          -1 -1 0 -1 -1 0
          -1 -1 0 -1 -1 0
          -1 -1 0 1 1 0
          1 1 0 -1 -1 0
          1 1 0 1 1 0
          -1 -1 0 -1 -1 0
          1 1 0 -1 -1 0
          -1 -1 0 -1 -1 0
          -1 -1 0 1 1 0
          -1 -1 0 -1 -1 0
          -1 -1 0 1 1 0
          -1 -1 0 1 1 0
          -1 -1 0 -1 -1 0
          -1 -1 0 -1 -1 0
          -1 -1 0 -1 -1 0
          -1 -1 0 1 1 0
          1 1 0 -1 -1 0
          1 1 0 -1 -1 0
          1 1 0 -1 -1 0
          -1 -1 0 -1 -1 0
          1 1 0 -1 -1 0
          -1 -1 0 -1 -1 0
          -1 -1 0 -1 -1 0
          1 1 0 1 1 0
          -1 -1 0 -1 -1 0
          -1 -1 0 -1 -1 0
          -1 -1 0 -1 -1 0
          1 1 0 -1 -1 0
          -1 -1 0 -1 -1 0
          1 1 0 -1 -1 0
          1 1 0 1 1 0
          -1 -1 0 -1 -1 0
          -1 -1 0 -1 -1 0
          -1 -1 0 1 1 0
          1 1 0 -1 -1 0
          -1 -1 0 -1 -1 0
          -1 -1 0 1 1 0
          -1 -1 0 1 1 0
          -1 -1 0 -1 -1 0
          1 1 0 -1 -1 0
          -1 -1 0 1 1 0
          -1 -1 0 -1 -1 0
          1 1 0 -1 -1 0
          1 1 0 -1 -1 0
          -1 -1 0 1 1 0
          -1 -1 0 -1 -1 0
          -1 -1 0 -1 -1 0
          -1 -1 0 1 1 0
          -1 -1 0 -1 -1 0
          -1 -1 0 -1 -1 0
          -1 -1 0 -1 -1 0
          1 1 0 -1 -1 0
          -1 -1 0 -1 -1 0
          -1 -1 0 -1 -1 0
          -1 -1 0 1 1 0
          -1 -1 0 -1 -1 0
          -1 -1 0 -1 -1 0
          1 1 0 -1 -1 0
          -1 -1 0 -1 -1 0
          -1 -1 0 -1 -1 0
          -1 -1 0 1 1 0
          -1 -1 0 -1 -1 0
          -1 -1 0 -1 -1 0
          -1 -1 0 -1 -1 0
          1 1 0 -1 -1 0
          -1 -1 0 -1 -1 0
          -1 -1 0 -1 -1 0
          -1 -1 0 -1 -1 0
          -1 -1 0 -1 -1 0
          1 1 0 -1 -1 0
          -1 -1 0 -1 -1 0
          -1 -1 0 -1 -1 0
          -1 -1 0 -1 -1 0
          1 1 0 -1 -1 0
          -1 -1 0 -1 -1 0
          -1 -1 0 -1 -1 0
          -1 -1 0 -1 -1 0
          -1 -1 0 -1 -1 0
          1 1 0 -1 -1 0
          -1 -1 0 -1 -1 0
          -1 -1 0 -1 -1 0
          -1 -1 0 -1 -1 0
          -1 -1 0 -1 -1 0
          1 1 0 -1 -1 0
          -1 -1 0 -1 -1 0
          1 1 0 -1 -1 0
          -1 -1 0 -1 -1 0
          -1 -1 0 -1 -1 0
          -1 -1 0 -1 -1 0
          1 1 0 -1 -1 0
          -1 -1 0 -1 -1 0
          -1 -1 0 -1 -1 0
          -1 -1 0 -1 -1 0
          1 1 0 -1 -1 0
          -1 -1 0 1 1 0
          <InformationKey name="L2_NORM_RANGE" location="vtkDataArray" length="2">
            <Value index="0">
              1.4142135624
            </Value>
            <Value index="1">
              1.4142135624
            </Value>
          </InformationKey>
        </DataArray>
        <DataArray type="Float64" Name="Velocity" NumberOfComponents="3" format="ascii" RangeMin="0" RangeMax="1.4149911425598451">
          0 0 0 0.31853382682736453 0.024337469023948073 0
          0.7322384692443333 0.1003949677211054 0 0.5148741771520481 0.03669282822675609 0
          0 0 0 1 0 0
          0.7173917693469337 0.026501162734483486 0 0.3695778639808056 0.0217202899419916 0
          0.6437671837491534 0.0381876832031066 0 0.31164155241331243 0.00485112655870537 0
          0.6663678887199309 0.028908931942012175 0 0.5620717404888477 0.03285184953292223 0
          0.7022488957792402 -0.09766113716354996 0 0.7198250666882618 0.03350393495206193 0
          0.6861665706943799 0.047658443376586285 0 0 0 0
          0.505273176031471 0.026690704544982742 0 0.7274953685010248 0.06133763137361172 0
          0.605409775360616 -0.004500597975691377 0 0.6491395030161808 0.04401102144680061 0
          0.6612529064170315 0.05770593832047421 0 0.6874710485584019 0.06470525529643041 0
          0.4235921826979547 0.03643075100280443 0 0.3487383019015993 -0.02847059536739835 0
          0.7343119464578366 0.09949012049155743 0 0.6428415252032078 0.08013932734228046 0
          0.7444033964245875 0.11941545218992415 0 0.7156421756810513 0.1015380797100209 0
          0.32043331951416076 0.012134244409579057 0 0.569545553733269 0.050535772287617624 0
          0.44452515876247767 0.003936969557959031 0 0.6010264057729003 0.0903246284543099 0
          0 0 0 0.6201303624671426 0.08464300307211384 0
          0.7370330891058772 0.15841930356257605 0 0.7590368333468082 0.15534528985341797 0
          0 0 0 0.7806401658616744 0.19158773378433416 0
          0.6535122330940394 0.13992352594580004 0 0.32074634719385287 0.01050208427359435 0
          0.5645772819449274 0.08523373997381833 0 0.20032326778771084 0.005390323092979548 0
          0 0 0 0.46315927396106055 0.053898244096254745 0
          0.7664332617839931 0.18320920791993192 0 0.7596322313946041 0.22667089010967467 0
          0.8295808641044946 0.24629927933431542 0 0.6803742418916476 0.21054045888329512 0
          0.5146555518001912 0.0982216243655428 0 0.8152354572944529 0.2844047500618161 0
          0.3052572977709789 0.0267030391241532 0 0.4604363855899695 0.02471126881314264 0
          0.7952301519436821 0.15329198166193309 0 0.8787125459610657 0.2757184758667302 0
          0.5538640038326746 0.16841650085219667 0 0.6938178744528554 0.291194658595879 0
          0.8730338737695512 0.34247235239130164 0 0.3444077753771519 0.04987162272042698 0
          0.8019593910225542 0.3702165293884815 0 0.5903065211983963 0.2545776237658368 0
          0 0 0 0.9504605878585112 0.36356625648662133 0
          0.7084735336041719 0.37228521053500296 0 0.1820784135567455 0.011536994111679704 0
          0.9841837341570698 0.2371681720320408 0 0.366079936981324 0.09376266530635932 0
          0.4548712023436946 0.19076047577945635 0 0.8762615978174423 0.42296861646282313 0
          0.5927188618231569 0.3320545312717893 0 0 0 0
          0.7474249383763287 0.10269540982513974 0 0.46768171482217896 0.26635456686258707 0
          0.745057189057714 0.46191945025795933 0 1.0549183500501085 0.3582644386163085 0
          0.966846840372634 0.4617769135060587 0 0.3220530525857649 0.1255534399718784 0
          0.20961550362582057 0.03649960118478196 0 0.5678160863019762 0.4105073019442932 0
          0.8524155718780051 0.5110912688707269 0 1.117075504586955 0.28624916592187344 0
          0.4643376026255787 0.3404454960734144 0 0.7284195645163131 0.511737810706107 0
          0.33805059319701963 0.18856725060392493 0 0.2395719946021085 0.06439098929708177 0
          1.035038374493216 0.19323852239524908 0 0.6091012861005111 0.4932354189602586 0
          0.9628016897725179 0.5214707686160872 0 0.33983880208150147 0.2582419521428546 0
          0 0 0 0.8326409908342044 0.08445214574436141 0
          1.1911915344255681 0.3821193415568439 0 0.7911586557248935 0.5620002447079608 0
          0.4385335033314753 0.41880845753917717 0 0.6422484360745063 0.5513615026455972 0
          1.2246726247564361 0.2760759892824223 0 0.22819561637173266 0.11889599097076128 0
          0.3120150242453159 0.3047991194231856 0 0.11901039097172195 0.016227912084658288 0
          0.23975751410982218 0.182336767440013 0 0.47733543919006644 0.010992323306622098 0
          0.9337828074323326 0.5619530320280702 0 0.42228897460630277 0.47595036249939154 0
          1.148702204597446 0.4714605891942991 0 0.24308278371756475 0.24420557163672527 0
          0.6972624677297242 0.5849858559657677 0 0.2782978132325643 0.34461159386522433 0
          1.1689834008843767 0.1422501688907125 0 1.2948491833846318 0.33089364022925877 0
          0.13654986951928275 0.04354366855792412 0 0.5219887271620915 0.5560241377905305 0
          0.8063856395511646 0.5695754408229192 0 0.20052040968080076 0.2655908447141561 0
          0.32551603331551565 0.4529355725633212 0 1.0820588533376092 0.4846542190711894 0
          0.9178601665047871 0.029079148754577545 0 0.13225534866407687 0.07027918868518576 0
          0.557258903774511 0.556098368812437 0 0.21643518504078288 0.34537001621462976 0
          1.2711384179206917 0.357736730132199 0 1.3481330651324246 0.19598353054006903 0
          0.13839574924931503 0.12215462887532659 0 0 0 0
          0.15072565455892584 0.19004917636328358 0 0.32679501726539356 0.478997093730278 0
          1.3563737362724635 0.2595970267866558 0 0.16703788229801309 0.277033020197475 0
          0.05733068781752885 0.008080150897133447 0 0.6567175629417084 0.5060737315486293 0
          0.15545577783905962 0.32609860370509075 0 0.9883641627529713 0.4230469132102081 0
          0.36403788937399395 0.4544046800579191 0 0.10892045059090465 0.19409060948254883 0
          1.181082892199696 0.33973537454023806 0 0.07580039418100651 0.030402832495656833 0
          0.10037558663724729 0.12724725162404213 0 1.2501893740893864 0.05993302229405297 0
          1.3158832923726187 0.25599634277294603 0 0.16267913961224864 0.34162067783309347 0
          0.08342102434583426 0.18864977146235848 0 1.4027427503077834 0.15671898450906524 0
          0.4292720844650122 0.35759383548572066 0 0.08369523964864865 0.09290294222857304 0
          0.07388983516567875 0.23919231144618405 0 0.06822005988938247 0.04286645579586884 0
          0.7665399198333557 0.30804511837068543 0 0.07658747486029292 0.1257637260613441 0
          0.06771952854006037 0.20409183491503816 0 0.0708489317833476 0.2057665906482069 0
          0 0 0 0.0846605416841284 0.2159044849363398 0
          0.9965000480692909 0.2546615763287013 0 1.4001543532646545 0.08355691722522929 0
          1.1958157980448432 0.2123249129411626 0 0.04103439684107361 0.1538276310821446 0
          0.05695875578582995 0.055347812653557454 0 0.04638222228407566 0.11747077562834879 0
          0.92570724014989 0.00789730847215953 0 0.03209664159638989 0.13551040311828694 0
          0.021614514414285545 0.12027308670245737 0 0 0 0
          0.052858136244671707 0.08291468866276086 0 0.40246193742055925 0.0707550607602896 0
          0 0 0 0.7078876582414926 0.11322734529905838 0
          0 0 0 0.017513786572505387 0.09095418008291822 0
          0.028902486248579103 0.10505718894249821 0 0.03719497896502339 0.013347650803621224 0
          1.3299224924870605 0.07359889420878074 0 0 0 0
          0.011038072097369884 0.06723816061101646 0 0.0398991068049613 0.05360589925125274 0
          0.9291981112815128 0.07729990883546964 0 0.03154819489913412 0.07250015806297183 0
          0 0 0 0.018367844939082736 0.0743669074158706 0
          0 0 0 1.4148979691989714 0.01623792719045582 0
          0.3550906389545155 0.02812862183596406 0 0.006589225871715495 0.05402139192866532 0
          1.1313501191391409 0.032739605059595306 0 0.017720352386767318 0.06479215472589715 0
          0.6751019831436208 0.04067796328176191 0 0.030134765092045677 0.02147705503777723 0
          0 0 0 0.006770252200438505 0.04184835180467656 0
          1.4067532327283903 -0.020746839237077416 0 0 0 0
          0 0 0 0.013228602722442296 0.04475370089305962 0
          0.023496041550371993 0.02478254095938907 0 0.0047673698833006475 0.033341748413096436 0
          0.01810450987513743 0.038221742324525854 0 0.33600210514327594 0.00044317603658592004 0
          0.012234079001098573 0.03791862655349999 0 0 0 0
          1.2550994898263108 -0.040866621607478885 0 0.6599667747662156 -0.021000580056162184 0
          0.9413574235519426 -0.05104964684930965 0 0.004295274716606668 0.025452892635832634 0
          1.1537766369915659 -0.08725980625259036 0 0.016216781435825105 0.005540042707795132 0
          0 0 0 0 0 0
          0.013779161908249413 0.021897824908753073 0 0 0 0
          1.3146408644776664 -0.10573523321698881 0 0.007814234059687043 0.02457053408250831 0
          0.003588932025359056 0.019168902743415574 0 0.3415374574159465 -0.025705616733115166 0
          0 0 0 1.3933952834964434 -0.11461924681732719 0
          0.00741108346464126 0.018824598279214753 0 0.6735093279778235 -0.11837107089548993 0
          0.010880861479669811 0.009392709076039955 0 0.002803226439255943 0.013625108552139617 0
          0 0 0 0.9255800296388378 -0.1614328779947637 0
          0.004614342541844745 0.014257362617436601 0 1.3757964965276948 -0.11470555566909856 0
          0 0 0 0.0024278942101734666 0.009754414483831735 0
          1.1290068133670195 -0.1865963013672156 0 0 0 0
          0 0 0 0.3888180311286269 -0.1658407092465468 0
          0.005823572228553906 0.007430476607188837 0 0.004545087472253895 0.009164438490745006 0
          0.9463630258462866 -0.04475727582623076 0 0.001423017868617793 0.0063216331124532855 0
          1.2800866737180845 -0.1944468517459556 0 1.2127960151824468 -0.08874951574763797 0
          0.005778808092012199 0.001939407584097452 0 0 0 0
          0 0 0 0.6680793205450922 -0.22882784139112658 0
          0 0 0 0 0 0
          0.0008398643893774982 0.004314320733884032 0 0.045624746134021246 -0.07134853186535642 0
          0 0 0 0.0025286602916063123 0.005018298890020646 0
          1.3575519092831465 -0.19488017330327687 0 0.8974010039520639 -0.2596193482879338 0
          0.0031795683710592326 0.0024150615634891677 0 0 0 0
          0.025698267449911962 -0.03087622699347527 0 0.0009791951492036642 0.002429116027779559 0
          0.0021329318732012754 0.0029633057552414634 0 0 0 0
          0.01474530690472004 -0.005947192925005144 0 0 0 0
          0.3075216931928848 -0.20235907126116937 0 1.3253651639974382 -0.1695649412402708 0
          0.0009405927292078765 0.0016487669485760364 0 1.0563062588820555 -0.2901916871189822 0
          0.0061545530933262375 0.010931743865902907 0 0.0017799844428954617 0.00041768737154626405 0
          0.0007192843230732427 0.0013018333184023525 0 0 0 0
          0 0 0 0.1008174006803796 -0.10186622493052883 0
          0 0 0 0.0020675667914803394 0.016363964598866517 0
          0 0 0 1.2267886981354392 -0.2809797081501642 0
          0.06352367776103962 -0.05321860595423878 0 0.0009317897323142529 0.0006580721456234447 0
          0 0 0 0.00032099250255772095 0.00041008833755340143 0
          0.25649225458590225 -0.007528198744706531 0 0.535979685161786 -0.2730089551770219 0
          0.0011914297003808216 0.01949339862611983 0 1.1663932501115215 -0.13849804795522935 0
          0 0 0 0 0 0
          0.0009292445337452167 0.020583689782686643 0 0.00017647637161141404 0.00010960366327743859 0
          0.2881894866077128 -0.20257412954384696 0 0.016504034333450716 0.0007191224522884629 0
          0.05138346326133276 -0.03233496851708397 0 0.7694498646332538 -0.31560467442130846 0
          0 0 0 1.292910225270944 -0.25269226746015216 0
          0.1375872248971015 -0.11152024689765871 0 -0.00001063254417692387 0.021553954732140314 0
          0 0 0 0.00997542469808585 0.015200962965343704 0
          0 0 0 0 0 0
          0.004214757183986661 0.023977678541909124 0 0.00009344969991443912 -0.000155393801184089 0
          -0.0006447790402672152 0.020931099758149375 0 0.003671971114465337 0.028533564680009352 0
          0.7979237136260378 -0.08966368587904423 0 0 0 0
          0 0 0 0.4777590630402458 -0.27207861943927447 0
          -0.0005601521218024094 0.020063848626760597 0 0.93870880287308 -0.33176888326609016 0
          1.250835424401665 -0.22057032972702037 0 0 0 0
          0.03338625281275582 -0.006339844320943794 0 0 0 0
          0.3042961096498723 -0.20540240757478878 0 -0.00034795815765360436 0.0330017514060544 0
          0 0 0 -0.0009086931748967374 0.018653750730540233 0
          0.012314924117544776 0.02579350331020292 0 0 0 0
          -0.0008931178858986385 0.0338203520961505 0 0.15680021842384842 -0.10975898663581661 0
          0 0 0 -0.0012123786467698088 0.01691303438027863 0
          0 0 0 -0.0020797659428989147 0.03038564086436539 0
          0.6567781941860225 -0.3148242209579708 0 0 0 0
          -0.0014844569833890816 0.01444408927117057 0 -0.0027732338285019293 0.028282696808904148 0
          1.0973928396621035 -0.1595158227265769 0 0.465632691549146 -0.2643363125905604 0
          0.0027185784264579364 0.036099851233646695 0 0 0 0
          -0.0016799395425016195 0.011795334605734743 0 1.2171240335699272 -0.2957483779850058 0
          0.049687705295501684 -0.0125645150768173 0 -0.004952641463957277 0.02714723796808148 0
          1.0440729148069712 -0.3526697079172583 0 0.29731316906280003 -0.1904537762438027 0
          0 0 0 -0.001452679565890328 0.009279310915159 0
          -0.004635401785048421 0.03748782525934316 0 0.13372261476684288 -0.08477316946259947 0
          -0.00543904518009 0.022939667400440684 0 0.027142281373985364 0.010394699178375622 0
          0.8177823259193128 -0.3456052097098882 0 0 0 0
          -0.0013818633685133877 0.006766960052514432 0 -0.004799022360559699 0.017485513570729444 0
          0.6249916567171981 -0.3020146530317743 0 0.7168064174995472 -0.08058062645046483 0
          0 0 0 -0.001353135006912249 0.004441875236837581 0
          -0.010990576129871348 0.03017130195555371 0 -0.00515211455603854 0.014283423690717183 0
          0.0031724651126309386 0.029810720505246878 0 0.45146849458446964 -0.2458585973239238 0
          0.07181709138533143 -0.037669375799357335 0 0 0 0
          -0.0011538631927513535 0.0023362856049028075 0 1.1136254627967963 -0.3436860377602779 0
          -0.00481791790646738 0.010138886903541821 0 -0.011291402816326965 0.02293996015972877 0
          0.29512311577352207 -0.1780052479990955 0 1.1626727963376455 -0.28872947959151263 0
          0 0 0 0.9587700741561989 -0.34850761016903414 0
          -0.004366936176370225 0.006629962640360295 0 -0.0004662311618000019 0.0005780322688800906 0
          0.04032275996505116 -0.005606974807602641 0 -0.010754382646564748 0.015615513708462894 0
          0.15043480079115418 -0.09648120516179064 0 -0.003171328433502082 0.0034459601804395644 0
          0.6736808657563387 -0.3038011816956947 0 -0.013686333006337398 0.023541919018252592 0
          0 0 0 1.0265025065047526 -0.20233905754040823 0
          0.3240475545763545 -0.017512818322407395 0 -0.00822371219874719 0.0073183623743412725 0
          -0.01950871438262297 0.020886369560951724 0 -0.017241468068946813 0.01708509278657626 0
          0.09684510424886707 -0.05563960671061313 0 0.4240324866835303 -0.23272456177434472 0
          0 0 0 -0.0036974408228139465 0.0016958188110874437 0
          1.0521666868729542 -0.3112884064249601 0 -0.003132475547423473 -0.004542012095310157 0
          -0.016210501697884322 0.009245831786544277 0 -0.021194816836193748 0.009083256336073573 0
          0.8269962805801175 -0.31314151342321445 0 0.19521337860148721 -0.1282710747629897 0
          0.566116700018454 -0.07255621498247176 0 -0.024151404941631194 0.010849346624649675 0
          0 0 0 -0.009494845644197211 0.00265521060725394 0
          0.5634995920274781 -0.2715938326623333 0 1.1042535246802043 -0.2593592035496013 0
          0.040298249877392625 -0.04934041712050377 0 0.33951727513174224 -0.20375582921041538 0
          -0.009468409534508329 -0.015023165842992757 0 -0.02371763051405113 -0.0008497556959298339 0
          -0.01676289859491438 0.0022769091768103868 0 0.9874311376719542 -0.3029081678406941 0
          0 0 0 -0.02297379028553805 0.0033243470960489605 0
          0.7488854196354 -0.31871222284879863 0 0.48168721592813524 -0.2672701015965764 0
          0 0 0 0.12248870985733483 -0.11410057554976365 0
          0.023041521360469223 -0.0532481585481967 0 0.9912917383479714 -0.09023733642859282 0
          -0.009775998091828855 -0.023902661827550978 0 -0.01663976093064055 0.001168618995481473 0
          -0.01922405000118379 -0.006636819841044556 0 0.2676689255982445 -0.20652652908731484 0
          0 0 0 1.005503902738542 -0.3710887485675563 0
          -0.013929654298969566 -0.000008998831726243832 0 0.0888183020649151 -0.12420566168289893 0
          0.018280865748197754 -0.054326321152216805 0 0.5602556249133945 -0.40824985357023 0
          -0.003053385125097887 -0.016159706267083462 0 0.23127891321612482 -0.2774920525296848 0
          0 0 0 0.022042575209126468 -0.03499110929120214 0
          0.08434183813485988 -0.10716538910307315 0 0 0 0
          <InformationKey name="L2_NORM_RANGE" location="vtkDataArray" length="2">
            <Value index="0">
              0
            </Value>
            <Value index="1">
              1.4149911426
            </Value>
          </InformationKey>
        </DataArray>
        <DataArray type="Float64" Name="Pressure" format="ascii" RangeMin="-8.284151170393509" RangeMax="36.943948255362315">
          36.28448893407572 36.442522535360865 36.76867274538915 36.219214916399494 36.036900609717264 36.810077569939004
          36.08168268593567 35.53018593133553 35.39015244073273 34.626868489544826 36.132447360373725 34.413602729562534
          36.943948255362315 35.34072818183004 34.42359358645456 33.62481092847335 33.47328544611609 34.53455483182036
          36.518342446572504 35.57447393065186 33.33851751047928 34.791440678475574 32.41039708324588 36.90872563144393
          33.535785524005995 32.24601606061768 32.36418643935218 33.961268908140696 31.48492243465813 34.959169864529606
          35.93359394001226 30.93005369910708 36.729015429373 34.22973698008955 33.12902969798233 31.21220133050556
          30.404497589045555 31.626260627116025 33.58055485933611 35.21484489704886 29.5556524220439 35.625441233716636
          36.74932527393066 34.394363600923626 29.718176789690837 32.195294430640416 30.210148673429718 32.86291210706439
          33.903982508599526 30.834527780614124 34.50823701914123 27.60372496638588 27.93082036681772 28.577041383569107
          33.461024430241594 32.13928928650807 29.416517449292805 34.03002846406703 30.295370190519424 32.84739685201231
          34.73817764874197 27.59138924951572 31.24621210044941 34.116762161756625 25.923348138626945 33.804313224450496