<?xml version="1.0"?>
<VTKFile type="UnstructuredGrid" version="0.1" byte_order="LittleEndian" header_type="UInt32" compressor="vtkZLibDataCompressor">
  <UnstructuredGrid>
    <Piece NumberOfPoints="162" NumberOfCells="295">
      <PointData>
        <DataArray type="Float64" Name="Velocity" NumberOfComponents="3" format="ascii" RangeMin="0" RangeMax="1.8884658858418473">
          1.7959106848530852 0 0 1.5463746263834028 -0.03837262153898531 0
          1.4958462539260446 -0.01932343725857669 0 1.4971453953775986 0 0
          1.7803750327642094 -0.007449046496980039 0 1.5683105533394608 0.001034323698932131 0
          1.5169951828341 0.004492396398133015 0 1.5449413784206618 -0.00009712283942509004 0
          1.5197068045954985 0.0017743782855144073 0 1.5470291470642792 0.0024305300741048683 0
          1.5357777491084694 0.008904878265640766 0 1.5693285180966654 -0.002228908097901841 0
          1.540020841223208 -0.006499838140789863 0 1.5194356532907074 0.0002432013925861426 0
          1.5115925313395462 -0.001317177924980274 0 1.5799334780450116 -0.0063968364735439015 0
          1.5351663192064708 0.0023416735062839616 0 1.5010603719592854 0 0
          1.7865209229224106 0.009493064275554023 0 1.5418215482156141 -0.002049569920730583 0
          1.4898298963461059 0.004108811835341182 0 1.5225735840871153 0.009854341109456433 0
          1.499513279192583 -0.003996375562214605 0 1.468134321091972 0.002619476414869204 0
          1.5529729688666019 0.0013436475072070367 0 1.5143887591053713 0.0030031432798716257 0
          1.4627682840124372 -0.009018183165312915 0 1.5238006754035722 -0.005494484465328582 0
          1.488416811780497 0.014290452581295063 0 1.474420490945913 0.0013946203324066674 0
          1.4576727953251674 0.00007282353664217825 0 1.575295734406583 -0.01313211293566085 0
          1.4820698424198158 -0.0027165672965924204 0 1.4532069900876872 -0.006444047977892886 0
          1.5553952929546615 0.0015801166011814721 0 1.4973418887153849 0.0007159183611110814 0
          1.434806894240101 0 0 1.4411026176518316 -0.0029264371967576905 0
          1.510539219354997 0.00000801832412945791 0 1.4556429259349386 0.002952189302148814 0
          1.434737171395778 -0.0003168749735960594 0 1.8049952272383927 0 0
          1.4672075821119446 -0.0024249282996789967 0 1.4204996448151128 -0.0065650842078602955 0
          1.5547480916304663 -0.004573778723372973 0 1.5004827815219082 0 0
          1.4749352178084605 0.004382412523798951 0 1.4245636794734597 -0.000030527081254283495 0
          1.4165877989698026 0.00038703098826153165 0 1.4422220329824647 0.0015146491347949598 0
          1.397255599529752 -0.0016999285802259609 0 1.4025093387413972 -0.0039372796967576396 0
          1.449777417685667 -0.002598775494070532 0 1.4973561496886119 0 0
          1.4614846019304486 -0.001065191025499037 0 1.3969894835815697 -0.00009563738387340787 0
          1.4082311821566031 -0.000985321304326256 0 1.3851770776491414 -0.0028336177701272034 0
          1.4232345250794116 0.00019644009618127733 0 1.3724021888806617 -0.0035532729331177286 0
          1.3551944289299276 0 0 1.4343563097779388 0.0011237516957532945 0
          1.3785822289760228 0.0027487434442293388 0 1.3663960410005052 -0.0018109742062214877 0
          1.3907222458702657 0.0012586158068088604 0 1.3574906137672544 0.0019099455688469796 0
          1.4229235818606898 0 0 1.4079616355592195 0.0010625464913369687 0
          1.3388881626676705 0.0007121636889469984 0 1.331754397516523 0.00006841669998915948 0
          1.4073487598582275 -0.0027614094888447297 0 1.3515376254642069 -0.000852923181225762 0
          1.3640882156850496 0.0019367122297541672 0 1.3397190630220717 0.00014316945790648146 0
          1.3767023598191688 0.004086295917624425 0 1.327083530307723 -0.0006796340358686259 0
          1.3180901310260187 -0.0033646593356858392 0 1.3229439789079325 0.0025505285163294547 0
          1.3342203832696105 0.0012784691747652066 0 1.3020231662853181 0 0
          1.345277377610028 0.004996069809340253 0 1.3071542929186666 -0.0011204736480641894 0
          1.3610556875871072 0 0 1.2999198238153309 -0.000011674260457020247 0
          1.2864528711902643 -0.000153646039641131 0 1.3409157084929517 0.002135979167193894 0
          1.3049251082127262 0.0022372137976439596 0 1.3195441585992749 0.004801151945891657 0
          1.2914066999106812 -0.00017998802199407915 0 1.2799564128082377 -0.0010843763492362057 0
          1.2789828707424387 -0.006569761860744608 0 1.2688604012656368 -0.004791413131054929 0
          1.2646291656151698 -0.009185129303452666 0 1.2875952893502456 0.007198209948479431 0
          1.2749284221715982 0.003756900604255628 0 1.2603595619365966 0.0038769445462720244 0
          1.299245253259968 0 0 1.242918221380898 -0.005387071820075032 0
          1.240539816403544 -0.009721827509644475 0 1.2362372162294557 0 0
          1.2807885315512881 0.004731300408318373 0 1.2327202104782904 -0.016911196418234492 0
          1.26587524974357 0.008369329206646292 0 1.2424300070816952 0.008913740833147367 0
          1.2227629815594319 0.003429646219068744 0 1.21362070645612 -0.010417304506534882 0
          1.2161027787409586 -0.02199536198238808 0 1.236969100042404 0.01684131488124837 0
          1.214972760179911 0.021325874320393085 0 1.2112024375967427 -0.013332548079264761 0
          1.1610362678400745 0.004698280944542584 0 1.2334368370313138 0 0
          1.1636525251311496 -0.04250572972871434 0 1.2326280528793705 0.022491754669464598 0
          1.1967578273449615 -0.038583046248326536 0 1.1499078907908564 0.048692981785820856 0
          1.2600352497904233 0 0 1.2167303104299858 0.010255159711502773 0
          1.097770725460872 0.00013590354845768003 0 1.1742967273583695 -0.03855459884201007 0
          1.119492864052975 -0.2046798574763637 0 1.2102931733481086 0.014668091578610376 0
          1.2185561304429624 0.04624586590243283 0 1.3741766170814316 -0.22349904233706103 0
          1.1355246847338136 0.226979719319588 0 1.276187102528913 -0.06488082680590943 0
          0.7166995328837101 0.07396306351146667 0 1.1802095463718785 -0.08145475407215554 0
          1.0081521776826938 -0.5075995085527053 0 1.2650922784272745 0 0
          1.4376855082999183 0.21641456411219037 0 1.1847939155341498 0.048419696576152305 0
          1.0291470137715035 0.533064928558438 0 1.8657092716711317 -0.05373483083194516 0
          0 0 0 0 0 0
          1.2616467925315655 0 0 1.2922217293405471 0.050232962779415025 0
          1.2058702169060134 0.05578831116596977 0 1.8875756998066588 -0.05797740497672711 0
          0 0 0 1.159813297023951 0.0874781692540065 0
          1.6326561428054982 0.5730375560195227 0 0 0 0
          0 0 0 1.5796055262573971 -0.5929143953672552 0
          1.0711878434231141 0.1280693797060479 0 1.1501512873289472 0.12837753220721054 0
          1.1828508584150246 -0.06979727318039039 0 1.1702704668374264 0.4432479363888895 0
          1.2345629052701677 0 0 0.6565995332897446 -0.0057065079181155 0
          1.102005137160814 0.1266393527234711 0 1.0969531940034503 -0.4289144865421078 0
          1.0360118191165888 -0.10118334685072711 0 0.8657451117163671 0.03152432826730944 0
          1.1512210794148747 -0.13646658855185564 0 1 0 0
          1 0 0 1.0907553031542738 -0.11366347160181521 0
          1 0 0 1 0 0
          <InformationKey name="L2_NORM_RANGE" location="vtkDataArray" length="2">
            <Value index="0">
              0
            </Value>
            <Value index="1">
              1.8884658858
            </Value>
          </InformationKey>
        </DataArray>
        <DataArray type="Float64" Name="Pressure" format="ascii" RangeMin="0.979883222803501" RangeMax="15.071906250297268">
          0.979883222803501 1.5692569175912865 1.3512130527969453 2.557434009047983 1.3176854068875254 2.321238710773044
          1.7716775496315562 3.4454925611605893 1.3938561807262795 2.972298902329958 3.8412852161782802 2.534182967797922
          1.110621489097782 4.0995183369276 4.539335077762644 2.037649350815637 3.6878838106894545 4.957644007052869
          1.3507471854038684 3.2276278651146244 5.147985772778583 1.4974723437692077 4.693646664098412 5.521730769347283
          2.731840100255157 4.298582235592369 5.966989425470419 3.8243160665297067 1.2903135225612505 5.696838597664647
          6.055323156979721 2.1681412640335695 5.268471514370903 6.396719766062375 3.3786636720045675 4.881784795882899
          7.099723668926404 6.574203593740573 4.449897107549457 6.229833984697805 6.96636812753855 1.3217047829529749
          5.810639634039223 7.3368716661432085 3.8115116924943497 2.299176018338992 5.442939942470459 7.086593159251124
          7.443005984005299 6.748597097232336 7.791884828523246 7.921950577992876 6.343740378549514 4.98457910385629
          5.98564409565931 7.9202893603768745 7.577313606746406 8.230013154637868 7.245643352360747 8.557108658697274
          8.804482645808854 6.838684678090487 8.344514640075799 8.657211424174877 8.03472821740113 8.96293043380896
          6.983658109635707 7.71934958476222 9.242057826497296 9.518834231993184 8.010588692484665 9.05021093153715
          8.786931537324966 9.364277881243835 8.4750545872122 9.632163153875688 9.88981481425623 9.734010152590185
          9.457643801479728 10.231486365495485 9.18464439806106 9.987779760125779 8.789098102539372 10.235008754374595
          10.473364771822615 9.5222178341389 10.088982469881774 9.816220307029743 10.306761011113453 10.570872307372019
          10.780658748593664 10.806436112252854 11.008127570799077 10.404493121792905 10.631342955791224 10.858530841078755
          10.230938920691521 11.074204528346302 11.309133924417587 11.508974413696194 10.74086545110828 11.524244543689754
          10.90818054439012 11.13435612648902 11.304569059829964 11.524997076925173 11.841434274939576 11.369001434606739
          11.538001707064968 11.989972706177186 11.728757527340951 11.367094273125735 12.018294407953347 11.75134695137038
          12.362217829255203 11.950636486582832 12.354347893588141 11.71028511874487 11.957894912517997 12.525296887656143
          12.192515822039992 11.981844463402 12.180608924857491 12.575957184174545 11.984153098602494 12.77333334643475
          11.902762680187832 12.891601958934505 11.896001510345704 12.071125012766455 12.22205181784838 12.309398119885792
          11.417294455291893 12.487498910701802 12.050868785297498 13.049648254973338 13.451506965598295 12.534747900962037
          13.402146867402017 11.99858732524036 12.14751197490483 12.721421635263152 13.36758231928495 15.044134733030788
          14.199540192203852 13.106458596118747 13.906205761976391 13.744196483234582 13.124433841241585 14.448134347753534
          13.126181761493845 15.071906250297268 13.968164214326745 14.130309790963567 13.64671216654057 14.805510434658004
          13.355380352928792 13.848970042391587 14.40907591601596 13.599960778489928 13.936244368913634 13.516778706164565
        </DataArray>
        <DataArray type="Float64" Name="Temperature" format="ascii" RangeMin="227.16876930137983" RangeMax="600.0000000000001">
          299.99999999999994 298.4334606003308 298.4337033496101 299.99999999999994 298.6111055551842 298.75380182547445
          298.9725940296063 298.510540246146 298.8666208521899 298.8719338965284 298.45704217479437 298.78708618740114
          298.948340312786 298.87631294465064 298.7492171011572 298.75828097449664 298.8077642751588 300
          298.5470303436518 298.8304192599895 298.8735972913758 299.0081041699221 298.8167296184428 298.5423864398637
          298.8573752403323 298.81722906361705 298.4353609263002 298.87364111391366 298.32635637246545 298.8019151225719
          298.87463532278616 298.69549080606777 298.8203872574387 298.7649489053171 298.5192928169271 298.8485701327099
          300 298.8143988401343 298.7656215318275 298.82499204208904 298.87707214918913 300
          298.8628899134331 298.55678214879646 298.46543057915846 299.99999999999994 298.53828116748133 298.8348610981624
          298.811488237508 298.78687863024385 298.85383264131735 298.4412701026389 298.9663696594121 300
          298.3720188254015 298.82423579448863 298.8144530893972 298.82918978436396 298.84850882548477 298.70778998993023
          300 298.74112490375194 298.8197392748248 298.8176900190611 298.8654339277215 298.8894384141614
          300 298.5699180403725 298.50077113230606 298.42322187821213 298.43637498002147 298.81953925275127
          298.8542517087303 298.8043967807244 298.7840824233314 298.8781854688494 298.7586531772938 298.81659574680685
          298.8678108395744 299.99999999999994 298.54447556042624 298.8147293441952 300 298.87741582239306
          298.5220454992166 298.4231052037975 298.85831437784435 298.7766982724479 298.8196192875116 298.80920362375946
          298.40510837166187 298.8659132256435 298.78755737867243 298.5277777312455 298.8737234837876 298.81353976104367
          299.99999999999994 298.81782811663646 298.8079700185058 300 298.4082849227892 298.3872438286171
          298.7681611872494 298.8553080896887 298.7625309565873 298.903614260125 299.5418009655376 298.4947832507852
          298.9360928925008 298.59033834640195 299.2589285358514 299.99999999999994 297.5896017115622 299.58493039051126
          297.69413784331437 297.7473132084659 300 298.1759518440314 297.1512529075986 300.2508261350613
          295.0688748634764 299.06165872216104 298.2800002319553 284.65109619941455 293.69737695851154 298.07004100346586
          341.5269877876964 301.15926360810187 388.48696241351377 299.99999999999994 284.89169288390667 300.6572015477114
          382.4666250235128 296.8972713548062 600 600 299.99999999999994 297.9533473139954
          298.2690425818294 291.864369898639 599.9999999999999 302.20319881779676 311.4721150998164 600.0000000000001
          600 305.49757173197355 300.44548194874216 298.13549303150563 299.48952985992213 269.42399078348404
          300.00000000000006 227.16876930137983 299.0731647072306 268.16207748352406 302.011718454597 306.65056134668424
          297.6999965819866 300 300 298.8216145500376 299.99999999999994 300
        </DataArray>
        <DataArray type="Float64" Name="Density" format="ascii" RangeMin="0.5791329181030492" RangeMax="1.5296105707243404">
          1.158265836206099 1.1643458148521177 1.1643448677603376 1.158265836206099 1.1636531408160045 1.1630973354602523
          1.1622461650361833 1.1640451642856717 1.1626582783685375 1.1626376098002216 1.1642538180028086 1.162967768439256
          1.1623404582151744 1.1626205751747878 1.1631151848146002 1.163079897663128 1.162887288771556 1.1582658362060987
          1.1639028881374311 1.162799127753838 1.1626311390867592 1.1621081369231443 1.162852398878484 1.163920992946921
          1.1626942469878703 1.1628504552789776 1.1643384007287296 1.1626309686152283 1.1647638347715925 1.1629100526992588
          1.1626271011139826 1.1633243940981877 1.162838165263704 1.1630539396773445 1.1640110345394945 1.1627285039628064
          1.1582658362060987 1.1628614692283663 1.1630513212338005 1.1628202463497015 1.1626176218976734 1.1582658362060987
          1.1626727927394351 1.163864871402086 1.16422109651882 1.158265836206099 1.1639369983070675 1.162781844075709
          1.1628727961946295 1.162968576313702 1.162708029509773 1.1643153466754967 1.1622703625751778 1.1582658362060987
          1.1645855808790317 1.1628231891499021 1.1628612581128164 1.162803911868757 1.1627287424905421 1.163276494642284
          1.1582658362060987 1.1631466908808763 1.1628406868471701 1.1628486614686848 1.162662895789632 1.1625695197042665
          1.1582658362060987 1.1638136659663199 1.1640832603002367 1.1643857628600955 1.1643344444359078 1.1628414652226604
          1.1627063991061795 1.1629003943901979 1.1629794600955476 1.1626132911531801 1.1630784486621144 1.1628529198433677
          1.1626536490687818 1.158265836206099 1.163912848193028 1.1628601830453233 1.1582658362060987 1.1626162850267627
          1.164000301152772 1.1643862180997366 1.1626905933174525 1.1630082026844357 1.1628411537714305 1.1628816872031587
          1.1644564423107848 1.1626610312012486 1.1629659344262668 1.1639779504025045 1.1626306481930606 1.1628648124168117
          1.158265836206099 1.162848124062394 1.162886488068941 1.1582658362060987 1.1644440466917239 1.1645261587033844
          1.1630414348068727 1.1627022892213388 1.1630633525203378 1.1625143835143812 1.160037596561714 1.164106612107485
          1.1623880793370285 1.1637340738691613 1.1611341140660447 1.158265836206099 1.1676474878938252 1.159870592986393
          1.1672374652023512 1.1670290056271433 1.1582658362060987 1.1653513595341445 1.1693699671859739 1.1572982340622218
          1.1776225161755973 1.1619000320754949 1.1649448524594825 1.2207216325574939 1.1831217372803282 1.165765434499971
          1.0174298467968617 1.1538072802369597 0.8944437895755296 1.158265836206099 1.2196907089299636 1.1557340022892746
          0.9085230661380393 1.1703703078044625 0.5791329181030493 0.5791329181030493 1.158265836206099 1.1662220075535559
          1.1649876495865283 1.1905521423615537 0.5791329181030495 1.1498215512646865 1.11560468503087 0.5791329181030492
          0.5791329181030493 1.1374223005827648 1.1565484313760184 1.1655095048515725 1.1602400625636347 1.2897134729960746
          1.1582658362060985 1.5296105707243404 1.1618553312932147 1.2957825883608722 1.1505505569118109 1.1331456539190412
          1.1672144939582947 1.1582658362060987 1.1582658362060987 1.1628333893619471 1.158265836206099 1.1582658362060987
        </DataArray>
        <DataArray type="Float64" Name="stream" format="ascii" RangeMin="-3.7853930830009297" RangeMax="0.05431420215657909">
          0.05431420215657909 -0.351638001944622 -0.7663918133975367 0.0008837274874178624 -1.2300513971149372 -0.7074903913856434
          -1.2031738783167485 -0.6490162663403369 -1.7178789286048008 -1.1450746791001072 -0.30808140781737625 -1.6477889308888756
          -2.2496206412946966 -1.0791794133559571 -0.5862862085673742 -2.1564737678560832 -1.5774736155035687 0.0024617422717565793
          -2.498285704168378 -2.0850023700765745 -1.0044114904937131 -2.676991060498836 -1.494390877855784 -0.5285027928449603
          -2.585236858341125 -1.9834979864920648 -0.2496132366461219 -2.4871679999398664 -3.186500470025592 -1.421731576635902
          -0.9474439630259318 -3.096639383971373 -1.9099499053109297 -0.47298729517523025 -3.007589604733885 -2.4112609524455
          -0.0009336540995827463 -1.3483529050726875 -2.9223728285156283 -1.8156268717552828 -0.8711175254185877 -3.7853930830009297
          -2.311910163587549 -0.41064986126815095 -3.335425666972899 -3.7237905847913395 -2.8239239594598584 -1.7455280342934192
          -1.2690963433539721 -2.2160690528286815 -0.8123751265926304 -0.3947387984966877 -2.7266005232741253 -3.67197524127904
          -3.2517526119019804 -1.647359497581668 -2.119066847036948 -1.2039867075836903 -2.618593044706753 -0.7424690669628132
          -0.006869399180995007 -3.1520413467906234 -2.0239640344134884 -1.5747830492187074 -2.5329312857345445 -1.1283098052393161
          -3.6010081132685214 -3.0546847591709665 -0.6995279235079556 -0.34397884511926685 -3.312026303347638 -1.9469809084838916
          -2.4245121711483146 -1.5007650096629457 -2.965239423331725 -1.0860495893077 -0.6602788842674444 -1.8679853671342357
          -2.355375794728316 -0.01348572510217392 -2.8575936620525044 -1.4529289945244284 -3.512916616239778 -1.0189368557285032
          -0.5920340290154411 -3.171943848462904 -2.2704720122319584 -2.7733983579551396 -1.8070370153892832 -1.3766895209777623
          -0.288510955713131 -0.959016153918959 -0.5351530799719945 -2.676919812234326 -2.173471527329999 -1.7374256834997377
          -3.402489367595668 -1.339340629785928 -0.9196385830422403 -0.021730938016316585 -3.0164492295961343 -0.48464332234092006
          -2.583778978376561 -2.111653936386286 -1.7006241001760616 -1.275668192059775 -0.7900646630355546 -2.496562227984595
          -2.0170292506027745 -0.421366524217663 -1.5753368856404892 -3.26808229850785 -1.1471415541722574 -2.3460071441258856
          -0.7755555106517716 -1.862576151686021 -0.021344389095540834 -2.834877320528443 -1.5130918293846456 -0.4600934214171036
          -1.142941136351605 -2.6342950136319785 -2.2096637307478173 -0.8877052068499962 -1.7431812409633094 -0.2591568485891
          -1.4222123884265174 -0.5123059625347833 -1.247644050905975 -3.1183281296483845 -1.9902170901386924 -2.5455857951402865
          -1.4596197800842277 -0.9825578475325951 -1.3528081264659733 -1.2964226675374126 -0.02946859034992803 -2.790399468513911
          -0.6104788652121527 -1.798486498813527 -1.3808936864115209 -2.419644246621591 -1.078478246597687 -1.2673978569379396
          -1.3570173450754763 -1.5950505561875286 -0.6524226332745734 -0.35562802673254473 -2.1835345958358343 -1.007138564532845
          -2.9094570000187994 -1.2875956420893406 -0.4440348578204344 -1.5243248492038475 -1.990888867470561 -1.267951907527308
          -2.4666325786440435 -0.024362154395360446 -0.8536719618806199 -2.1542516857185525 -1.6613326716715584 -2.677706547730427
        </DataArray>
      </PointData>
      <CellData>
        <DataArray type="UInt8" Name="vtkGhostType" format="ascii" RangeMin="0" RangeMax="0">
          0 0 0 0 0 0
          0 0 0 0 0 0
          0 0 0 0 0 0
          0 0 0 0 0 0
          0 0 0 0 0 0
          0 0 0 0 0 0
          0 0 0 0 0 0
          0 0 0 0 0 0
          0 0 0 0 0 0
          0 0 0 0 0 0
          0 0 0 0 0 0
          0 0 0 0 0 0
          0 0 0 0 0 0
          0 0 0 0 0 0
          0 0 0 0 0 0
          0 0 0 0 0 0
          0 0 0 0 0 0
          0 0 0 0 0 0
          0 0 0 0 0 0
          0 0 0 0 0 0
          0 0 0 0 0 0
          0 0 0 0 0 0
          0 0 0 0 0 0
          0 0 0 0 0 0
          0 0 0 0 0 0
          0 0 0 0 0 0
          0 0 0 0 0 0
          0 0 0 0 0 0
          0 0 0 0 0 0
          0 0 0 0 0 0
          0 0 0 0 0 0
          0 0 0 0 0 0
          0 0 0 0 0 0
          0 0 0 0 0 0
          0 0 0 0 0 0
          0 0 0 0 0 0
          0 0 0 0 0 0
          0 0 0 0 0 0
          0 0 0 0 0 0
          0 0 0 0 0 0
          0 0 0 0 0 0
          0 0 0 0 0 0
          0 0 0 0 0 0
          0 0 0 0 0 0
          0 0 0 0 0 0
          0 0 0 0 0 0
          0 0 0 0 0 0
          0 0 0 0 0 0
          0 0 0 0 0 0
          0
        </DataArray>
      </CellData>
      <Points>
        <DataArray type="Float32" Name="Points" NumberOfComponents="3" format="ascii" RangeMin="0.22994902639587697" RangeMax="7.102112369882704">
          7 1.2000000476837158 0 6.599672794342041 0.9660372734069824 0
          6.6399030685424805 0.7036619186401367 0 6.222221851348877 1.2000000476837158 0
          7 0.4000000059604645 0 6.291684150695801 0.7389311790466309 0
          6.435248851776123 0.4197305142879486 0 5.9434661865234375 0.7742003798484802 0
          6.57881498336792 0.10052960366010666 0 6.08703088760376 0.45499980449676514 0
          5.801344871520996 0.9959174990653992 0 6.23059606552124 0.1357990950345993 0
          6.722381114959717 -0.21868319809436798 0 5.7388129234313965 0.49026909470558167 0
          5.5952467918396 0.8094696998596191 0 6.3741607666015625 -0.18340149521827698 0
          5.882378101348877 0.17106840014457703 0 5.444444179534912 1.2000000476837158 0
          7 -0.4000000059604645 0 6.025942802429199 -0.14813220500946045 0
          5.384244918823242 0.5261802077293396 0 6.51772403717041 -0.5026149749755859 0
          5.531583786010742 0.20377269387245178 0 5.236144065856934 0.8432719111442566 0
          6.169507026672363 -0.4673318862915039 0 5.674856185913086 -0.1111351028084755 0
          5.060293197631836 1.0298899412155151 0 5.821293830871582 -0.43206480145454407 0
          6.6612749099731445 -0.8218216896057129 0 5.183467864990234 0.23962560296058655 0
          5.035661220550537 0.5564131140708923 0 6.313057899475098 -0.7865372896194458 0
          5.326355934143066 -0.07969167828559875 0 4.893916130065918 0.8762899041175842 0
          5.964842796325684 -0.7512490749359131 0 5.473134994506836 -0.3970530033111572 0
          4.6666669845581055 1.2000000476837158 0 4.836434841156006 0.26916739344596863 0
          5.616653919219971 -0.7159011960029602 0 4.978854179382324 -0.04412427172064781 0
          4.688116073608398 0.5933424234390259 0 7 -1.2000000476837158 0
          5.12586784362793 -0.3661642074584961 0 4.545888900756836 0.9131073951721191 0
          5.81204080581665 -0.966787576675415 0 6.222221851348877 -1.2000000476837158 0
          5.268884181976318 -0.6795946955680847 0 4.630309104919434 -0.01361996028572321 0
          4.488448143005371 0.30607008934020996 0 4.777815818786621 -0.33047690987586975 0
          4.339453220367432 0.6220952272415161 0 4.286639213562012 0.9191486239433289 0
          4.920590877532959 -0.6494935750961304 0 5.444444179534912 -1.2000000476837158 0
          5.067508220672607 -0.9653593897819519 0 4.283215045928955 0.02286371961236 0
          4.43105411529541 -0.300768107175827 0 4.142016887664795 0.33384108543395996 0
          4.573105812072754 -0.6119378209114075 0 3.992300033569336 0.6605401039123535 0
          3.8888890743255615 1.2000000476837158 0 4.721052169799805 -0.9289693236351013 0
          4.083156108856201 -0.26410868763923645 0 3.9346089363098145 0.05202680081129074 0
          4.2248640060424805 -0.583368182182312 0 3.794219970703125 0.37224650382995605 0
          4.6666669845581055 -1.2000000476837158 0 4.372566223144531 -0.8980712890625 0
          3.6435329914093018 0.6871886849403381 0 3.4845330715179443 0.9496920704841614 0
          4.238772869110107 -1.0396209955215454 0 3.7371129989624023 -0.2360759973526001 0
          3.8777899742126465 -0.544031023979187 0 3.5880980491638184 0.08982273191213608 0
          4.026970863342285 -0.8604139089584351 0 3.4486160278320312 0.3975287973880768 0
          3.294600009918213 0.7115796804428101 0 3.3894379138946533 -0.1980305016040802 0
          3.5296289920806885 -0.5176354050636292 0 3.1111109256744385 1.2000000476837158 0
          3.678446054458618 -0.8306925892829895 0 3.2394111156463623 0.11707709729671478 0
          3.8888890743255615 -1.2000000476837158 0 3.1010890007019043 0.43808528780937195 0
          2.961361885070801 0.7589535117149353 0 3.503129005432129 -1.0054839849472046 0
          3.18314790725708 -0.47578510642051697 0 3.3340699672698975 -0.7912443280220032 0
          3.044409990310669 -0.17236250638961792 0 2.893527030944824 0.1568426936864853 0
          2.7548489570617676 0.9893125891685486 0 2.7534260749816895 0.4774535000324249 0
          2.6135880947113037 0.7982968091964722 0 2.9854938983917236 -0.7631890773773193 0
          2.8351199626922607 -0.4524492025375366 0 2.697058916091919 -0.13238230347633362 0
          3.1111109256744385 -1.2000000476837158 0 2.544728994369507 0.1811445951461792 0
          2.388031005859375 0.49400800466537476 0 2.3333330154418945 1.2000000476837158 0
          2.7681961059570312 -0.9710931181907654 0 2.2573049068450928 0.8266525864601135 0
          2.6428470611572266 -0.721183180809021 0 2.489516019821167 -0.40704599022865295 0
          2.353508949279785 -0.11029759794473648 0 2.1956899166107178 0.20170240104198456 0
          1.9920220375061035 0.5723655819892883 0 2.2942399978637695 -0.6953821182250977 0
          2.141784906387329 -0.3882349133491516 0 1.8683220148086548 0.8697000741958618 0
          2.0066850185394287 -0.0679963231086731 0 2.3333330154418945 -1.2000000476837158 0
          1.8129379749298096 0.2728925049304962 0 1.954548954963684 -0.6485614776611328 0
          1.6430920362472534 0.5740132927894592 0 1.7980589866638184 -0.3366861045360565 0
          1.555556058883667 1.2000000476837158 0 1.9700770378112793 -0.9401506781578064 0
          1.6666820049285889 -0.05719396844506264 0 1.4286249876022339 0.8451691269874573 0
          1.4677189588546753 0.2914707064628601 0 1.6918359994888306 -0.8584386110305786 0
          1.606449007987976 -0.6244480013847351 0 1.3151990175247192 0.5185866951942444 0
          1.4524099826812744 -0.32973089814186096 0 1.2210429906845093 1.0129400491714478 0
          1.3220579624176025 -0.01946846954524517 0 1.1222139596939087 0.8065894842147827 0
          1.1284430027008057 0.23862800002098083 0 1.555556058883667 -1.2000000476837158 0
          1.2835420370101929 -0.5449687838554382 0 1.3725509643554688 -0.8790327906608582 0
          1.1284430027008057 -0.23862800002098083 0 0.9798405170440674 0.4904909133911133 0
          1 0 0 0.861803412437439 0.19021129608154297 0
          0.7777777910232544 1.2000000476837158 0 1.1798269748687744 -1.0302430391311646 0
          0.729131281375885 0.7251076102256775 0 0.9428092837333679 -0.5025230050086975 0
          0.861803412437439 -0.19021129608154297 0 1.0134249925613403 -0.8419373035430908 0
          0.6745458245277405 0.38610830903053284 0 0.638196587562561 0.1175571009516716 0
          0.638196587562561 -0.1175571009516716 0 0.6745458245277405 -0.38610830903053284 0
          0.4659998118877411 0.650235116481781 0 0.44361230731010437 0.9165406823158264 0
          0.6880131959915161 -0.7223715782165527 0 0.3890891969203949 0.32260850071907043 0
          0.7777777910232544 -1.2000000476837158 0 0.39402180910110474 4.742348735931046e-10 0
          0.24515259265899658 0.8073607087135315 0 0.366202712059021 -0.29110780358314514 0
          0.4311263859272003 -0.628279983997345 0 0.22986270487308502 0.006300130859017372 0
          0.4553210139274597 -0.959943413734436 0 0 1.2000000476837158 0
          0 0.4000000059604645 0 0.2216119021177292 -0.7970559000968933 0
          0 -0.4000000059604645 0 0 -1.2000000476837158 0
          <InformationKey name="L2_NORM_RANGE" location="vtkDataArray" length="2">
            <Value index="0">