<?xml version="1.0"?>
<VTKFile type="UnstructuredGrid" version="0.1" byte_order="LittleEndian" header_type="UInt32" compressor="vtkZLibDataCompressor">
  <UnstructuredGrid>
    <Piece NumberOfPoints="162" NumberOfCells="295">
      <PointData>
        <DataArray type="Float64" Name="Velocity" NumberOfComponents="3" format="ascii" RangeMin="0" RangeMax="1.7810673583243009">
          1.580065551700331 0 0 1.4275940776804057 -0.018529774739051097 0
          1.3906568015370895 -0.009709517452387713 0 1.3939228215532729 0 0
          1.571937275631678 -0.004431723279302874 0 1.438980279300122 -0.0005656906186343735 0
          1.4120940597368825 0.00187225713658528 0 1.4133225461203958 0.0004900694144082673 0
          1.4138901890968796 0.0020195395370726996 0 1.4184011494643105 0.0009061772476672003 0
          1.4100247879874033 0.0057374269342855555 0 1.4338866348924282 -0.000857379640395714 0
          1.4192105456351076 -0.00535949100499882 0 1.3971511880285308 0.000008753159395552546 0
          1.3899677764496838 -0.002321495619572185 0 1.4451415471239457 -0.0031118289348474742 0
          1.4073458643366783 0.0009019757090578673 0 1.3826810841822121 0 0
          1.577818876454388 0.006411076909674771 0 1.4134095876023682 -0.0004833192235173256 0
          1.3753686054180045 0.0018290849403787696 0 1.4180784575718937 0.005435795950592334 0
          1.3831177450039853 -0.0019172230115188926 0 1.3602412322803572 0.0008625592470324905 0
          1.4230416366009109 0.0005971763915490202 0 1.3933230734825943 0.001455381326328914 0
          1.3558877922724313 -0.0037585654358019 0 1.4014018039846685 -0.002067774026067365 0
          1.391503775285579 0.007097672510678563 0 1.3630778851036376 0.00048140359233361796 0
          1.3519963542480662 -0.000006459632041648511 0 1.441275049927269 -0.004605740920306592 0
          1.3704250093847101 -0.0009712944314931304 0 1.3475262574613114 -0.0039319869490164056 0
          1.4176154709073812 0.0007426434251318614 0 1.3807446257929907 0.00009850875654837665 0
          1.3315004971965392 0 0 1.3393968764028479 -0.0013609662434537761 0
          1.3903409095067722 0.002146082365402452 0 1.3495243934495746 0.0012604287640466394 0
          1.3330220388569598 -0.00011890291335796017 0 1.5819479282917386 0 0
          1.3585672136550482 -0.0007474965822153457 0 1.3224771109872695 -0.004512994477759743 0
          1.4169316356868897 -0.0028003904452055806 0 1.400964231795022 0 0
          1.3645864537589873 0.002897549297848412 0 1.3270715610623602 0.0003125155779548916 0
          1.319896948953047 -0.0000724359859996665 0 1.3383361288312878 0.0008034126011309262 0
          1.3068077429232055 -0.00048748369806733693 0 1.3094396932221473 -0.00162009945596725 0
          1.3461418733450465 -0.0010321212587369732 0 1.3798100834208684 0 0
          1.3545279755068902 -0.0003910230754807509 0 1.3058316966510026 0.0000020753670452733353 0
          1.3146086664650363 -0.00011372629188954875 0 1.297023702923945 -0.0012742665125268973 0
          1.3247577304970597 -0.00002282184437252255 0 1.2878990364530694 -0.0033744455580184143 0
          1.2771293793933238 0 0 1.3332744638992309 0.0030121650038064662 0
          1.2925448992017328 0.001436124121816984 0 1.2833158381070144 -0.0007383111044607232 0
          1.301876956446801 0.0009776075003107842 0 1.2758041800295248 0.0010203242195062912 0
          1.3275973766639042 0 0 1.3119146201430087 0.00014776766521040763 0
          1.2625395309412162 -0.00014375726591486782 0 1.257601185321299 0.0002429742812463942 0
          1.3110564829302978 -0.0016243220097689193 0 1.2719112732688123 0.000018383169347879758 0
          1.2809970821420227 0.0008028452548778375 0 1.2626068594331268 0.00006233429490677331 0
          1.2909974970283895 0.003814014535918897 0 1.253284335150616 -0.0003021847693528701 0
          1.2460937838545574 -0.0029809977455855508 0 1.24997216389897 0.0016635497772926333 0
          1.2590179635848793 0.0011354700020025366 0 1.2338485892443356 0 0
          1.2667432605026403 0.0027225625485306493 0 1.2389210462390898 -0.0003676317959494385 0
          1.2795951093195945 0 0 1.2322916535220532 -0.000008981501428084737 0
          1.2217476224439163 -0.0013793203303000268 0 1.2626503379104521 0.0009805994617410052 0
          1.237065161415611 0.001373711476352707 0 1.2485575825206157 0.004012751225811531 0
          1.2269610591890905 0.000762840959565303 0 1.21780869937647 -0.000415060280481782 0
          1.2159258479478987 -0.002500956906225371 0 1.2094754727169041 -0.002986350869449192 0
          1.2056703695751243 -0.005726615702318971 0 1.2237910221530943 0.005106449440445082 0
          1.2149142141192435 0.003141665778349338 0 1.2034985117537076 0.003059380150447738 0
          1.2334743318422636 0 0 1.190359542650206 -0.003086771963952323 0
          1.1859158160382628 -0.0058097365769847475 0 1.1842684285113412 0 0
          1.2178799112496812 0.0034079101715482896 0 1.1818883756607454 -0.011324702503805795 0
          1.2081323291383492 0.006727841436140802 0 1.190225421001104 0.00716057327022962 0
          1.1756333817015066 0.003857971414447242 0 1.169522016417914 -0.006637197224498098 0
          1.1685418925398898 -0.018328474488598465 0 1.1850746519925826 0.012844285831882601 0
          1.1711866939336408 0.01607089129404103 0 1.1667662398561742 -0.013045789196479862 0
          1.1288516267146151 0.00621885967800568 0 1.1875173284983378 0 0
          1.1270162282190757 -0.02705930553725444 0 1.1816468930171484 0.022673173697444315 0
          1.1482792308679644 -0.021020040346653016 0 1.1231855063508929 0.0396686845422648 0
          1.1980848935434327 0 0 1.173740697964775 0.010594385795205968 0
          1.0862035229990141 -0.0002609003924003428 0 1.1573080812042373 -0.03126520684243472 0
          1.0854232273732771 -0.13353782980232737 0 1.1758721937900294 0.01788592814486223 0
          1.1658719965190607 0.03426260171801637 0 1.2057383210059724 -0.16116370478164724 0
          1.0967224023179551 0.13730380803508418 0 1.226803525404522 -0.0628319707355216 0
          0.803865540863911 0.07304607859190769 0 1.1237074539517056 -0.06714075411153952 0
          1.1309173390362561 -0.48587903810246486 0 1.2023810363758771 0 0
          1.2670955267442832 0.17436342838227903 0 1.168692655172366 0.029180510046012964 0
          1.1712014457298539 0.5472121672166973 0 1.7471989822415737 -0.11607058053886202 0
          0 0 0 0 0 0
          1.2236332873876976 0 0 1.240140670446951 0.050099653851374604 0
          1.1371619519674248 0.029304422286024034 0 1.7810673561686352 0.00008762859935071421 0
          0 0 0 1.1104654473855753 0.07358889685745501 0
          1.6867173758798626 0.48689941877498816 0 0 0 0
          0 0 0 1.6195816303955768 -0.5144146058630392 0
          1.0345410401385888 0.09425907832857222 0 1.1298117595376738 0.1307778458564307 0
          1.1139851771977614 -0.04054626668510097 0 1.1237211133565976 0.39520557873481454 0
          1.20658939808182 0 0 0.7533282716987335 0.03063285277988803 0
          1.1342955149652094 0.114715891696526 0 1.0510361760741302 -0.3866569457406719 0
          1.0127470260964087 -0.07274989721450176 0 0.9023412298709426 0.034083176573170976 0
          1.1295582253665555 -0.13951237681526363 0 1 0 0
          1 0 0 1.1189198079449998 -0.10484685600060223 0
          1 0 0 1 0 0
          <InformationKey name="L2_NORM_RANGE" location="vtkDataArray" length="2">
            <Value index="0">
              0
            </Value>
            <Value index="1">
              1.7810673583
            </Value>
          </InformationKey>
        </DataArray>
        <DataArray type="Float64" Name="Pressure" format="ascii" RangeMin="-74.85436501477075" RangeMax="0.7363576519670652">
          0.590504284103857 -3.7306004539533246 -3.3752319391858707 -7.664120171660661 0.7363576519670652 -6.924578989760104
          -5.522529162739434 -10.489130420087784 -4.038631851490248 -9.025317293146998 -11.982385893063318 -7.543696871538132
          -2.5255197385785046 -12.590756800597866 -14.0715519351784 -6.078956352434978 -11.099758886752687 -15.639915035799193
          0.7317190269329998 -9.629454785623285 -16.253807720488624 -4.657858393391701 -14.73834493600462 -17.81961969069043
          -8.150445488533279 -13.24076585566156 -19.677408296766277 -11.746273282434704 -3.127844473209233 -18.346194377790063
          -19.91685569187843 -6.716096850518472 -16.870159170395894 -21.425946694862112 -10.242924598690362 -15.325603845790551
          -23.75700074505702 -22.00944795040595 -13.847460816257831 -20.494998196809743 -23.566390611315647 0.7029311131860574
          -18.966071021484705 -25.0667331117722 -11.832326482556317 -7.739893621233284 -17.45998009206933 -24.185722127314463
          -25.685440902562927 -22.607743722992076 -27.27491517641566 -27.837234021727934 -21.124131108537227 -15.59998860000446
          -19.567232448082034 -27.86559214334189 -26.28854681175068 -29.382678311318124 -24.774850718989086 -30.995796095194446
          -32.09365968625233 -23.234216617725465 -30.01070740723915 -31.61338727023233 -28.491221151559582 -33.12478454547766
          -23.79690060956759 -26.906086969001624 -34.77386759449526 -36.52236822620259 -28.337407616122267 -33.739924224065966
          -32.20645020925197 -35.34900425696972 -30.60643861166264 -36.87177481758787 -38.57878719236983 -37.496153139939516
          -35.97331888849535 -40.585732845285285 -34.35359904942699 -39.153566375838494 -32.06549836930165 -40.68018905016504
          -42.23113165423469 -36.245125464721916 -39.735648613239945 -38.093053948792566 -41.27631021235515 -42.94489322517699
          -44.535525758916584 -44.50818568442346 -46.08991107275534 -41.89072681953654 -43.556596141346134 -45.09043349835327
          -40.48788554274095 -46.810106870582025 -48.58636393818044 -49.18502372178735 -44.26056706637901 -50.07603809113908
          -45.659516931733684 -47.35951927881932 -48.908744017040156 -50.71239770643252 -53.063512132642565 -49.49815384697937
          -51.22953613795217 -54.55118527390341 -52.76793830425522 -49.01385229448638 -54.97661262041904 -53.267496204351154
          -56.96639161138393 -55.00506318283121 -58.25584699663901 -53.09149935315122 -56.630100212891 -59.653942625003886
          -58.96567370675485 -56.17693442067337 -56.997365174486916 -60.80263523262685 -58.956720472963575 -62.132629613193345
          -60.43197701771684 -63.30943132393781 -63.13328519983551 -57.763073052083755 -60.54292528297913 -59.72222049832288
          -62.78308538697884 -65.40639917777426 -63.79011792925114 -66.54254318151376 -67.04407453954725 -61.951583565895106
          -67.77279878197076 -64.57998607790648 -64.50976516451382 -63.68192977936252 -68.47841388437261 -68.7380660762773
          -67.18372861039211 -68.05491888243735 -70.53401792330304 -70.70733554936572 -67.43288149063572 -71.44952029097405
          -66.32682357897345 -71.07678926090192 -72.67512947645174 -70.95119896860004 -70.26782752004742 -72.51499912346927
          -69.88093716028116 -74.51965129363496 -74.85436501477075 -72.28964732391361 -74.47211884733974 -73.90747718888255
        </DataArray>
        <DataArray type="Float64" Name="Temperature" format="ascii" RangeMin="237.24174371825703" RangeMax="600.0000000000001">
          300 299.0912387819788 299.1553466337806 300 299.2342660326316 299.31786126124916
          299.4243362677142 299.19379422355416 299.3701529001968 299.36945316104925 299.09689579378323 299.3323856289422
          299.41580485365915 299.3763222629463 299.3176127486885 299.31136780370156 299.3423957226958 300
          299.20802248014337 299.3551410483186 299.3717340137251 299.45343469965917 299.34558310634117 299.20763278456513
          299.36410100436575 299.34426728992327 299.0876506177697 299.37380223847083 299.0556942512413 299.3397754188859
          299.37475833547285 299.2828471477182 299.3476262012397 299.325109039264 299.20261756444523 299.3637626561491
          300.00000000000006 299.34384671633796 299.320802729783 299.35012691541095 299.37361558927137 300
          299.3680469965433 299.20953368964103 299.0982232580443 300 299.2005952225689 299.3558576793497
          299.34143779425 299.32751107791825 299.3811885228042 299.1062194121703 299.43334120131675 300
          299.081728454896 299.34980579579496 299.34653463572334 299.3492272170284 299.35905333721234 299.2852623091116
          300 299.30505009260645 299.345908841965 299.34667577908795 299.3700571773656 299.3839378621649
          300 299.22735789424974 299.19079576946547 299.08562010713854 299.0873572911154 299.3473250357211
          299.36528116469174 299.3396234971615 299.3282859329903 299.37500256276036 299.3200637193799 299.34518904188155
          299.3715678348507 300 299.2114247001816 299.3454678501471 299.99999999999994 299.37478026575525
          299.1949521936705 299.0850645322434 299.3673330773268 299.3244360155404 299.34687211236826 299.33989612835063
          299.07562963355974 299.374363669768 299.34524370260607 299.2026633950997 299.3721936673179 299.34925089982374
          300 299.35323405413 299.3267774900505 300 299.07970385362404 299.13918221589057
          299.3227846843838 299.3725821927371 299.2954961377368 299.3685591196142 299.6205888754435 299.17547929819614
          299.3894786562122 299.0486905205619 299.57346127500057 300 299.16577213092256 299.59638811648006
          299.8042965352724 299.2276684905681 299.99999999999994 299.01044896024973 298.2622660774063 300.3158434744373
          293.6242877131232 299.2492888964899 300.1509571087559 289.31613965113905 293.25899411311406 298.7289812945007
          325.40618759940105 301.1547723245382 364.17855689747427 300 290.0753366524445 300.481192467218
          358.3567759974626 297.2349151779607 599.9999999999999 600 300 298.6469957060732
          298.91973312446027 293.02464395330213 600 301.83128512843535 306.25279795375195 600.0000000000001
          600 299.4906351775558 300.62504459150546 298.9208325572844 300.2177629987124 282.0237717538301
          299.99999999999994 237.24174371825703 299.43864099641985 280.6381778972312 302.0964337092195 306.59620045071085
          298.49300335651344 300 300 299.19169016510364 299.99999999999994 300
        </DataArray>
        <DataArray type="Float64" Name="Density" format="ascii" RangeMin="0.5832226285631854" RangeMax="1.4750084519421025">
          1.166445257126371 1.1699893937481525 1.169738669475603 1.166445257126371 1.1694301651260453 1.1691035598857362
          1.1686878277824317 1.1695883534149942 1.1688993500115932 1.1689020821695542 1.1699672649868562 1.169046832011339
          1.1687211278273801 1.1688752620541576 1.1691045305500307 1.169128923186805 1.1690077387570654 1.166445257126371
          1.1695327359116325 1.1689579671572397 1.1688931765410697 1.1685742642721124 1.1689952913505959 1.1695342591406075
          1.168922980290172 1.1690004298595467 1.1700034301487159 1.1688851012393071 1.1701284538789847 1.1690179717955163
          1.168881368234069 1.1692403372692897 1.1689873127728252 1.1690752515252862 1.1695538628185267 1.1689243014353978
          1.1664452571263708 1.1690020722875016 1.1690920709370805 1.1689775472745798 1.1688858299991478 1.166445257126371
          1.168907572630662 1.169526828984281 1.169962072412611 1.166445257126371 1.1695617680091954 1.168955168776878
          1.1690114797218132 1.1690658699487857 1.1688562626948635 1.1699307952393347 1.1686526815417055 1.166445257126371
          1.1700265975649 1.16897880126444 1.1689915754787261 1.1689810606533126 1.1689426901805753 1.169230901775873
          1.166445257126371 1.1691536010823744 1.1689940192991022 1.1689910242937038 1.168899723764253 1.1688455287104256
          1.166445257126371 1.1694571632771016 1.1696000748884818 1.1700113733738118 1.170004577616783 1.1689884888604023
          1.1689183721521805 1.1690185650989489 1.1690628436506996 1.1688804146717358 1.1690949573830869 1.1689968302411966
          1.1688938253847583 1.166445257126371 1.169519437596859 1.1689957414457623 1.1664452571263713 1.1688812826092931
          1.1695838267732452 1.170013546765342 1.168910360194588 1.1690778801625916 1.168990257585033 1.1690175003864742
          1.1700504570254182 1.1688829091722557 1.1689966167812702 1.1695536836709939 1.1688913818321436 1.1689809681702374
          1.166445257126371 1.1689654138649967 1.1690687350868332 1.166445257126371 1.1700345179864704 1.169801877994579
          1.1690843298377478 1.1688898648461497 1.1691909221944012 1.1689055730067286 1.167922332878745 1.1696599532782004
          1.168823896913688 1.1701558583278622 1.168106065365655 1.166445257126371 1.1696979057643382 1.1680166751605185
          1.1672066784297774 1.1694559493883885 1.1664452571263713 1.1703055139201215 1.1732411938662568 1.165218501592965
          1.1917732687011349 1.1693714575841585 1.1658586083106084 1.2095197231646513 1.1932577829239128 1.1714081962236222
          1.0753746870010514 1.1619725446715046 0.9608846279118699 1.166445257126371 1.2063541188170241 1.1645773043718484
          0.9764949362653856 1.1772963379096928 0.5832226285631856 0.5832226285631855 1.166445257126371 1.1717297751835216
          1.1706606769657812 1.1942121059062816 0.5832226285631855 1.159368144985393 1.1426298126123755 0.5832226285631854
          0.5832226285631855 1.1684291127515554 1.1640200423534477 1.1706563712679707 1.1655991758869118 1.240794614446039
          1.1664452571263713 1.4750084519421025 1.1686319974384842 1.2469207851900175 1.1583505731641208 1.1413500122424625
          1.1723342698252741 1.166445257126371 1.166445257126371 1.1695965785172933 1.1664452571263713 1.166445257126371
        </DataArray>
        <DataArray type="Float64" Name="stream" format="ascii" RangeMin="-3.466477434603224" RangeMax="0.03312668637790546">
          0.03312668637790546 -0.3271926957814142 -0.7060268676788546 0.0013289851455587586 -1.1349731738456996 -0.6520081958391376
          -1.107527524483847 -0.5982168180515037 -1.576603394598147 -1.0537299544534555 -0.28450452800601433 -1.5143108712858646
          -2.056466001003303 -0.993821016020577 -0.5410964492379069 -1.9782196658564908 -1.4509252776480979 0.0015486808937979924
          -2.295971426045872 -1.9145842428635238 -0.927859458073311 -2.450815096685732 -1.3789497929458632 -0.4886759094153701
          -2.3724909097984033 -1.8275541436309055 -0.23115611351745752 -2.2888498817466716 -2.9178355742603004 -1.3146946844504297
          -0.8769409218294689 -2.840108046735188 -1.7636126843671267 -0.43814325776152235 -2.7622361968570757 -2.2219091861285585
          -0.0006330369810280876 -1.2515075016172477 -2.6880685394388846 -1.683045582259463 -0.8097404226829409 -3.466477434603224
          -2.1386341457331537 -0.3817024059357082 -3.0628432346727177 -3.4181822824137997 -2.603893192867702 -1.6223662725034014
          -1.1824029612727536 -2.0571725973183344 -0.7582039134403044 -0.368240340533655 -2.5225818298800253 -3.3742340489855316
          -2.9982849244151213 -1.5393021665137487 -1.97672784734987 -1.1264784913519785 -2.4317630913385804 -0.6960112176448251
          -0.004584856345857151 -2.913674921988137 -1.8959282136603932 -1.4773761721780476 -2.3602046511400814 -1.0599083249500802
          -3.3206640029165455 -2.832755584100797 -0.6571250098028524 -0.3224209853061033 -3.062462503356978 -1.8309664550303004
          -2.2686757844660246 -1.4121906985197972 -2.755985718668571 -1.021755861253099 -0.6210705521031673 -1.7618656231031464
          -2.2099898162064875 -0.009915351600122024 -2.6675413206957916 -1.369204110623279 -3.2544535101484384 -0.9605679180583856
          -0.5575034752632712 -2.948561523270347 -2.1353651267464198 -2.594211027867043 -1.7092647669628402 -1.3013821731106547
          -0.27049802579269727 -0.9053088248787712 -0.5045423732197906 -2.5144705655849258 -2.0563573651526212 -1.646455227133151
          -3.171845921404789 -1.2667762194937213 -0.8713960273078215 -0.015481320484572004 -2.8229827006233403 -0.4597981440891127
          -2.4335269660142824 -1.9980538415918285 -1.6128356845780696 -1.2130716420715386 -0.7540444224956401 -2.3618904278176376
          -1.923442010077571 -0.403239884883676 -1.5095287617909625 -3.071091181063645 -1.0976252326592228 -2.2370103314496386
          -0.7393184754772647 -1.7938401034712808 -0.016380855456238963 -2.6790812235085486 -1.4613125755495722 -0.4387759511207487
          -1.0917099091122442 -2.506277636077813 -2.121892635280122 -0.8387499662720085 -1.701148950059187 -0.24424345300428082
          -1.3795255260929948 -0.48572308512628165 -1.1898445623653109 -2.959798117881027 -1.931443384690823 -2.4344918274433263
          -1.4246960000417754 -0.9359285248503365 -1.3084206182285074 -1.2531253715013466 -0.023476786094105948 -2.6617027650402103
          -0.5833714356739375 -1.7550614039794403 -1.3543230133138215 -2.3267209831928537 -1.0430043956137622 -1.2483079891679558
          -1.3401506853214578 -1.5647002329723823 -0.6339131309684696 -0.3424032176398999 -2.1174661985767997 -0.9885325009951843
          -2.793384693387673 -1.269616663842799 -0.43239115384357507 -1.5114698423306026 -1.9525248732039557 -1.2544094654590328
          -2.3962307390729487 -0.014868015682261773 -0.8432587340622553 -2.119911212785932 -1.650641184364643 -2.6229636666189977
        </DataArray>
      </PointData>
      <CellData>
        <DataArray type="UInt8" Name="vtkGhostType" format="ascii" RangeMin="0" RangeMax="0">
          0 0 0 0 0 0
          0 0 0 0 0 0
          0 0 0 0 0 0
          0 0 0 0 0 0
          0 0 0 0 0 0
          0 0 0 0 0 0
          0 0 0 0 0 0
          0 0 0 0 0 0
          0 0 0 0 0 0
          0 0 0 0 0 0
          0 0 0 0 0 0
          0 0 0 0 0 0
          0 0 0 0 0 0
          0 0 0 0 0 0
          0 0 0 0 0 0
          0 0 0 0 0 0
          0 0 0 0 0 0
          0 0 0 0 0 0
          0 0 0 0 0 0
          0 0 0 0 0 0
          0 0 0 0 0 0
          0 0 0 0 0 0
          0 0 0 0 0 0
          0 0 0 0 0 0
          0 0 0 0 0 0
          0 0 0 0 0 0
          0 0 0 0 0 0
          0 0 0 0 0 0
          0 0 0 0 0 0
          0 0 0 0 0 0
          0 0 0 0 0 0
          0 0 0 0 0 0
          0 0 0 0 0 0
          0 0 0 0 0 0
          0 0 0 0 0 0
          0 0 0 0 0 0
          0 0 0 0 0 0
          0 0 0 0 0 0
          0 0 0 0 0 0
          0 0 0 0 0 0
          0 0 0 0 0 0
          0 0 0 0 0 0
          0 0 0 0 0 0
          0 0 0 0 0 0
          0 0 0 0 0 0
          0 0 0 0 0 0
          0 0 0 0 0 0
          0 0 0 0 0 0
          0 0 0 0 0 0
          0
        </DataArray>
      </CellData>
      <Points>
        <DataArray type="Float32" Name="Points" NumberOfComponents="3" format="ascii" RangeMin="0.22994902639587697" RangeMax="7.102112369882704">
          7 1.2000000476837158 0 6.599672794342041 0.9660372734069824 0
          6.6399030685424805 0.7036619186401367 0 6.222221851348877 1.2000000476837158 0
          7 0.4000000059604645 0 6.291684150695801 0.7389311790466309 0
          6.435248851776123 0.4197305142879486 0 5.9434661865234375 0.7742003798484802 0
          6.57881498336792 0.10052960366010666 0 6.08703088760376 0.45499980449676514 0
          5.801344871520996 0.9959174990653992 0 6.23059606552124 0.1357990950345993 0
          6.722381114959717 -0.21868319809436798 0 5.7388129234313965 0.49026909470558167 0
          5.5952467918396 0.8094696998596191 0 6.3741607666015625 -0.18340149521827698 0
          5.882378101348877 0.17106840014457703 0 5.444444179534912 1.2000000476837158 0
          7 -0.4000000059604645 0 6.025942802429199 -0.14813220500946045 0
          5.384244918823242 0.5261802077293396 0 6.51772403717041 -0.5026149749755859 0
          5.531583786010742 0.20377269387245178 0 5.236144065856934 0.8432719111442566 0
          6.169507026672363 -0.4673318862915039 0 5.674856185913086 -0.1111351028084755 0
          5.060293197631836 1.0298899412155151 0 5.821293830871582 -0.43206480145454407 0
          6.6612749099731445 -0.8218216896057129 0 5.183467864990234 0.23962560296058655 0
          5.035661220550537 0.5564131140708923 0 6.313057899475098 -0.7865372896194458 0
          5.326355934143066 -0.07969167828559875 0 4.893916130065918 0.8762899041175842 0
          5.964842796325684 -0.7512490749359131 0 5.473134994506836 -0.3970530033111572 0
          4.6666669845581055 1.2000000476837158 0 4.836434841156006 0.26916739344596863 0
          5.616653919219971 -0.7159011960029602 0 4.978854179382324 -0.04412427172064781 0
          4.688116073608398 0.5933424234390259 0 7 -1.2000000476837158 0
          5.12586784362793 -0.3661642074584961 0 4.545888900756836 0.9131073951721191 0
          5.81204080581665 -0.966787576675415 0 6.222221851348877 -1.2000000476837158 0
          5.268884181976318 -0.6795946955680847 0 4.630309104919434 -0.01361996028572321 0
          4.488448143005371 0.30607008934020996 0 4.777815818786621 -0.33047690987586975 0
          4.339453220367432 0.6220952272415161 0 4.286639213562012 0.9191486239433289 0
          4.920590877532959 -0.6494935750961304 0 5.444444179534912 -1.2000000476837158 0
          5.067508220672607 -0.9653593897819519 0 4.283215045928955 0.02286371961236 0
          4.43105411529541 -0.300768107175827 0 4.142016887664795 0.33384108543395996 0
          4.573105812072754 -0.6119378209114075 0 3.992300033569336 0.6605401039123535 0
          3.8888890743255615 1.2000000476837158 0 4.721052169799805 -0.9289693236351013 0
          4.083156108856201 -0.26410868763923645 0 3.9346089363098145 0.05202680081129074 0
          4.2248640060424805 -0.583368182182312 0 3.794219970703125 0.37224650382995605 0
          4.6666669845581055 -1.2000000476837158 0 4.372566223144531 -0.8980712890625 0
          3.6435329914093018 0.6871886849403381 0 3.4845330715179443 0.9496920704841614 0
          4.238772869110107 -1.0396209955215454 0 3.7371129989624023 -0.2360759973526001 0
          3.8777899742126465 -0.544031023979187 0 3.5880980491638184 0.08982273191213608 0
          4.026970863342285 -0.8604139089584351 0 3.4486160278320312 0.3975287973880768 0
          3.294600009918213 0.7115796804428101 0 3.3894379138946533 -0.1980305016040802 0
          3.5296289920806885 -0.5176354050636292 0 3.1111109256744385 1.2000000476837158 0
          3.678446054458618 -0.8306925892829895 0 3.2394111156463623 0.11707709729671478 0
          3.8888890743255615 -1.2000000476837158 0 3.1010890007019043 0.43808528780937195 0
          2.961361885070801 0.7589535117149353 0 3.503129005432129 -1.0054839849472046 0
          3.18314790725708 -0.47578510642051697 0 3.3340699672698975 -0.7912443280220032 0
          3.044409990310669 -0.17236250638961792 0 2.893527030944824 0.1568426936864853 0
          2.7548489570617676 0.9893125891685486 0 2.7534260749816895 0.4774535000324249 0
          2.6135880947113037 0.7982968091964722 0 2.9854938983917236 -0.7631890773773193 0
          2.8351199626922607 -0.4524492025375366 0 2.697058916091919 -0.13238230347633362 0
          3.1111109256744385 -1.2000000476837158 0 2.544728994369507 0.1811445951461792 0
          2.388031005859375 0.49400800466537476 0 2.3333330154418945 1.2000000476837158 0
          2.7681961059570312 -0.9710931181907654 0 2.2573049068450928 0.8266525864601135 0
          2.6428470611572266 -0.721183180809021 0 2.489516019821167 -0.40704599022865295 0
          2.353508949279785 -0.11029759794473648 0 2.1956899166107178 0.20170240104198456 0
          1.9920220375061035 0.5723655819892883 0 2.2942399978637695 -0.6953821182250977 0
          2.141784906387329 -0.3882349133491516 0 1.8683220148086548 0.8697000741958618 0
          2.0066850185394287 -0.0679963231086731 0 2.3333330154418945 -1.2000000476837158 0
          1.8129379749298096 0.2728925049304962 0 1.954548954963684 -0.6485614776611328 0
          1.6430920362472534 0.5740132927894592 0 1.7980589866638184 -0.3366861045360565 0
          1.555556058883667 1.2000000476837158 0 1.9700770378112793 -0.9401506781578064 0
          1.6666820049285889 -0.05719396844506264 0 1.4286249876022339 0.8451691269874573 0
          1.4677189588546753 0.2914707064628601 0 1.6918359994888306 -0.8584386110305786 0
          1.606449007987976 -0.6244480013847351 0 1.3151990175247192 0.5185866951942444 0
          1.4524099826812744 -0.32973089814186096 0 1.2210429906845093 1.0129400491714478 0
          1.3220579624176025 -0.01946846954524517 0 1.1222139596939087 0.8065894842147827 0
          1.1284430027008057 0.23862800002098083 0 1.555556058883667 -1.2000000476837158 0
          1.2835420370101929 -0.5449687838554382 0 1.3725509643554688 -0.8790327906608582 0
          1.1284430027008057 -0.23862800002098083 0 0.9798405170440674 0.4904909133911133 0
          1 0 0 0.861803412437439 0.19021129608154297 0
          0.7777777910232544 1.2000000476837158 0 1.1798269748687744 -1.0302430391311646 0
          0.729131281375885 0.7251076102256775 0 0.9428092837333679 -0.5025230050086975 0
          0.861803412437439 -0.19021129608154297 0 1.0134249925613403 -0.8419373035430908 0
          0.6745458245277405 0.38610830903053284 0 0.638196587562561 0.1175571009516716 0
          0.638196587562561 -0.1175571009516716 0 0.6745458245277405 -0.38610830903053284 0
          0.4659998118877411 0.650235116481781 0 0.44361230731010437 0.9165406823158264 0
          0.6880131959915161 -0.7223715782165527 0 0.3890891969203949 0.32260850071907043 0
          0.7777777910232544 -1.2000000476837158 0 0.39402180910110474 4.742348735931046e-10 0
          0.24515259265899658 0.8073607087135315 0 0.366202712059021 -0.29110780358314514 0
          0.4311263859272003 -0.628279983997345 0 0.22986270487308502 0.006300130859017372 0
          0.4553210139274597 -0.959943413734436 0 0 1.2000000476837158 0
          0 0.4000000059604645 0 0.2216119021177292 -0.7970559000968933 0
          0 -0.4000000059604645 0 0 -1.2000000476837158 0