<?xml version="1.0"?>
<VTKFile type="UnstructuredGrid" version="0.1" byte_order="LittleEndian" header_type="UInt32" compressor="vtkZLibDataCompressor">
  <UnstructuredGrid>
    <Piece NumberOfPoints="162" NumberOfCells="295">
      <PointData>
        <DataArray type="Float64" Name="Velocity" NumberOfComponents="3" format="ascii" RangeMin="0" RangeMax="2.096452491472323">
          2.076881854302817 0 0 1.7281850969080612 -0.06028054129136362 0
          1.6735375213491201 -0.032967127445258634 0 1.6524505715489117 0 0
          2.0515919844979145 -0.010611483577095087 0 1.7501043599975121 0.004851532700934191 0
          1.67512834548929 0.009467719904736799 0 1.7301139795650917 -0.0003914579420259551 0
          1.6846345320984286 0.0027950518924726372 0 1.728252219375887 0.004596896392920921 0
          1.7117392248689745 0.014888000268619913 0 1.759602503049923 -0.004659682775500329 0
          1.7336133684452115 -0.005468055113433958 0 1.6930057084670915 0.00020003813464763293 0
          1.6854619492183345 -0.0004554431187036266 0 1.769921794180933 -0.009705834474659086 0
          1.717534397635783 0.004152725386413952 0 1.6672887721979488 0 0
          2.0541587834720363 0.011891210113975644 0 1.7246379448494502 -0.003998039837209491 0
          1.6524689061915572 0.007958592025755794 0 1.680291693596832 0.01490998990448951 0
          1.6649880827967956 -0.006532851815758217 0 1.6220592736157393 0.004146019929695086 0
          1.7359155895768212 0.003243989287474741 0 1.6866220663779106 0.005653911012463458 0
          1.6140129018955336 -0.014626241377388438 0 1.6968392805127288 -0.00962697415502145 0
          1.6565586521161422 0.01933515229559427 0 1.6328961154586312 0.0028018588137983663 0
          1.607577017620875 -0.0004237450408707058 0 1.7645953211051046 -0.02456406482412619 0
          1.640254023654913 -0.0050758756037318775 0 1.602135502777508 -0.010497813420369227 0
          1.7511827036368601 0.004369827278035837 0 1.6627121530699396 0.0014501932169271037 0
          1.583365907624006 0 0 1.585362792238978 -0.005333430430340444 0
          1.6818515644294787 -0.002804306444841455 0 1.606176944093374 0.005672422790312992 0
          1.578521007681032 -0.000835900697613427 0 2.096452491472323 0 0
          1.621263841241722 -0.004579283511777249 0 1.5588754547135601 -0.009819074543581094 0
          1.7478836497815193 -0.0062756872194324465 0 1.6453459656130012 0 0
          1.6314222787892603 0.007028351181546766 0 1.5623203948045656 -0.0009973748858844236 0
          1.5534315930835763 0.0012530556947395466 0 1.5899289393659146 0.002865688229668678 0
          1.5252976919309094 -0.003361348481290438 0 1.533563339781095 -0.006379869129044799 0
          1.5963836059120384 -0.004977337521393094 0 1.6632488033231558 0 0
          1.61348253282962 -0.002359627773250543 0 1.52607984461112 0.000020941294670659416 0
          1.5409269142614395 -0.0023077234601749097 0 1.5098943078566087 -0.004828451505457843 0
          1.5627419259141457 0.0012047372415273372 0 1.4922106925959155 -0.00336560421900751 0
          1.4652459154338213 0 0 1.5778799547114195 -0.0009816576242731717 0
          1.5005076765936054 0.0048629135719493455 0 1.4839576199981979 -0.0030992818824276264 0
          1.5163857938474723 0.0012578275284609586 0 1.4734097852328056 0.0035848455006795565 0
          1.556212008528167 0 0 1.5443308641287328 0.002950301205730199 0
          1.4468168616367545 0.0016871600647211105 0 1.435892958679144 0.0014130809033429184 0
          1.5443075020314185 -0.004334263508410074 0 1.4640656304542214 -0.001859558642818157 0
          1.4819472981549726 0.0036070673064874936 0 1.4487923439686998 0.0008268119455064649 0
          1.498634049265053 0.004488719638913105 0 1.4316819088201307 -0.0011346537743424888 0
          1.419851791995349 -0.00402930761992383 0 1.4266613558305112 0.004181654938061677 0
          1.4405358037555076 0.0014162635814601865 0 1.3973566705424751 0 0
          1.456656583334364 0.008821361785117332 0 1.4037456658125804 -0.0018306648179026719 0
          1.4766118119062444 0 0 1.395537590904057 0.0008575805521934543 0
          1.3773913688160047 0.00163369878318953 0 1.4523313398946764 0.0034133186054668974 0
          1.401452865221305 0.003831162983697088 0 1.4205290889102913 0.006036432955701481 0
          1.3828460682781918 -0.001014555196962752 0 1.3678191428603925 -0.0012563417832481823 0
          1.3653674555870174 -0.010127679040577653 0 1.3532152933402495 -0.006498581720096656 0
          1.346254557180282 -0.014001649231250884 0 1.378425778606356 0.010585786970127742 0
          1.3599920835579709 0.004794180375183674 0 1.342149695322448 0.005803098897281651 0
          1.392877480362396 0 0 1.3176499036272376 -0.006917538974284418 0
          1.3176828009803048 -0.012808673755902014 0 1.3119691534530906 0 0
          1.369593661872355 0.006509496979999252 0 1.3026628157762852 -0.020081071191809574 0
          1.3486801320258026 0.01084064612371452 0 1.3174755427543507 0.01183710110120064 0
          1.2907747007196675 0.0036654458916851457 0 1.2758633412481069 -0.013397708751307733 0
          1.2796317456803354 -0.023359445892530924 0 1.3119219392719201 0.02208905445440794 0
          1.2768200763591302 0.026747439628346394 0 1.263272253771261 -0.011712350330606441 0
          1.2134089608864802 0.0035968936586090773 0 1.2998911337440653 0 0
          1.2223065749785462 -0.057800901233479314 0 1.3013722903892284 0.019288704159411474 0
          1.2816781425567594 -0.06270418700262845 0 1.1987732371115465 0.06542168789424838 0
          1.3337185401458145 0 0 1.2786264737716841 0.00854486213505926 0
          1.1229963642680731 0.006667856922268296 0 1.205686145617945 -0.048323026030424404 0
          1.1417267840858665 -0.27765968872743263 0 1.2516156626701624 0.01370756713436358 0
          1.3160022569104375 0.06782770235865128 0 1.5445816158884753 -0.26619460724582844 0
          1.1766702103136344 0.3223922307126158 0 1.327740881384569 -0.06093309068491892 0
          0.6263334054155771 0.08094244722488819 0 1.2658955304225323 -0.09273978538056477 0
          0.9392882319956102 -0.4693036257864658 0 1.343824941753331 0 0
          1.6078230784205094 0.2378857716630183 0 1.2201642238829475 0.06681922526428741 0
          0.9623805494176345 0.4830308773532751 0 1.928134041234118 0.013404267639846111 0
          0 0 0 0 0 0
          1.2991332469303307 0 0 1.3480447262110555 0.04675189539645569 0
          1.2672873682034054 0.08631700420195529 0 1.9507778405100544 -0.12139833384650435 0
          0 0 0 1.2356387623403413 0.09143518352927438 0
          1.6059526233375867 0.6197564617455789 0 0 0 0
          0 0 0 1.5591177260948732 -0.6528486397038151 0
          1.1023307496179096 0.15893815457201768 0 1.1664771622232915 0.12879855438206858 0
          1.240891763985871 -0.1023731890050008 0 1.2152068113729708 0.4798028591497997 0
          1.2661556488911918 0 0 0.5560582067351403 -0.005995912591316488 0
          1.0949032083495716 0.1323105789034792 0 1.127485941253778 -0.4590226282879859 0
          1.0559274837024408 -0.1252280741291526 0 0.8475487297298658 0.04244573697362658 0
          1.1707220752758125 -0.13097970518784985 0 1 0 0
          1 0 0 1.0831133849684036 -0.11498330617186651 0
          1 0 0 1 0 0
          <InformationKey name="L2_NORM_RANGE" location="vtkDataArray" length="2">
            <Value index="0">
              0
            </Value>
            <Value index="1">
              2.0964524915
            </Value>
          </InformationKey>
        </DataArray>
        <DataArray type="Float64" Name="Pressure" format="ascii" RangeMin="1.3030326687478437" RangeMax="23.200409383865438">
          1.3030326687478437 2.609692912099347 2.3027387400448314 4.343930192086344 1.8511192702892618 3.9538827278365476
          3.0720795050177263 5.807842834543214 2.4253620331973194 5.034294680442197 6.467757185993963 4.309450950801388
          1.9058348686753437 6.881803069731836 7.604764979415151 3.510915603612397 6.20615541748745 8.279924504249873
          1.906431493597946 5.4556622089877145 8.601031983083246 2.6473514168112273 7.8586420773197165 9.218147875341522
          4.654840083199919 7.212869590683074 9.949618749395112 6.45146775269037 2.243118150118943 9.49988575252265
          10.092700077980476 3.7487051342112334 8.802985209416248 10.655469926313504 5.730325176965543 8.173302657736187
          11.794625599509676 10.943997510860218 7.482398510296564 10.37757363739378 11.582135374289253 1.8231440956838139
          9.695737518308178 12.18416290703265 6.447179359931357 3.9824915749989014 9.097455295676756 11.785534940576019
          12.366180247521486 11.230073927817791 12.933962467126001 13.143367775351294 10.573828614220105 8.361369339466533
          9.991404764146948 13.150743336301034 12.590871032968716 13.655308317087627 12.048496981875406 14.188969109364152
          14.586667736592585 11.3895577228232 13.853519475265518 14.363547846017356 13.346019643058426 14.858645076527207
          11.6257851316816 12.825952051444673 15.314998870809115 15.769400189552352 13.305588588957752 15.016728873157058
          14.583358714684387 15.52423549945533 14.071482441669344 15.956242120456512 16.377469225849676 16.14214412242791
          15.693665290867026 16.91984221812976 15.242545234302863 16.55222356369065 14.588799085059579 16.945800333043348
          17.321871870202415 15.803409791312637 16.73968709098906 16.293294675086997 17.09447807682763 17.512058330602194
          17.811616534464015 17.876582933615243 18.18356019005831 17.27679000153538 17.650182838112332 18.01011591886978
          16.990667794576083 18.343832346831682 18.690614690866415 18.943203980517456 17.84852156829799 18.99516712727902
          18.13039552578353 18.49658069728598 18.7719520881305 19.103791778092422 19.545935278646546 18.92220213444232
          19.209985781150152 19.707694628643743 19.49253720470583 18.922295490108446 19.85862198187142 19.616793533841502
          20.229948807400934 19.906433493769306 20.188836044729257 19.55207778608977 19.980408324747998 20.427238927722353
          20.243078937838895 20.052253090976933 20.318066906438364 20.50416331428962 20.220658391706753 20.741063303397034
          20.16605454045487 20.861124904898993 20.018555057283756 20.214251446556904 20.575919331827393 20.607350254914248
          19.965132599036295 20.429121050650753 20.3359417593191 20.923288582882222 21.578611974290457 20.925731499107474
          21.451602603745627 20.55694279627548 21.054956492437974 21.192585848496016 21.485107391069114 22.953178636192924
          23.075336878326787 21.686409877429345 22.022231649613968 21.91124706846089 21.63805717677946 22.441096656815255
          21.715214548932945 23.200409383865438 22.154005311110478 22.630576562880577 22.206124293538316 23.05419524505121
          21.989356489897776 22.089357636896885 22.60416531950172 22.247455422572585 22.503284374911427 22.253029049186335
        </DataArray>
        <DataArray type="Float64" Name="Temperature" format="ascii" RangeMin="230.36125693834393" RangeMax="600.0000000000002">
          300 297.6261585831682 297.4323952310303 300 297.76346203368377 297.95701563106854
          298.37127057589043 297.567347222474 298.19128757643506 298.2136051189211 297.6856028645032 298.04164745794066
          298.3100188810068 298.20279522236063 297.9459235070073 298.0198103204126 298.0796462987107 299.99999999999994
          297.6488066197938 298.1137296285395 298.2104493079742 298.3924956613331 298.09960548266486 297.6283193929828
          298.1775201317918 298.1077205101585 297.6429065051129 298.20051339625087 297.3791630056387 298.06905249301576
          298.20261401935784 297.87483263601604 298.1055011936194 297.98001269048217 297.57283647399385 298.1523437294908
          300 298.09975638890756 297.99114164828546 298.1144216515418 298.20784405974405 300
          298.1811013561557 297.6772800478933 297.7146999704504 300.00000000000006 297.6335839776552 298.1267938595653
          298.095635767873 298.0606849834948 298.11354878293247 297.60185937658304 298.3200907122535 299.99999999999994
          297.4484908604 298.1127300204643 298.08920221995066 298.13390187594 298.1644324213619 297.9126652242427
          300 297.96200443393445 298.1098297782268 298.0990237459251 298.18631215179687 298.22231569895376
          300 297.6600872122079 297.54202855115796 297.6067251995271 297.6501459609112 298.1042532242696
          298.16375104565054 298.0779581955146 298.0292980781135 298.2140175503135 297.97269427482144 298.1014847752405
          298.18864787501667 300 297.6262091437056 298.0954368256058 299.99999999999994 298.21261980825847
          297.59972603506293 297.61046413931314 298.17324628495254 298.0170536956199 298.1050054810343 298.08812095087546
          297.5741325271768 298.17107446734235 297.957891229035 297.5961703622038 298.2021390348215 298.0790571879441
          300 298.0816488511501 298.22904261022126 300 297.57906964200805 297.48191991017575
          297.99213414312356 298.14551289935633 298.1526278074817 298.20731418260453 299.11362505761747 297.6304447711554
          298.2864250016546 298.0802871300431 298.4263444121441 300 295.57775159378576 299.34932100066754
          294.13313374199544 295.7528156948765 299.99999999999994 297.1502913862571 296.9987057188999 299.9539305200748
          299.15390386912935 298.95173599692185 294.8496653851022 280.8174831039285 296.39504485567636 297.39856161335655
          358.9996967808592 300.4087577834032 408.80791037225873 300.00000000000006 280.22598256678344 300.6747679049844
          403.5049856147942 298.8313515700065 600.0000000000001 599.9999999999999 300 297.27403558531375
          297.69533584514744 293.0822115395645 600.0000000000001 301.80452737042134 315.22977468781676 600
          600.0000000000002 311.67650714081475 299.80531705252696 297.12279245698915 298.6543190962193 255.57735380947884
          300 230.36125693834393 298.5334263696949 253.96804598006773 301.39922382941256 304.49652879014155
          296.74488402981245 299.99999999999994 300.00000000000006 298.30250982082464 300.00000000000006 300
        </DataArray>
        <DataArray type="Float64" Name="Density" format="ascii" RangeMin="0.5736571428181557" RangeMax="1.4941500591960086">
          1.1473142856363119 1.1564651686848029 1.1572185518781202 1.1473142856363119 1.1559319042709055 1.155181008112513
          1.1535771692313388 1.1566937330444367 1.154273448055274 1.1541870651865005 1.1562342363179705 1.1548529832209637
          1.1538140320663839 1.1542289046426895 1.1552240139402294 1.1549376040500026 1.1547057639285125 1.147314285636312
          1.1563771734873955 1.1545737464684103 1.154199279366733 1.1534951136356464 1.1546284508951126 1.156456772638043
          1.1543267431386601 1.1545970198351994 1.156400096116455 1.1542377367859384 1.157425699272572 1.1547468038432422
          1.154229606010597 1.1554997199494088 1.1546056155043563 1.1550918552661955 1.1566723958050995 1.154424216108715
          1.1473142856363119 1.1546278663906389 1.15504871650561 1.1545710663176614 1.1542093628561172 1.1473142856363119
          1.1543128794060575 1.1562665636944685 1.1561212319212202 1.1473142856363117 1.156436317068083 1.1545231518272345
          1.1546438269861743 1.1547792212513817 1.1545744468712966 1.15655959412321 1.1537750771968232 1.147314285636312
          1.1571559320918945 1.1545776178939622 1.1546687472326602 1.1544956260429593 1.1543774114696648 1.1553529804844453
          1.1473142856363119 1.155161666819871 1.154588850515095 1.1546307041389583 1.1542927078278347 1.1541533532934773
          1.1473142856363119 1.1563333496086443 1.1567921593023434 1.156540684556548 1.1563719701185524 1.1546104490899347
          1.1543800494990266 1.154712303367062 1.154900836630767 1.1541854689403472 1.155120225121842 1.1546211718818025
          1.1542836662083789 1.1473142856363119 1.156464972225289 1.1546445975697939 1.147314285636312 1.1541908786831352
          1.1565678849124372 1.1565261547046082 1.1543432886059821 1.1549482870951298 1.1546075354739103 1.1546729356169692
          1.1566673580387872 1.1543516966082903 1.155177613424299 1.1565817035614916 1.1542314444991337 1.1547080460398564
          1.1473142856363119 1.1546980064605394 1.1541273199899174 1.1473142856363119 1.1566481678464964 1.1570258985649364
          1.1550448694916873 1.1544506651927433 1.1544231161804186 1.154211413741949 1.1507141663125253 1.1564485143834682
          1.1539052965249232 1.15470328147105 1.1533642794469288 1.1473142856363119 1.1644796803377873 1.149808139000676
          1.1701989548474678 1.1637903932789377 1.147314285636312 1.1583171737277058 1.1589083691720288 1.1474904999381494
          1.1505592313495865 1.1513373038062489 1.167355185027402 1.2256868122541706 1.1612686907721148 1.1573502031202674
          0.9587592657522405 1.1457531672197787 0.8419462465329296 1.1473142856363117 1.2282739899354806 1.144739507372503
          0.8530112339664582 1.1518011208748957 0.5736571428181558 0.573657142818156 1.1473142856363119 1.15783500907907
          1.156196433893521 1.1743950063800757 0.5736571428181558 1.1404543486799483 1.0918838045415011 0.5736571428181559
          0.5736571428181557 1.1043318241993367 1.1480593108713595 1.158424376819622 1.1524838707589637 1.3467323319556495
          1.1473142856363119 1.4941500591960086 1.1529505753391032 1.3552661098077947 1.1419879630668934 1.1303717880084985
          1.1598996451656234 1.147314285636312 1.1473142856363117 1.1538430766058045 1.1473142856363117 1.1473142856363119
        </DataArray>
        <DataArray type="Float64" Name="stream" format="ascii" RangeMin="-4.252092112758235" RangeMax="0.0757895299100711">
          0.0757895299100711 -0.3892747404524465 -0.8560339077777435 0.00013444477526333153 -1.37575179785686 -0.7891272516771407
          -1.3437220959860297 -0.7225581711528858 -1.9244351826776647 -1.2774296138747816 -0.34243183159816115 -1.8417075118700532
          -2.532318562765519 -1.2018921404433183 -0.651133100205734 -2.4156515736099817 -1.7599002145920621 0.003204390232152736
          -2.8021781200927927 -2.331230848840241 -1.1139503250974356 -3.005501375269749 -1.6596505660180523 -0.5854165178079052
          -2.8926726261032596 -2.207119496026116 -0.2762745581070822 -2.7719436393697685 -3.5780934830330806 -1.5744613152997802
          -1.047990397039584 -3.4687979285117683 -2.1189498959525337 -0.5228615671956778 -3.3611031355472676 -2.682256569044202
          -0.0015659792993791544 -1.4861377786467769 -3.2584556915714846 -2.0043580017596487 -0.9584877349131985 -4.252092112758235
          -2.5589670211027404 -0.4520902872644335 -3.7273128674676888 -4.165937267841484 -3.1384808828575816 -1.9205336690306998
          -1.3922595865427494 -2.4420571210522097 -0.8893415012556011 -0.4325137599618699 -3.0174836794964413 -4.098342654456076
          -3.6139679192741645 -1.8006989074785291 -2.32110731915235 -1.3139473452001438 -2.88444673575847 -0.8083182579938545
          -0.01030673973771858 -3.492095419550284 -2.205551438083917 -1.7128281586002847 -2.7784178126529 -1.225160403309226
          -4.001486461830951 -3.370859527803064 -0.7594936544567658 -0.37450896109962334 -3.668250525553444 -2.1113296646454933
          -2.6457865504401026 -1.6261694473128303 -3.2631484234256636 -1.1769990124465899 -0.7156079713046798 -2.0181566348577986
          -2.5616706766776303 -0.018650368236511332 -3.127847585233097 -1.5712888650595769 -3.881576626670937 -1.101277648794358
          -0.6405161301661283 -3.490203558015758 -2.462076897408626 -3.028102180830514 -1.9452670587523084 -1.4829209729201065
          -0.31391320363283154 -1.0345002312289664 -0.5781255068011837 -2.907650337576616 -2.339264284422956 -1.8657489971943135
          -3.7309404118361087 -1.4412629079392634 -0.9868007417595551 -0.02984358445571389 -3.29168350569282 -0.5190180052612143
          -2.796937849882751 -2.2721878167648444 -1.824048615221222 -1.3623994259660723 -0.8384720659170114 -2.687469389592174
          -2.149782595245442 -0.44516638862147406 -1.6671404903126614 -3.54822916112293 -1.2127972267122933 -2.501083212573379
          -0.8205188002483785 -1.95684976065269 -0.02752274162355204 -3.0559277086146426 -1.5824214320009495 -0.4865222971676893
          -1.208869296525606 -2.8160495177192475 -2.32842754953743 -0.9440601581146785 -1.798824639945433 -0.27677976392936077
          -1.473794858080667 -0.542681935591531 -1.3075802099809086 -3.342081721543489 -2.0696654679498656 -2.6976101234887246
          -1.499194726777824 -1.030384354086386 -1.3998476326097098 -1.338517200080905 -0.03623838119378836 -2.972183813886489
          -0.638382379447355 -1.8630072372901454 -1.417332892995561 -2.5475410256793283 -1.1142155036389736 -1.2919169689120698
          -1.3816337601528172 -1.6404784874089673 -0.6729678961701452 -0.3695787621099912 -2.2783236030399445 -1.030093977240466
          -3.0730293864569873 -1.3106640544975963 -0.4565055799518164 -1.5427977503829853 -2.0474685648389923 -1.2856996861333787
          -2.5684824332103533 -0.03435890846508327 -0.8676286065291844 -2.2034939193223493 -1.6767211804879445 -2.7574788644764396
        </DataArray>
      </PointData>
      <CellData>
        <DataArray type="UInt8" Name="vtkGhostType" format="ascii" RangeMin="0" RangeMax="0">
          0 0 0 0 0 0
          0 0 0 0 0 0
          0 0 0 0 0 0
          0 0 0 0 0 0
          0 0 0 0 0 0
          0 0 0 0 0 0
          0 0 0 0 0 0
          0 0 0 0 0 0
          0 0 0 0 0 0
          0 0 0 0 0 0
          0 0 0 0 0 0
          0 0 0 0 0 0
          0 0 0 0 0 0
          0 0 0 0 0 0
          0 0 0 0 0 0
          0 0 0 0 0 0
          0 0 0 0 0 0
          0 0 0 0 0 0
          0 0 0 0 0 0
          0 0 0 0 0 0
          0 0 0 0 0 0
          0 0 0 0 0 0
          0 0 0 0 0 0
          0 0 0 0 0 0
          0 0 0 0 0 0
          0 0 0 0 0 0
          0 0 0 0 0 0
          0 0 0 0 0 0
          0 0 0 0 0 0
          0 0 0 0 0 0
          0 0 0 0 0 0
          0 0 0 0 0 0
          0 0 0 0 0 0
          0 0 0 0 0 0
          0 0 0 0 0 0
          0 0 0 0 0 0
          0 0 0 0 0 0
          0 0 0 0 0 0
          0 0 0 0 0 0
          0 0 0 0 0 0
          0 0 0 0 0 0
          0 0 0 0 0 0
          0 0 0 0 0 0
          0 0 0 0 0 0
          0 0 0 0 0 0
          0 0 0 0 0 0
          0 0 0 0 0 0
          0 0 0 0 0 0
          0 0 0 0 0 0
          0
        </DataArray>
      </CellData>
      <Points>
        <DataArray type="Float32" Name="Points" NumberOfComponents="3" format="ascii" RangeMin="0.22994902639587697" RangeMax="7.102112369882704">
          7 1.2000000476837158 0 6.599672794342041 0.9660372734069824 0
          6.6399030685424805 0.7036619186401367 0 6.222221851348877 1.2000000476837158 0
          7 0.4000000059604645 0 6.291684150695801 0.7389311790466309 0
          6.435248851776123 0.4197305142879486 0 5.9434661865234375 0.7742003798484802 0
          6.57881498336792 0.10052960366010666 0 6.08703088760376 0.45499980449676514 0
          5.801344871520996 0.9959174990653992 0 6.23059606552124 0.1357990950345993 0
          6.722381114959717 -0.21868319809436798 0 5.7388129234313965 0.49026909470558167 0
          5.5952467918396 0.8094696998596191 0 6.3741607666015625 -0.18340149521827698 0
          5.882378101348877 0.17106840014457703 0 5.444444179534912 1.2000000476837158 0
          7 -0.4000000059604645 0 6.025942802429199 -0.14813220500946045 0
          5.384244918823242 0.5261802077293396 0 6.51772403717041 -0.5026149749755859 0
          5.531583786010742 0.20377269387245178 0 5.236144065856934 0.8432719111442566 0
          6.169507026672363 -0.4673318862915039 0 5.674856185913086 -0.1111351028084755 0
          5.060293197631836 1.0298899412155151 0 5.821293830871582 -0.43206480145454407 0
          6.6612749099731445 -0.8218216896057129 0 5.183467864990234 0.23962560296058655 0
          5.035661220550537 0.5564131140708923 0 6.313057899475098 -0.7865372896194458 0
          5.326355934143066 -0.07969167828559875 0 4.893916130065918 0.8762899041175842 0
          5.964842796325684 -0.7512490749359131 0 5.473134994506836 -0.3970530033111572 0
          4.6666669845581055 1.2000000476837158 0 4.836434841156006 0.26916739344596863 0
          5.616653919219971 -0.7159011960029602 0 4.978854179382324 -0.04412427172064781 0
          4.688116073608398 0.5933424234390259 0 7 -1.2000000476837158 0
          5.12586784362793 -0.3661642074584961 0 4.545888900756836 0.9131073951721191 0
          5.81204080581665 -0.966787576675415 0 6.222221851348877 -1.2000000476837158 0
          5.268884181976318 -0.6795946955680847 0 4.630309104919434 -0.01361996028572321 0
          4.488448143005371 0.30607008934020996 0 4.777815818786621 -0.33047690987586975 0
          4.339453220367432 0.6220952272415161 0 4.286639213562012 0.9191486239433289 0
          4.920590877532959 -0.6494935750961304 0 5.444444179534912 -1.2000000476837158 0
          5.067508220672607 -0.9653593897819519 0 4.283215045928955 0.02286371961236 0
          4.43105411529541 -0.300768107175827 0 4.142016887664795 0.33384108543395996 0
          4.573105812072754 -0.6119378209114075 0 3.992300033569336 0.6605401039123535 0
          3.8888890743255615 1.2000000476837158 0 4.721052169799805 -0.9289693236351013 0
          4.083156108856201 -0.26410868763923645 0 3.9346089363098145 0.05202680081129074 0
          4.2248640060424805 -0.583368182182312 0 3.794219970703125 0.37224650382995605 0
          4.6666669845581055 -1.2000000476837158 0 4.372566223144531 -0.8980712890625 0
          3.6435329914093018 0.6871886849403381 0 3.4845330715179443 0.9496920704841614 0
          4.238772869110107 -1.0396209955215454 0 3.7371129989624023 -0.2360759973526001 0
          3.8777899742126465 -0.544031023979187 0 3.5880980491638184 0.08982273191213608 0
          4.026970863342285 -0.8604139089584351 0 3.4486160278320312 0.3975287973880768 0
          3.294600009918213 0.7115796804428101 0 3.3894379138946533 -0.1980305016040802 0
          3.5296289920806885 -0.5176354050636292 0 3.1111109256744385 1.2000000476837158 0
          3.678446054458618 -0.8306925892829895 0 3.2394111156463623 0.11707709729671478 0
          3.8888890743255615 -1.2000000476837158 0 3.1010890007019043 0.43808528780937195 0
          2.961361885070801 0.7589535117149353 0 3.503129005432129 -1.0054839849472046 0
          3.18314790725708 -0.47578510642051697 0 3.3340699672698975 -0.7912443280220032 0
          3.044409990310669 -0.17236250638961792 0 2.893527030944824 0.1568426936864853 0
          2.7548489570617676 0.9893125891685486 0 2.7534260749816895 0.4774535000324249 0
          2.6135880947113037 0.7982968091964722 0 2.9854938983917236 -0.7631890773773193 0
          2.8351199626922607 -0.4524492025375366 0 2.697058916091919 -0.13238230347633362 0
          3.1111109256744385 -1.2000000476837158 0 2.544728994369507 0.1811445951461792 0
          2.388031005859375 0.49400800466537476 0 2.3333330154418945 1.2000000476837158 0
          2.7681961059570312 -0.9710931181907654 0 2.2573049068450928 0.8266525864601135 0
          2.6428470611572266 -0.721183180809021 0 2.489516019821167 -0.40704599022865295 0
          2.353508949279785 -0.11029759794473648 0 2.1956899166107178 0.20170240104198456 0
          1.9920220375061035 0.5723655819892883 0 2.2942399978637695 -0.6953821182250977 0
          2.141784906387329 -0.3882349133491516 0 1.8683220148086548 0.8697000741958618 0
          2.0066850185394287 -0.0679963231086731 0 2.3333330154418945 -1.2000000476837158 0
          1.8129379749298096 0.2728925049304962 0 1.954548954963684 -0.6485614776611328 0
          1.6430920362472534 0.5740132927894592 0 1.7980589866638184 -0.3366861045360565 0
          1.555556058883667 1.2000000476837158 0 1.9700770378112793 -0.9401506781578064 0
          1.6666820049285889 -0.05719396844506264 0 1.4286249876022339 0.8451691269874573 0
          1.4677189588546753 0.2914707064628601 0 1.6918359994888306 -0.8584386110305786 0
          1.606449007987976 -0.6244480013847351 0 1.3151990175247192 0.5185866951942444 0
          1.4524099826812744 -0.32973089814186096 0 1.2210429906845093 1.0129400491714478 0
          1.3220579624176025 -0.01946846954524517 0 1.1222139596939087 0.8065894842147827 0
          1.1284430027008057 0.23862800002098083 0 1.555556058883667 -1.2000000476837158 0
          1.2835420370101929 -0.5449687838554382 0 1.3725509643554688 -0.8790327906608582 0
          1.1284430027008057 -0.23862800002098083 0 0.9798405170440674 0.4904909133911133 0
          1 0 0 0.861803412437439 0.19021129608154297 0
          0.7777777910232544 1.2000000476837158 0 1.1798269748687744 -1.0302430391311646 0
          0.729131281375885 0.7251076102256775 0 0.9428092837333679 -0.5025230050086975 0
          0.861803412437439 -0.19021129608154297 0 1.0134249925613403 -0.8419373035430908 0
          0.6745458245277405 0.38610830903053284 0 0.638196587562561 0.1175571009516716 0
          0.638196587562561 -0.1175571009516716 0 0.6745458245277405 -0.38610830903053284 0
          0.4659998118877411 0.650235116481781 0 0.44361230731010437 0.9165406823158264 0
          0.6880131959915161 -0.7223715782165527 0 0.3890891969203949 0.32260850071907043 0
          0.7777777910232544 -1.2000000476837158 0 0.39402180910110474 4.742348735931046e-10 0
          0.24515259265899658 0.8073607087135315 0 0.366202712059021 -0.29110780358314514 0
          0.4311263859272003 -0.628279983997345 0 0.22986270487308502 0.006300130859017372 0
          0.4553210139274597 -0.959943413734436 0 0 1.2000000476837158 0
          0 0.4000000059604645 0 0.2216119021177292 -0.7970559000968933 0
          0 -0.4000000059604645 0 0 -1.2000000476837158 0
          <InformationKey name="L2_NORM_RANGE" location="vtkDataArray" length="2">
            <Value index="0">