<?xml version="1.0"?>
<VTKFile type="UnstructuredGrid" version="0.1" byte_order="LittleEndian" header_type="UInt32" compressor="vtkZLibDataCompressor">
  <UnstructuredGrid>
    <Piece NumberOfPoints="44" NumberOfCells="66">
      <PointData>
        <DataArray type="Float64" Name="ale_BC" NumberOfComponents="3" format="ascii" RangeMin="0" RangeMax="0">
          0 0 0 0 0 0
          0 0 0 0 0 0
          0 0 0 0 0 0
          0 0 0 0 0 0
          0 0 0 0 0 0
          0 0 0 0 0 0
          0 0 0 0 0 0
          0 0 0 0 0 0
          0 0 0 0 0 0
          0 0 0 0 0 0
          0 0 0 0 0 0
          0 0 0 0 0 0
          0 0 0 0 0 0
          0 0 0 0 0 0
          0 0 0 0 0 0
          0 0 0 0 0 0
          0 0 0 0 0 0
          0 0 0 0 0 0
          0 0 0 0 0 0
          0 0 0 0 0 0
          0 0 0 0 0 0
          0 0 0 0 0 0
          <InformationKey name="L2_NORM_RANGE" location="vtkDataArray" length="2">
            <Value index="0">
              0
            </Value>
            <Value index="1">
              0
            </Value>
          </InformationKey>
        </DataArray>
        <DataArray type="Float64" Name="ale_FIXNO" NumberOfComponents="3" format="ascii" RangeMin="1" RangeMax="1.4142135623730951">
          1 1 0 0 1 0
          1 0 0 -1 -1 0
          -1 -1 0 0 1 0
          1 0 0 -1 -1 0
          -1 -1 0 -1 -1 0
          -1 -1 0 -1 -1 0
          0 1 0 1 0 0
          -1 -1 0 -1 -1 0
          -1 -1 0 -1 -1 0
          -1 -1 0 -1 -1 0
          0 1 0 1 0 0
          -1 -1 0 -1 -1 0
          -1 -1 0 -1 -1 0
          -1 -1 0 1 1 0
          1 1 0 -1 -1 0
          1 0 0 0 1 0
          -1 -1 0 1 0 0
          0 1 0 -1 -1 0
          -1 -1 0 -1 -1 0
          1 0 0 0 1 0
          -1 -1 0 1 0 0
          0 1 0 1 1 0
          <InformationKey name="L2_NORM_RANGE" location="vtkDataArray" length="2">
            <Value index="0">
              1
            </Value>
            <Value index="1">
              1.4142135624
            </Value>
          </InformationKey>
        </DataArray>
        <DataArray type="Float64" Name="nsi_BC" NumberOfComponents="3" format="ascii" RangeMin="0" RangeMax="0">
          0 0 0 0 0 0
          0 0 0 0 0 0
          0 0 0 0 0 0
          0 0 0 0 0 0
          0 0 0 0 0 0
          0 0 0 0 0 0
          0 0 0 0 0 0
          0 0 0 0 0 0
          0 0 0 0 0 0
          0 0 0 0 0 0
          0 0 0 0 0 0
          0 0 0 0 0 0
          0 0 0 0 0 0
          0 0 0 0 0 0
          0 0 0 0 0 0
          0 0 0 0 0 0
          0 0 0 0 0 0
          0 0 0 0 0 0
          0 0 0 0 0 0
          0 0 0 0 0 0
          0 0 0 0 0 0
          0 0 0 0 0 0
          <InformationKey name="L2_NORM_RANGE" location="vtkDataArray" length="2">
            <Value index="0">
              0
            </Value>
            <Value index="1">
              0
            </Value>
          </InformationKey>
        </DataArray>
        <DataArray type="Float64" Name="nsi_FIXNO" NumberOfComponents="3" format="ascii" RangeMin="1" RangeMax="1.4142135623730951">
          1 1 0 0 1 0
          1 0 0 -1 -1 0
          -1 -1 0 0 1 0
          1 0 0 -1 -1 0
          -1 -1 0 -1 -1 0
          -1 -1 0 -1 -1 0
          0 1 0 1 0 0
          -1 -1 0 -1 -1 0
          -1 -1 0 -1 -1 0
          -1 -1 0 -1 -1 0
          0 1 0 1 0 0
          -1 -1 0 -1 -1 0
          -1 -1 0 -1 -1 0
          -1 -1 0 1 1 0
          1 1 0 -1 -1 0
          1 0 0 0 1 0
          -1 -1 0 1 0 0
          0 1 0 -1 -1 0
          -1 -1 0 -1 -1 0
          1 0 0 0 1 0
          -1 -1 0 1 0 0
          0 1 0 1 1 0
          <InformationKey name="L2_NORM_RANGE" location="vtkDataArray" length="2">
            <Value index="0">
              1
            </Value>
            <Value index="1">
              1.4142135624
            </Value>
          </InformationKey>
        </DataArray>
        <DataArray type="Float64" Name="lev_BC" format="ascii" RangeMin="-0.5" RangeMax="0.5">
          -0.5 -0.3 -0.5 -0.32499 -0.35371 -0.25
          -0.5 -0.198092 -0.109713 -0.357575 -0.207421 -0.006945
          -0.25 -0.5 -0.059263 -0.216878 0.02803 -0.061131
          0.142998 -0.351371 -0.25 -0.5 0.030858 0.192875
          -0.104258 0.199684 0.083861 -0.5 -0.25 0.222426
          -0.048337 -0.280888 0.341722 0.153327 -0.061777 0.146545
          0.227286 0.363955 0.354826 0.155833 0.392298 0.5
          0.37 0.5
        </DataArray>
        <DataArray type="Float64" Name="lev_FIXNO" format="ascii" RangeMin="0" RangeMax="0">
          0 0 0 0 0 0
          0 0 0 0 0 0
          0 0 0 0 0 0
          0 0 0 0 0 0
          0 0 0 0 0 0
          0 0 0 0 0 0
          0 0 0 0 0 0
          0 0
        </DataArray>
        <DataArray type="Float64" Name="Velocity" NumberOfComponents="3" format="ascii" RangeMin="0" RangeMax="0.9514153258978385">
          0 0 0 0.03507099386041029 0 0
          0 -0.1872705525307939 0 0.025566322147248032 -0.15367678514814884 0
          -0.009190870003957012 -0.2775715751277685 0 0.0808814616904883 0 0
          0 -0.26940807909281933 0 0.046005459150600045 -0.29341679052986214 0
          0.08363223573034786 -0.18252831700193695 0 -0.06188355072323942 -0.3340910173377262 0
          -0.012763604703291328 -0.5042969648038812 0 0.1426211482836495 -0.3537252468200637 0
          0.11706347032049876 0 0 0 -0.2779533259120849 0
          0.1351932733283997 -0.5281133694936999 0 -0.2818918193151736 -0.3384091298171476 0
          -0.09891868691576457 -0.19272388135828278 0 -0.3473827281517918 -0.3308444498049814 0
          -0.03735832096054554 -0.1808428595383508 0 -0.23535605290040676 -0.20806755423203996 0
          0.12251916707414787 0 0 0 -0.16699775699105734 0
          -0.003910719502227294 -0.37463723383495 0 0.02013397440675547 -0.1978614565063028 0
          -0.89834905305723 -0.3133051247976458 0 -0.011501324642333744 -0.1850619612123001 0
          -0.11557072653801855 -0.22766851942027466 0 0 0 0
          0 0 0 0.006253813405787993 -0.2284149734076586 0
          0 -0.4130160233411433 0 -0.4444339542734397 0 0
          -0.01118922558974959 -0.22084561821742826 0 0 -0.16674195165419092 0
          -0.9193628125609367 0 0 0.06904561081970256 -0.19604822039408093 0
          0.04295921003456125 -0.23827721796582815 0 0.0019306027412361194 -0.2419364837344568 0
          0 -0.22170971628534564 0 0.0406290621314613 0 0
          0.012027719049288012 -0.3042261300489852 0 0 -0.2751713881588985 0
          0.02268359364600048 0 0 0 0 0
          <InformationKey name="L2_NORM_RANGE" location="vtkDataArray" length="2">
            <Value index="0">
              0
            </Value>
            <Value index="1">
              0.9514153259
            </Value>
          </InformationKey>
        </DataArray>
        <DataArray type="Float64" Name="Pressure" format="ascii" RangeMin="-4045.8498985477313" RangeMax="3839.7368939569665">
          -4045.8498985477313 -3964.2058740987864 -2031.3196918588535 -2409.949519002432 -1035.959541422369 -3655.507639910537
          -594.3706977207348 -1160.7028636120328 -2313.0127231136394 276.4917077715651 2.7409795478705337 -410.6993285361739
          -2981.148924887203 720.6166561504134 -903.5860875371052 685.7258840370047 221.5900221466148 480.9523332283508
          -53.232478619843576 1768.4060107098892 -2250.764836930764 2090.3287793463023 -364.7395946289366 420.4345959296392
          1010.7346077626196 153.9635137189979 839.951822264701 3839.7368939569665 -2093.322942079283 804.4128609042555
          -671.3728867303275 3484.8205861245337 627.6438300524856 37.578738584799815 1636.1534902353435 1204.4374662257608
          1159.356750470406 911.6936061276981 614.9313869442639 1520.4052125456262 1177.2983474932907 999.4824557183396
          1421.0828191468834 1339.8657139455456
        </DataArray>
        <DataArray type="Float64" Name="Proj_residual_U" NumberOfComponents="3" format="ascii" RangeMin="0" RangeMax="274.16784094833974">
          0 0 0 -7.216961288840139 2.9902652699959686 0
          -0.8781336192982444 -4.950406192356426 0 -9.682476207082576 -1.8194956343586062 0
          -20.858121476033382 39.22960198611354 0 -5.823166430131538 0 0
          0 -2.237098624988788 0 -41.528557189045756 3.4219637018036244 0
          -7.206597594079738 -11.582447754958524 0 39.92779991993724 52.84978592369511 0
          -7.7512539110159215 112.9803795952306 0 -17.598682422234095 -18.224024032949174 0
          -0.9534028494111402 2.4901144472235766 0 -3.525455994414232 4.8659530106387 0
          -3.5612180663563415 -37.83636968257676 0 137.55210671748858 63.50651887810604 0
          -42.6210205465304 -4.139918376204339 0 -68.63447492576613 0.2666492074399711 0
          -32.85889846878597 64.839523314911 0 93.66720407173408 32.973646707249046 0
          -0.2805356203521322 -0.15940805883735257 0 0 11.272855607011802 0
          -8.508895791672556 48.9802609004811 0 24.97094385296728 -13.475239394853473 0
          57.9949818440398 72.84993559359762 0 1.9143312188470307 14.723600730036566 0
          -77.26503083365837 -14.895389966785828 0 0 0 0
          -0.02475334258904714 -0.33330131220910864 0 19.859291145939807 -17.053947131195386 0
          0.0036599990130693877 25.17283933397778 0 90.37337130587866 8.460635900482698 0
          2.2708804329806704 -22.251014018965073 0 -0.8459330268471975 32.43092953273414 0
          54.630322367967565 4.48980961001656 0 -2.4868522845159204 50.47169043543063 0
          40.00586831722576 69.22291670122668 0 14.35213248292877 -37.87605873323458 0
          2.655509759404005 -28.028705890093423 0 -53.23127127906434 26.64916713722504 0
          13.600335958973307 273.8303048825626 0 4.454744504833109 46.25470493340408 0
          -4.043442819223981 -4.700958976709221 0 0 0 0
          <InformationKey name="L2_NORM_RANGE" location="vtkDataArray" length="2">
            <Value index="0">
              0
            </Value>
            <Value index="1">
              274.16784095
            </Value>
          </InformationKey>
        </DataArray>
        <DataArray type="Float64" Name="Proj_residual_P" format="ascii" RangeMin="-3.488560559315332" RangeMax="2.4786192336012234">
          1.0416760394510414 1.2599611222978027 0.6016950202842841 1.0425779117897234 0.8424898247010976 1.5060913257028934
          -0.2019795885142302 1.3261395804038105 1.4335084169612666 -0.552163102671404 0.20537938521131707 0.17149204426997566
          2.4786192336012234 -1.3081244002640657 0.7527876083978583 -1.8103865262297754 0.36472581756670236 -0.11583520710862286
          -1.0345727212578353 -2.5986095951315047 0.7517267193100553 -2.296217699510603 -0.5293976726061164 0.5310508407611201
          -1.1150488129265117 -0.3376803322542216 1.6519705420725104 -2.755735021995054 0.0029727018299824303 0.4243595466637483
          -0.36762359238581255 -3.488560559315332 0.17538929614856089 -0.4447895740226572 -1.3848429179169652 0.8851087619705822
          -0.5703102752392913 0.18427288881913165 0.283180642585775 1.1486576889886697 -1.2250790778685505 -0.2822648857625824
          -2.3566044367312835 -2.0510275617660727
        </DataArray>
        <DataArray type="Float64" Name="Proj_residual_GraP2" NumberOfComponents="3" format="ascii" RangeMin="1.9220541593991005" RangeMax="4596.689477166819">
          1.0416760394510414 501.01233342437 0 1.2599611222978027 1168.7069179775986 0
          0.6016950202842841 240.93177510470028 0 1.0425779117897234 1002.4608965382146 0
          0.8424898247010976 1015.3219053592541 0 1.5060913257028934 2457.64237302896 0
          -0.2019795885142302 -168.78417953692426 0 1.3261395804038105 2019.3892915473716 0
          1.4335084169612666 2744.5152698248266 0 -0.552163102671404 -65.3522880454979 0
          0.20537938521131707 726.3747924127957 0 0.17149204426997566 1835.8145401179563 0
          2.4786192336012234 3704.30680591537 0 -1.3081244002640657 -154.9367206675498 0
          0.7527876083978583 2204.5440834389733 0 -1.8103865262297754 -1604.5610350975871 0
          0.36472581756670236 302.3008801624537 0 -0.11583520710862286 -293.2951106073957 0
          -1.0345727212578353 568.0024395443098 0 -2.5986095951315047 -1978.6083313611207 0
          0.7517267193100553 980.6317598239834 0 -2.296217699510603 -357.0575540057047 0
          -0.5293976726061164 129.26977513018534 0 0.5310508407611201 365.08397187893627 0
          -1.1150488129265117 -2580.739837407141 0 -0.3376803322542216 204.98915954859186 0
          1.6519705420725104 151.89912836726663 0 -2.755735021995054 -1076.269897627649 0
          0.0029727018299824303 1.9220518605665178 0 0.4243595466637483 289.2585914738209 0
          -0.36762359238581255 -36.55811932414435 0 -3.488560559315332 -4596.688153381889 0
          0.17538929614856089 193.9984884548929 0 -0.4447895740226572 29.900092377642956 0
          -1.3848429179169652 -4332.179121500469 0 0.8851087619705822 -170.55278453504522 0
          -0.5703102752392913 28.701949421720503 0 0.18427288881913165 23.083414869522784 0
          0.283180642585775 -4.754161411112897 0 1.1486576889886697 -323.6534706188443 0
          -1.2250790778685505 -222.98719098471847 0 -0.2822648857625824 -202.85658978190344 0
          -2.3566044367312835 -342.8132250887285 0 -2.0510275617660727 -457.07951947444025 0
          <InformationKey name="L2_NORM_RANGE" location="vtkDataArray" length="2">
            <Value index="0">
              1.9220541594
            </Value>
            <Value index="1">
              4596.6894772
            </Value>
          </InformationKey>
        </DataArray>
        <DataArray type="Float64" Name="ALEdispl" NumberOfComponents="3" format="ascii" RangeMin="0" RangeMax="0">
          0 0 0 0 0 0
          0 0 0 0 0 0
          0 0 0 0 0 0
          0 0 0 0 0 0
          0 0 0 0 0 0
          0 0 0 0 0 0
          0 0 0 0 0 0
          0 0 0 0 0 0
          0 0 0 0 0 0
          0 0 0 0 0 0
          0 0 0 0 0 0
          0 0 0 0 0 0
          0 0 0 0 0 0
          0 0 0 0 0 0
          0 0 0 0 0 0
          0 0 0 0 0 0
          0 0 0 0 0 0
          0 0 0 0 0 0
          0 0 0 0 0 0
          0 0 0 0 0 0
          0 0 0 0 0 0
          0 0 0 0 0 0
          <InformationKey name="L2_NORM_RANGE" location="vtkDataArray" length="2">
            <Value index="0">
              0
            </Value>
            <Value index="1">
              0
            </Value>
          </InformationKey>
        </DataArray>
        <DataArray type="Float64" Name="ALEveloc" NumberOfComponents="3" format="ascii" RangeMin="0" RangeMax="0.8363060146613754">
          0 0 0 0.06785168449591948 0 0
          0 -0.17886623419813588 0 0.07047337452043442 -0.14367625987762483 0
          0.08175771201677225 -0.26827882584318624 0 0.1092897580685887 0 0
          0 -0.2597869743205029 0 0.14610981870802714 -0.26916065936693656 0
          0.1161016620150885 -0.158989011315773 0 0.048829291558714176 -0.32380135717424624 0
          0.33508421078295175 -0.519365158561797 0 0.12925191783741374 -0.25763032882089804 0
          0.12387482003853842 0 0 0 -0.2649267148404896 0
          0.11773633699146038 -0.48046134094952175 0 -0.1216623407064118 -0.30869060262142056 0
          -0.08204188636656347 -0.11439533625767052 0 -0.2113778268182038 -0.25088956750989455 0
          -0.041368853595209476 -0.10933368711611821 0 -0.1779764902666359 -0.18563492200129011 0
          0.15275607330769356 0 0 0 -0.15118066369919594 0
          -0.00601304885615671 -0.2626212229767513 0 -0.04863821071170143 -0.12098829209024611 0
          -0.7812384147002465 -0.2194467134082662 0 -0.023468169986393728 -0.14514417597334753 0
          -0.09713236201999537 -0.13485484424718772 0 0 0 0
          0 0 0 -0.042626302751295725 -0.11569209941924885 0
          0 -0.3701394778389365 0 -0.4052278584929451 0 0
          -0.021363354837902266 -0.1139729661868399 0 0 -0.1072906280877027 0
          -0.8363060146613754 0 0 0.010614778047322953 -0.14479603681720254 0
          0.00029816715671056435 -0.10779362448155463 0 -0.014135137255551936 -0.09142008584024067 0
          0 -0.10478306271941216 0 0.017313471483384864 0 0
          -0.00318425413826263 -0.05149395457117595 0 0 -0.07193400222114146 0
          -0.0013248217105134223 0 0 0 0 0
          <InformationKey name="L2_NORM_RANGE" location="vtkDataArray" length="2">
            <Value index="0">
              0
            </Value>
            <Value index="1">
              0.83630601466
            </Value>
          </InformationKey>
        </DataArray>
        <DataArray type="Float64" Name="LEVEL" format="ascii" RangeMin="-0.5428720361948852" RangeMax="0.54488394209816">
          -0.5428720361948852 -0.442649336321909 -0.4097589956549068 -0.314739839636426 -0.3041718491186045 -0.33974987870439266
          -0.4963692783644159 -0.14692032031581567 -0.22090057161861812 -0.36102931202443894 -0.21802781272331864 -0.012950177498217539
          -0.23638835487235646 -0.5035963467297667 -0.07328313294128722 -0.2146031709684866 0.02938291504378798 -0.053147941685902825
          0.13729158431273025 -0.34559335959461696 -0.24885374076305414 -0.49855572833222 0.022457671735188853 0.2601294409922155
          -0.0799307618728466 0.27891319164981193 0.08580408639493213 -0.5013230534650104 -0.2504041120378107 0.22650342877049082
          -0.059057497840536315 -0.2664855263158229 0.4098045794822769 0.15017091640649302 -0.03783629111940752 0.1442118947469601
          0.22287758173237573 0.37028231333312794 0.54488394209816 0.1513196349811852 0.38871523056194274 0.5028710604159449
          0.3724775403429863 0.5002726562116415
        </DataArray>
      </PointData>
      <CellData>
        <DataArray type="UInt8" Name="vtkGhostType" format="ascii" RangeMin="0" RangeMax="0">
          0 0 0 0 0 0
          0 0 0 0 0 0
          0 0 0 0 0 0
          0 0 0 0 0 0
          0 0 0 0 0 0
          0 0 0 0 0 0
          0 0 0 0 0 0
          0 0 0 0 0 0
          0 0 0 0 0 0
          0 0 0 0 0 0
          0 0 0 0 0 0
        </DataArray>
        <DataArray type="Float64" Name="Residual_U" NumberOfComponents="3" format="ascii" RangeMin="4.802313534785073" RangeMax="516.112530378358">
          -1.9332453043206304 117.96934479751908 0 121.18796035069772 26.48671753621298 0
          -515.0338557326996 -33.35073406478827 0 16.034892286085004 -1.0573695070998683 0
          -14.753853756837739 20.37648128358858 0 16.034892286084997 14.839062314953726 0
          32.84361725059934 15.691996616989819 0 -40.58946811205977 230.52147677711898 0
          63.31501201706364 157.52310005353925 0 30.287168356752947 12.549113380064233 0
          30.287168356752936 12.499396200263753 0 103.11338259962639 55.77890094581173 0
          168.1335273433509 78.01775661527913 0 -88.70662998034979 -1.6329237359169997 0
          88.02043377046633 -9.052581315723558 0 63.14056277374137 6.805442080422631 0
          -409.6071073558752 83.02491228243014 0 184.49442786843483 50.90099857656417 0
          -356.7659521509843 135.38208111444533 0 186.61477995611085 83.93498635941341 0
          -7.044993545737103 29.0203270871934 0 -353.3684359649196 -34.315196820030984 0
          2.670675607286361 222.6829076905197 0 -0.566269273624127 219.24858784664698 0
          1.846670762479599 306.6035934379115 0 16.503809525726876 -90.35623520764257 0
          -0.07599606226631017 -43.01622575611002 0 15.622778774732414 -76.79506935456229 0
          27.655250469708058 -10.758432806701403 0 11.69524409405893 -19.518783649329563 0
          11.215563400025637 -19.29063347736392 0 -13.343384183839918 -21.427264874029873 0
          45.305937127949164 -7.374380887719508 0 4.2463696671916775 -19.110785614112103 0
          0.23974871873264453 -25.825245536825143 0 -2.221695339539557 -17.104426273256554 0
          -0.4765689483379657 -15.451033125541954 0 22.655807987944343 -6.278596971991035 0
          -2.595182129860424 81.8345746037425 0 28.661135964423586 -7.797578477411097 0
          -3.0579192905640853 79.94484207039524 0 -56.39911237711226 112.87680681928816 0
          -124.84961423904548 80.37201458907158 0 -12.381721943165214 -12.25784507071307 0
          -42.25693463319213 -91.94768346768059 0 -58.507579465525005 114.28456946345344 0
          12.370022879891827 -8.918649927591208 0 -110.7764364479323 42.11424355634247 0
          0.023678721716811957 -55.87830200885634 0 -15.932461321514083 -33.316377195348544 0
          -244.08618135919016 -132.88555072130313 0 -170.44911428104444 -123.50113014274412 0
          -16.17802326753311 -3.100699283605337 0 -91.0474975675763 -24.8159552740133 0
          -5.856939586136262 -5.754370971622257 0 -45.70780820106239 87.0660900521685 0
          -25.8389212707889 18.634212165441763 0 -9.526627052441787 -1.7840286031973385 0
          -4.642903928095651 -3.057815464772963 0 -2.1867489927831176 -4.275551909279306 0
          -31.797664986337082 -90.07166993634121 0 -3.9468656329398244 -10.209076396200418 0
          -7.020895135491511 -10.209076396200414 0 1.2761640535259575 -43.97970915916663 0
          0.00890546485074488 73.34189696045776 0 0.020806745388356748 -160.71497364110826 0
          <InformationKey name="L2_NORM_RANGE" location="vtkDataArray" length="2">
            <Value index="0">
              4.8023135348
            </Value>
            <Value index="1">
              516.11253038
            </Value>
          </InformationKey>
        </DataArray>
        <DataArray type="Float64" Name="Residual_P" format="ascii" RangeMin="-3.7944709471426616" RangeMax="3.9825631230149767">
          -2.380936030861746 -0.5391243063096309 3.2491977710156026 -0.013281435327666511 0.4850685131922835 -0.39067774170079395
          -1.3385411951357642 0.5413518875771497 -1.4175308579149986 -2.152519781382322 -2.4399156176388845 -1.6402235413666957
          -2.8579252749762123 -0.9522240252487857 -1.7701738804780258 -2.938462444712339 2.7845740617204635 -3.7944709471426616
          2.3295842943940093 -3.7600517587097047 -1.7824704979299013 3.9825631230149767 -2.817796160153241 -1.5098048423516304
          -2.7194904164360443 0.39564757746737156 0.2553279992339564 0.18397656864711587 -0.028396919443397922 0.08943174181231513
          0.2289409595031639 -0.011561202796481262 0.9844167179162626 1.0139976048609052 0.3434873215788347 -0.03848772433771236
          0.28265502096193823 0.15412731445883596 -0.9296072710979193 0.7560424989935778 -1.0655528509397614 -2.1290997867205785
          -1.3765414370214142 0.955389181879102 0.7067619243744252 -2.4550383647803193 0.3557833889995905 -0.9062058524733694
          2.8631863553378327 1.3165081909074643 2.4994701981839045 0.03830921026601125 1.1194928257343346 1.6830722993146336
          0.770148378974353 1.3884615200483796 1.035242750936317 1.2070418542221786 1.0926514258549005 0.9973147894062919
          0.7213058767208074 1.4820201777027247 1.530162473703062 2.7960824887263804 -1.202435235175273 2.0668231830714388
        </DataArray>
        <DataArray type="Float64" Name="Residual_GraP2" NumberOfComponents="3" format="ascii" RangeMin="1762.3263551555299" RangeMax="11119.065300288214">
          -205.15928075726697 -2274.3637378230233 0 -147.13386913003524 -2648.037780972687 0
          22.63699335379988 -2736.438526564519 0 -447.25145966982495 -7368.969200708298 0
          621.3910142764407 -6896.035866067161 0 109.6831005959766 -6743.5248916469145 0
          -7.261457204301221 -6499.218728917378 0 912.3625403884691 -6901.933495189907 0
          -56.701851543399016 -4456.883387076438 0 -577.2575693251965 -7024.164734337892 0
          -136.85753868621302 -8971.323664670072 0 -1441.32215501862 -6537.9738844676995 0
          -3694.5758128010602 -4308.845697352355 0 -959.6480213077998 -2518.0310850184483 0
          -691.7258887405059 -4417.664051320407 0 -1619.7969794042529 -8007.230300977342 0
          -531.9069789518733 -3365.0515986965006 0 -8437.102809204032 -5108.913858141155 0
          -71.71142003659952 -2743.5041718913544 0 -4357.120413071162 -8851.15340810099 0
          -463.76185944199904 -2775.0574991522935 0 -25.75460356134317 -2594.1250122601878 0
          -624.7469630872147 -1997.1152791226796 0 -338.7316502734211 -1729.4666955968883 0
          -55.47208037838936 -2107.405022892194 0 -147.78491093676348 -1981.1202963774049 0
          -130.78573908756738 -1938.6562020395058 0 -43.948601880749266 -1959.5097613310513 0
          207.6995027682487 -2238.386240242997 0 251.95403976094735 -2058.380626129111 0
          33.77852364304954 -2094.238747067677 0 508.4501955457681 -2362.9097746689677 0
          220.49240309783724 -2237.9929717637297 0 257.2474977777116 -2410.451401710846 0
          75.78560979574331 -2865.2822209865835 0 345.52039512323597 -2798.5950913106553 0
          82.19041310820501 -2870.1067282966005 0 351.26300596871454 -2804.139668636303 0
          243.81697084905477 -3064.457621499639 0 306.64302369826123 -2813.0649918733698 0
          127.49513513291797 -3068.2562488681792 0 1055.8305571274864 -4019.0031079276805 0
          846.2713425538852 -3448.08529448317 0 407.2358809727948 -2498.5129328780763 0
          -390.3118233177173 -6703.737428109861 0 601.7253074350915 -4098.6709122296925 0
          4559.05194336337 -7824.306966467824 0 591.2926239597839 -3499.1049036809236 0
          3979.1269933937247 -10382.685660392443 0 2213.32133494337 -8950.218742516587 0
          190.42594859726637 -2549.2892675389357 0 646.8123179657505 -2924.679089203092 0
          1441.9195045379201 -8447.790298303782 0 2718.8887799943004 -6304.625834003572 0
          83.7323711336885 -7495.732060723998 0 1501.8617895882435 -6244.41513642581 0
          2078.545421919688 -7807.73861294541 0 1569.6739245411295 -9511.495176977991 0
          408.22012224472553 -9338.245918985549 0 581.7646096255321 -9156.955484949449 0
          787.2094742574043 -6738.385772033665 0 3371.7935751166706 -9524.900901449713 0
          1543.491170941248 -9549.17025245726 0 3651.920439782194 -10424.590853454096 0
          -135.51495655235038 -3515.517807214132 0 1208.9292026833664 -7051.102729789752 0
          <InformationKey name="L2_NORM_RANGE" location="vtkDataArray" length="2">
            <Value index="0">
              1762.3263552
            </Value>
            <Value index="1">
              11119.0653
            </Value>
          </InformationKey>
        </DataArray>
      </CellData>
      <Points>
        <DataArray type="Float32" Name="Points" NumberOfComponents="3" format="ascii" RangeMin="0" RangeMax="1.4142135623730951">
          0 1 0 0.20000000298023224 1 0
          0 0.7799999713897705 0 0.17500990629196167 0.8324676752090454 0
          0.14628949761390686 0.6488438844680786 0 0.4000000059604645 1 0
          0 0.5849999785423279 0 0.30190789699554443 0.7062488794326782 0
          0.4018622040748596 0.8597133755683899 0 0.14242489635944366 0.45817598700523376 0
          0.29257911443710327 0.5176876783370972 0 0.49305540323257446 0.6697210073471069 0
          0.6000000238418579 1 0 0 0.38999998569488525 0
          0.6244276165962219 0.8092629909515381 0 0.2831222116947174 0.36456531286239624 0
          0.5280297994613647 0.49493080377578735 0 0.43886861205101013 0.3865315914154053 0
          0.659912109375 0.6070019006729126 0 0.14862869679927826 0.22861619293689728 0
          0.800000011920929 1 0 0 0.19499999284744263 0
          0.791735827922821 0.7191417813301086 0 0.6928746104240417 0.44221389293670654 0
          0.39574238657951355 0.1925719976425171 0 0.7972490191459656 0.5503162145614624 0
          0.5838605761528015 0.2565388083457947 0 0 0 0
          1 1 0 0.7224256992340088 0.28607040643692017 0
          1 0.7983365058898926 0 0.2191116064786911 0 0
          0.841722309589386 0.3865504860877991 0 1 0.5966730117797852 0
          0.4382232129573822 0 0 0.6465445160865784 0.11541219800710678 0
          0.7272865176200867 0.12795010209083557 0 0.8639553785324097 0.2512752115726471 0
          1 0.3951736092567444 0 0.6558331847190857 0 0
          0.8922978043556213 0.11509300023317337 0 1 0.19681400060653687 0
          0.8700000047683716 0 0 1 0 0
          <InformationKey name="L2_NORM_RANGE" location="vtkDataArray" length="2">
            <Value index="0">
              0
            </Value>
            <Value index="1">
              1.4142135624
            </Value>
          </InformationKey>
        </DataArray>
      </Points>
      <Cells>
        <DataArray type="Int64" Name="connectivity" format="ascii" RangeMin="0" RangeMax="43">
          42 36 35 35 36 26
          26 17 24 2 6 9
          4 2 9 9 6 13
          9 13 19 4 9 10
          10 9 15 19 13 21
          19 21 27 9 19 15
          15 19 24 15 24 17
          15 17 10 19 27 31
          39 24 34 34 24 31
          24 39 35 24 19 31
          42 35 39 35 26 24
          42 43 40 40 43 41
          42 40 36 40 41 37
          37 41 38 40 37 36
          36 37 29 29 37 32
          32 37 38 29 32 23
          36 29 26 26 29 23
          32 38 33 23 32 25
          25 32 33 23 25 18
          18 25 22 23 18 16
          22 25 33 18 22 14
          16 18 11 23 16 26
          14 22 20 18 14 11
          11 14 8 16 11 10
          8 14 12 11 8 7
          17 26 16 17 16 10
          7 8 3 11 7 10
          2 4 3 4 10 7
          4 7 3 3 8 1
          3 1 0 2 3 0
          28 20 22 12 5 8
          8 5 1 20 12 14
          33 30 22 22 30 28
        </DataArray>
        <DataArray type="Int64" Name="offsets" format="ascii" RangeMin="3" RangeMax="198">
          3 6 9 12 15 18
          21 24 27 30 33 36
          39 42 45 48 51 54
          57 60 63 66 69 72
          75 78 81 84 87 90
          93 96 99 102 105 108
          111 114 117 120 123 126
          129 132 135 138 141 144
          147 150 153 156 159 162
          165 168 171 174 177 180
          183 186 189 192 195 198
        </DataArray>