<?xml version="1.0"?>
<VTKFile type="UnstructuredGrid" version="0.1" byte_order="LittleEndian" header_type="UInt32" compressor="vtkZLibDataCompressor">
  <UnstructuredGrid>
    <Piece NumberOfPoints="11" NumberOfCells="12">
      <PointData>
        <DataArray type="Float64" Name="Disp" NumberOfComponents="3" format="ascii" RangeMin="0.6181425040236912" RangeMax="2.5123682419273528">
          2.4573933862988193 -0.4898505372261091 0 1.9547431378977895 -0.41011933368980663 0
          1.3582537293728982 -0.31280171975392995 0 2.228280579567304 -0.29648662408175086 0
          1.6693235260953891 -0.20964736645981807 0 2.5057269191108933 -0.18255626499292638 0
          1.9957866131702153 -0.10360421643957317 0 0.9859078194913697 -0.10875108636198022 0
          0.6136774453817716 0.07416298477260638 0 0.6068959674862658 -0.18835333144924718 0
          1.3712503906184852 -0.013920430167036119 0
          <InformationKey name="L2_NORM_RANGE" location="vtkDataArray" length="2">
            <Value index="0">
              0.61814250402
            </Value>
            <Value index="1">
              2.5123682419
            </Value>
          </InformationKey>
        </DataArray>
        <DataArray type="Float64" Name="Sld_traction" NumberOfComponents="3" format="ascii" RangeMin="0" RangeMax="76.97515952057452">
          2.9542351236917312 2.5861942024455096 0 9.29750627269047 6.827988663445255 0
          23.60207490958388 15.782609432553981 0 0 0 0
          0 0 0 0.17687266218960515 -1.6951790094212946 0
          6.169699887597247 -11.964163950994994 0 0 0 0
          54.07580924048838 -54.78121975827305 0 67.22200553649779 23.710383270975598 0
          21.752446372906313 -31.401497968182976 0
          <InformationKey name="L2_NORM_RANGE" location="vtkDataArray" length="2">
            <Value index="0">
              0
            </Value>
            <Value index="1">
              76.975159521
            </Value>
          </InformationKey>
        </DataArray>
        <DataArray type="Float64" Name="Fld_traction" NumberOfComponents="3" format="ascii" RangeMin="0" RangeMax="4.616467839619431">
          2.0238637356944933 0.3724497781851509 0 2.8741667426861746 -0.8780548081365231 0
          2.8500833914805774 -0.8358067216955238 0 0 0 0
          0 0 0 0.7784565205426691 0.6268861561927639 0
          2.741681327462097 -0.5956900654096855 0 0 0 0
          0 0 0 2.7811313686853527 -0.7099444282052005 0
          4.462513867090815 -1.1822627881578094 0
          <InformationKey name="L2_NORM_RANGE" location="vtkDataArray" length="2">
            <Value index="0">
              0
            </Value>
            <Value index="1">
              4.6164678396
            </Value>
          </InformationKey>
        </DataArray>
        <DataArray type="Float64" Name="Velocity" NumberOfComponents="3" format="ascii" RangeMin="0.005533027885393784" RangeMax="0.018521694389848856">
          -0.0006425785724155642 0.005495588263217832 0 -0.01147711807735119 0.008982511888651623 0
          -0.014648430788654743 0.011334753570367128 0 -0.005801981243185317 0.010306559631309817 0
          -0.013421648804835096 0.011296961566653663 0 0.0009706391352564125 0.012819106469135907 0
          -0.010604226606294453 0.013665722877717584 0 -0.011212507059433663 0.008607143587354371 0
          -0.006749611627480445 0.004544546812760675 0 -0.007722313937209513 0.007898801084689641 0
          -0.014267982755422848 0.010065273676573568 0
          <InformationKey name="L2_NORM_RANGE" location="vtkDataArray" length="2">
            <Value index="0">
              0.0055330278854
            </Value>
            <Value index="1">
              0.01852169439
            </Value>
          </InformationKey>
        </DataArray>
      </PointData>
      <CellData>
        <DataArray type="UInt8" Name="vtkGhostType" format="ascii" RangeMin="0" RangeMax="0">
          0 0 0 0 0 0
          0 0 0 0 0 0
        </DataArray>
        <DataArray type="Float64" Name="Gauss Stress" NumberOfComponents="6" format="ascii" RangeMin="2.604887288287675" RangeMax="123.3045397066875">
          1.1158257321491725 2.3162479749224145 0 0.41876728480660047 0 0
          2.1566952380296236 5.643476583563383 0 6.151790391643647 0 0
          4.871806416649117 -5.594844694984981 0 1.074676243606452 0 0
          5.976473531588084 -2.1610604239860756 0 6.8223316267133995 0 0
          -4.185891153061663 10.363851334292416 0 -9.070071777191888 0 0
          34.58970860056957 -48.04191138024944 0 108.16439489100847 0 0
          -3.3393967607438975 23.82564259247776 0 26.717340691667047 0 0
          14.319214094630706 -31.650367730937297 0 0.6727790661682336 0 0
          16.16997719166799 -16.181847947580486 0 36.57211685634873 0 0
          -15.648024636096967 35.6827932950752 0 -47.930580119508605 0 0
          32.23172040844876 -73.10471078008842 0 -0.8248223312562272 0 0
          -13.426948406065247 57.47756879250706 0 60.112914709542835 0 0
          <InformationKey name="L2_NORM_RANGE" location="vtkDataArray" length="2">
            <Value index="0">
              2.6048872883
            </Value>
            <Value index="1">
              123.30453971
            </Value>
          </InformationKey>
        </DataArray>
        <DataArray type="Float64" Name="Gauss Strain" NumberOfComponents="6" format="ascii" RangeMin="0.000210389119379141" RangeMax="0.02245748301305579">
          0.00006256594528247783 0.00018258472577964424 0 0.00008373710023646952 0 0
          0.00010366228461849979 0.00045216371133499633 0 0.0012297345407648417 0 0
          0.0004970726356725019 -0.0005496991680145058 0 0.00021495715829280036 0 0
          0.000541981699339944 -0.00027159121523256946 0 0.001364163702671502 0 0
          -0.000508854590080543 0.0009455528798539836 0 -0.001813307714147653 0 0
          0.003426209836914107 -0.00484688597511207 0 0.02165888560797587 0 0
          -0.0006398979701699448 0.00207280003848781 0 0.005335981733619053 0 0
          0.0016734943041307735 -0.002929418200077194 0 0.00013473009991631825 0 0
          0.0015898691406180943 -0.0016455513982978065 0 0.007314961521915176 0 0
          -0.0018980397403604017 0.003228166997337133 0 -0.009573276743021403 0 0
          0.0037758153739909095 -0.006789513603627227 0 -0.00016546068970592294 0 0
          -0.0020438427063184097 0.00502513429546092 0 0.011986170370545574 0 0
          <InformationKey name="L2_NORM_RANGE" location="vtkDataArray" length="2">
            <Value index="0">
              0.00021038911938
            </Value>
            <Value index="1">
              0.022457483013
            </Value>
          </InformationKey>
        </DataArray>
        <DataArray type="Float64" Name="Btraction" NumberOfComponents="3" format="ascii" RangeMin="0" RangeMax="2.4734488910724557">
          0.9341067520790539 0.3331119781259715 0 1.1733792826682552 0.010398696927692852 0
          1.6326768261268891 -0.16853500998379076 0 0 0 0
          0 0 0 0 0 0
          2.4013983981843037 -0.5926509511891648 0 1.9080833780555837 -0.5712871766106822 0
          0 0 0 0 0 0
          1.8770715867219763 -0.5152503833002413 0 0 0 0
          <InformationKey name="L2_NORM_RANGE" location="vtkDataArray" length="2">
            <Value index="0">
              0
            </Value>
            <Value index="1">
              2.4734488911
            </Value>
          </InformationKey>
        </DataArray>
      </CellData>
      <Points>
        <DataArray type="Float32" Name="Points" NumberOfComponents="3" format="ascii" RangeMin="10.632507764558053" RangeMax="14.866068747318506">
          11 10 0 11 8.362662315368652 0
          11 6.387491226196289 0 10.5 9.17588996887207 0
          10.5 7.3431549072265625 0 10 10 0
          10 8.340899467468262 0 10.5 5 0
          10 3.61250901222229 0 11 3.7184319496154785 0
          10 6.2815680503845215 0
          <InformationKey name="L2_NORM_RANGE" location="vtkDataArray" length="2">
            <Value index="0">
              10.632507765
            </Value>
            <Value index="1">
              14.866068747
            </Value>
          </InformationKey>
        </DataArray>
      </Points>
      <Cells>
        <DataArray type="Int64" Name="connectivity" format="ascii" RangeMin="0" RangeMax="10">
          0 5 3 3 5 6
          0 3 1 3 6 1
          1 6 4 8 9 7
          4 6 10 1 4 2
          2 4 10 2 10 7
          7 9 2 8 7 10
        </DataArray>
        <DataArray type="Int64" Name="offsets" format="ascii" RangeMin="3" RangeMax="36">
          3 6 9 12 15 18
          21 24 27 30 33 36
        </DataArray>
        <DataArray type="UInt8" Name="types" format="ascii" RangeMin="5" RangeMax="5">
          5 5 5 5 5 5
          5 5 5 5 5 5
        </DataArray>
      </Cells>
    </Piece>
  </UnstructuredGrid>
</VTKFile>
