<?xml version="1.0"?>
<VTKFile type="UnstructuredGrid" version="0.1" byte_order="LittleEndian" header_type="UInt32" compressor="vtkZLibDataCompressor">
  <UnstructuredGrid>
    <Piece NumberOfPoints="11" NumberOfCells="12">
      <PointData>
        <DataArray type="Float64" Name="Disp" NumberOfComponents="3" format="ascii" RangeMin="0.6288956330109821" RangeMax="2.565970261297189">
          2.507718527021793 -0.5135882031580845 0 1.9944772311203327 -0.4302955574589992 0
          1.3850405118063784 -0.32822620892481197 0 2.2743329882656775 -0.31518653894104254 0
          1.7034027132411835 -0.22408482259678592 0 2.5581787161247935 -0.19981250768574968 0
          2.037497176488242 -0.11713697689364856 0 1.004927614740847 -0.11741275358881975 0
          0.6247908688703603 0.07173623489216595 0 0.6171831778122138 -0.19672496065533143 0
          1.3993423387767638 -0.022411183704460186 0
          <InformationKey name="L2_NORM_RANGE" location="vtkDataArray" length="2">
            <Value index="0">
              0.62889563301
            </Value>
            <Value index="1">
              2.5659702613
            </Value>
          </InformationKey>
        </DataArray>
        <DataArray type="Float64" Name="Sld_traction" NumberOfComponents="3" format="ascii" RangeMin="0" RangeMax="79.35513698695316">
          2.812471276667636 2.322474400026025 0 9.302533206548834 7.123775982296242 0
          24.38982690702861 16.73451563144941 0 0 0 0
          0 0 0 0.1997335281783816 -1.7571717905396202 0
          6.115830584776647 -11.847154560595513 0 0 0 0
          55.68654367709519 -56.53535725116691 0 69.66445735106221 24.339781215464665 0
          22.042789604002326 -32.383862968547696 0
          <InformationKey name="L2_NORM_RANGE" location="vtkDataArray" length="2">
            <Value index="0">
              0
            </Value>
            <Value index="1">
              79.355136987
            </Value>
          </InformationKey>
        </DataArray>
        <DataArray type="Float64" Name="Fld_traction" NumberOfComponents="3" format="ascii" RangeMin="0" RangeMax="4.859276310115165">
          1.9913229447262148 0.3211309059652207 0 2.8963077419595997 -0.9069538639315959 0
          3.0161929114340484 -0.9025305423439018 0 0 0 0
          0 0 0 0.8797443469585673 0.5275816853134806 0
          2.952170649454665 -0.6834341609033563 0 0 0 0
          0 0 0 3.103214811912303 -0.8073496000312074 0
          4.686878692729962 -1.2828617921196068 0
          <InformationKey name="L2_NORM_RANGE" location="vtkDataArray" length="2">
            <Value index="0">
              0
            </Value>
            <Value index="1">
              4.8592763101
            </Value>
          </InformationKey>
        </DataArray>
        <DataArray type="Float64" Name="Velocity" NumberOfComponents="3" format="ascii" RangeMin="0.006251663733344274" RangeMax="0.027228753897198824">
          0.007848669127499486 -0.005576457249753197 0 0.018658398908601992 -0.013004722697476434 0
          0.0185986797035973 -0.01988703477336976 0 0.012120626795002032 -0.012201281598701666 0
          0.019001925249883422 -0.016852599936626522 0 0.004634283556351093 -0.012982853600879043 0
          0.017175335770566846 -0.017333740436117268 0 0.00890438360707424 -0.014051534427670154 0
          -0.00013772174650650282 -0.006250146570709464 0 -0.002389977640581964 -0.013454279427220231 0
          0.020126433297084523 -0.015274162906543085 0
          <InformationKey name="L2_NORM_RANGE" location="vtkDataArray" length="2">
            <Value index="0">
              0.0062516637333
            </Value>
            <Value index="1">
              0.027228753897
            </Value>
          </InformationKey>
        </DataArray>
      </PointData>
      <CellData>
        <DataArray type="UInt8" Name="vtkGhostType" format="ascii" RangeMin="0" RangeMax="0">
          0 0 0 0 0 0
          0 0 0 0 0 0
        </DataArray>
        <DataArray type="Float64" Name="Gauss Stress" NumberOfComponents="6" format="ascii" RangeMin="1.8201887271233568" RangeMax="128.99050803611297">
          0.8673258138571943 1.5704402257322734 0 0.30749054028679895 0 0
          1.8205229645649394 4.470309683407548 0 5.44888814131574 0 0
          4.686857273314157 -6.287757924672162 0 0.8421404566186588 0 0
          5.7036579454314476 -3.290025758834566 0 6.000368899837644 0 0
          -4.643128245199917 7.421762083398603 0 -9.473897678720512 0 0
          36.97346064807722 -57.767986446705166 0 109.24456102256485 0 0
          -3.2222318331534945 20.189528688593693 0 25.838519137860736 0 0
          14.217823135517314 -35.04249626491823 0 -0.10740004725582664 0 0
          16.64750189243704 -20.28945452190001 0 35.337939999307686 0 0
          -17.321955064236 31.010085341228468 0 -50.231195025772614 0 0
          33.079218974868425 -82.05156760424109 0 -2.6914453127093902 0 0
          -13.586335340714522 51.84333052264731 0 60.68057599913125 0 0
          <InformationKey name="L2_NORM_RANGE" location="vtkDataArray" length="2">
            <Value index="0">
              1.8201887271
            </Value>
            <Value index="1">
              128.99050804
            </Value>
          </InformationKey>
        </DataArray>
        <DataArray type="Float64" Name="Gauss Strain" NumberOfComponents="6" format="ascii" RangeMin="0.0001463326560400135" RangeMax="0.022935008416686217">
          0.00005191452476371872 0.00012221722853777978 0 0.00006149046585305925 0 0
          0.00009172284683311993 0.0003565957677942322 0 0.0010893427065035053 0 0
          0.0004911157403308386 -0.0006065265066420578 0 0.00016845582763381234 0 0
          0.0005348731527873295 -0.00036438572589747587 0 0.0011999276794676557 0 0
          -0.0005060737259886536 0.0007002381708558492 0 -0.0018945013453189998 0 0
          0.0037595206296415773 -0.005731085336012631 0 0.021886874527444707 0 0
          -0.0005769181360782971 0.0017615634495699024 0 0.0051617563017680316 0 0
          0.0017127975899905996 -0.0032208492632486143 0 -0.000021513214353083205 0 0
          0.001690130352188457 -0.0020047943548336944 0 0.00706993971750349 0 0
          -0.001978758312465634 0.0028501747458090088 0 -0.010037361393464821 0 0
          0.003971970186889551 -0.007582485431595898 0 -0.0005402236246151754 0 0
          -0.0019773736877284342 0.004548475472901714 0 0.01210436522104355 0 0
          <InformationKey name="L2_NORM_RANGE" location="vtkDataArray" length="2">
            <Value index="0">
              0.00014633265604
            </Value>
            <Value index="1">
              0.022935008417
            </Value>
          </InformationKey>
        </DataArray>
        <DataArray type="Float64" Name="Btraction" NumberOfComponents="3" format="ascii" RangeMin="0" RangeMax="2.629351306294341">
          0.9570224305615939 0.2829041970929004 0 1.2773049988044103 -0.05195082519662522 0
          1.6292102288952712 -0.19527431932212502 0 0 0 0
          0 0 0 0 0 0
          2.5463497807282085 -0.6554319843409876 0 1.9708335511312156 -0.6031614687584992 0
          0 0 0 0 0 0
          2.039802574448783 -0.5699600474583696 0 0 0 0
          <InformationKey name="L2_NORM_RANGE" location="vtkDataArray" length="2">
            <Value index="0">
              0
            </Value>
            <Value index="1">
              2.6293513063
            </Value>
          </InformationKey>
        </DataArray>
      </CellData>
      <Points>
        <DataArray type="Float32" Name="Points" NumberOfComponents="3" format="ascii" RangeMin="10.632507764558053" RangeMax="14.866068747318506">
          11 10 0 11 8.362662315368652 0
          11 6.387491226196289 0 10.5 9.17588996887207 0
          10.5 7.3431549072265625 0 10 10 0
          10 8.340899467468262 0 10.5 5 0
          10 3.61250901222229 0 11 3.7184319496154785 0
          10 6.2815680503845215 0
          <InformationKey name="L2_NORM_RANGE" location="vtkDataArray" length="2">
            <Value index="0">
              10.632507765
            </Value>
            <Value index="1">
              14.866068747
            </Value>
          </InformationKey>
        </DataArray>
      </Points>
      <Cells>
        <DataArray type="Int64" Name="connectivity" format="ascii" RangeMin="0" RangeMax="10">
          0 5 3 3 5 6
          0 3 1 3 6 1
          1 6 4 8 9 7
          4 6 10 1 4 2
          2 4 10 2 10 7
          7 9 2 8 7 10
        </DataArray>
        <DataArray type="Int64" Name="offsets" format="ascii" RangeMin="3" RangeMax="36">
          3 6 9 12 15 18
          21 24 27 30 33 36
        </DataArray>
        <DataArray type="UInt8" Name="types" format="ascii" RangeMin="5" RangeMax="5">
          5 5 5 5 5 5
          5 5 5 5 5 5
        </DataArray>
      </Cells>
    </Piece>
  </UnstructuredGrid>
</VTKFile>
