<?xml version="1.0"?>
<VTKFile type="UnstructuredGrid" version="0.1" byte_order="LittleEndian" header_type="UInt32" compressor="vtkZLibDataCompressor">
  <UnstructuredGrid>
    <Piece NumberOfPoints="130" NumberOfCells="212">
      <PointData>
        <DataArray type="Float64" Name="Velocity" NumberOfComponents="3" format="ascii" RangeMin="0" RangeMax="0.11534517549736815">
          0 0 0 0 0.008375158419857061 0
          0.011620336683120451 0.006638861681366011 0 0.0260426458573439 0.015704740500000692 0
          0 0.017177408731822896 0 0.057905008410769204 0.024525552476966007 0
          0.04945087861297998 0.019955379481133174 0 0.0055470232996402205 0.0032500737370712756 0
          0.009166376266175714 0 0 0 0.0042269055993599015 0
          0.013440274441876681 0.01596339810815049 0 0.010301891597263113 0.011857073103024205 0
          0 0.013012707562198 0 0.006536303518539709 0.007439462623143732 0
          0.016625430377441207 0.007726091414795195 0 0.013701441957695354 0.0034707383138605705 0
          0.016532388065611883 0.011270535247402893 0 0.02255952165270611 0.012468356214441248 0
          0.035668047897155955 0.019970924862559962 0 0.03937098458630991 0.0188375443790844 0
          0.029764231201679526 0.01570446267850458 0 0 0.020080292219893443 0
          0.020836944572856002 0.02004051997175639 0 0.03887027616686098 0.018250863190678226 0
          0.059264292149364316 0.02452956528701583 0 0.04433307449483927 0.021504830983593164 0
          0.028745912913543867 0.019792910661761084 0 0.02455416116951632 0.017967161485355224 0
          0.017138609507366342 0.01800195903995344 0 0.04530904068495655 0.022301477114229036 0
          0.04776889220194857 0.022118759501919067 0 0.03751951624173293 0.01940423462082218 0
          0.0450943871428483 0.01991711357372647 0 0.04723434603770047 0.02119332537154539 0
          0.03912063037658545 0.018544203784881315 0 0.017878366203153598 0.020590022795570196 0
          0 0.018992759727982853 0 0.012433709549074844 0.01999395458532137 0
          0.03836812013675619 0.021914466491917518 0 0.03046649952422991 0.021268635946072183 0
          0.010418472286428001 0.018608964351789645 0 0.04375728426027102 0.019094768631343007 0
          0.03956104055756314 0.018457648270496334 0 0.08261691106598477 0.028675029925072835 0
          0.07807570607789989 0.029618514999547693 0 0.05433040020489489 0.02233441619637873 0
          0.06839651479014287 0.027118662397770554 0 0.0618342525713007 0.025397882672367783 0
          0.054840677578953265 0.023280134505358246 0 0.058914769708985515 0.022661552129201814 0
          0.046175406420715444 0.018177435922090583 0 0.04433740987580869 0.01880454355483845 0
          0.05113277702014762 0.018207837185261075 0 0.043831816953155384 0.01851087863219719 0
          0.046350838819799275 0.017101457474956432 0 0.04770518944156959 0.01572146979639193 0
          0.015797660717155708 0 0 0.019982370981910354 0.009134909378669875 0
          0.03044859784843527 0.016126051342839457 0 0.0169306258867875 0.004570890743121003 0
          0.024400601541121475 0.012882373113747507 0 0.017610568767345243 0.003291856907216479 0
          0.017530273397682573 0 0 0.02226742903083382 0.011655246616089516 0
          0.019749779721187438 0.00832335035598946 0 0.03212113341599766 0.017922495720743708 0
          0.026759715625203503 0.015610183282315037 0 0.0402518049482653 0.018664433350314442 0
          0.01874419430468798 0.007425206280793063 0 0.023110013474686275 0.015004269472449613 0
          0.01516897792828728 0 0 0.03283374393920629 0.020521891183460962 0
          0.016818615923276516 0.014107986937406555 0 0.023586028202539723 0.026458881854409342 0
          0.008981702041198525 0.01337540540561842 0 0.03976648565209423 0.03007348190845935 0
          0.01072392854413063 0.024747348049672786 0 0.015212254362461836 0.04762645927804394 0
          0 0 0 0 0.029259793217507577 0
          0.020571697489272827 0.011268224096107027 0 0.01849798989173424 0.010369488649897273 0
          0.017055165007641825 0.004180228323975429 0 0.02737184882405834 0.018314401837894453 0
          0.023734144332471667 0.019910999446349123 0 0.020111749085829248 0.014787158570895065 0
          0.0159937969257819 0.007053993468703277 0 0.03599875582511951 0.02414476575479735 0
          0.028672127867924578 0.023261635845638232 0 0.019447916138461713 0.02039537955930159 0
          0.013771272233703573 0.01942766749353967 0 0.03062642760543721 0.030220814647512972 0
          0.020624378618971012 0.03544963400957149 0 0.016866416578798137 0.026828669944565037 0
          0.028279009858901513 0.04263052200187165 0 0.012463369495463004 0.034632272148631724 0
          0.005361964272065315 0.02700357063359018 0 0.009643458749786343 0.06333613205060824 0
          0.006030029393294403 0.039020937231908887 0 0 0.04906458406514927 0
          0.042069281762202905 0.022202395122662293 0 0.0400221344958989 0.0215663272803735 0
          0.042086515859189697 0.019081712552564203 0 0.038125280386692405 0.021404599552555897 0
          0.037660765097723974 0.02680038951418418 0 0.03331259171527836 0.02718279020115516 0
          0.03478156948061983 0.031022146911102486 0 0.029452718732169363 0.03642566832469231 0
          0.03433885292174366 0.03722826305148099 0 0.045416274927340544 0.023911238553408383 0
          0.1096303590143213 0.035856573914830166 0 0.07273774465115405 0.029232213145941835 0
          0 0.020164658481069055 0 0.09190789108470095 0.03585763036316532 0
          0.08423249882501602 0.026242811339044693 0 0.02601385854132905 0.01985399967189732 0
          0.07669844878896222 0.022807249839471442 0 0.057752069970909634 0.019662416306783507 0
          0.050986635154462355 0.013681409371988272 0 0.049508223651637005 0.011260576933970224 0
          0.05028787781289097 0.015308228470059724 0 0.03313035855429648 0.04365425146541955 0
          0.025641832055438015 0.04960415169170622 0 0.023004654251974517 0.05657778138154078 0
          0.044108420459059515 0.029837578187427594 0 0.03945690612282043 0.035771784531227854 0
          0 0.08165100341217761 0 0.017989869387497425 0.0813873761361221 0
          0.05022888127748059 0.020816847520038564 0 0.03127146956898898 0.05148144123675555 0
          <InformationKey name="L2_NORM_RANGE" location="vtkDataArray" length="2">
            <Value index="0">
              0
            </Value>
            <Value index="1">
              0.1153451755
            </Value>
          </InformationKey>
        </DataArray>
        <DataArray type="Float64" Name="Pressure" format="ascii" RangeMin="-8.879278165404452" RangeMax="-1.8161908204955155">
          -8.879278165404452 -6.725263063229316 -7.2340107240569065 -4.853271055311311 -4.163807793438103 -2.5730882257780845
          -3.2361102226024006 -8.056717849342665 -8.876397021950943 -7.801171615199773 -4.612339874097696 -5.789898299465797
          -5.434883645515667 -6.981182498394597 -7.044592144777947 -8.05090062834956 -6.038524086645899 -5.848320408776478
          -3.680261494279387 -4.032832605774118 -4.969560616022933 -2.9662484561745517 -3.3556184147758206 -4.141553580028453
          -2.905136060319474 -2.197227114780529 -3.579098260891188 -4.1463006841885415 -3.9839791444367583 -3.122297832388313
          -3.2909370070358053 -3.8565470500267525 -3.6351657649740394 -3.4625826613690287 -4.087193092901286 -2.5803461824216294
          -3.560903714673062 -3.163509188142681 -2.9652747849206547 -2.7709251977303215 -3.759713104106962 -3.683311002926948
          -4.011330114834703 -2.1853916594803233 -2.3531954304033373 -3.0691768973381577 -2.5167323410770432 -2.739644136692018
          -2.3850033620180766 -2.6732590391009547 -3.257770742282182 -3.5561063368276113 -2.862650408918508 -3.2798110737426898
          -2.890026729291728 -2.8768622973234663 -8.867327951816867 -6.85246886151824 -5.086981355455179 -7.858756067067224
          -5.968845603257569 -8.185278674533192 -8.847392170548085 -6.49468990970744 -7.178448030858484 -4.826730985230646
          -5.60968737025154 -3.8811066496409534 -7.505680810686832 -6.1362236059011455 -8.826611973790069 -4.566847474010554
          -6.848885560826064 -5.096868276253848 -7.29733245908534 -3.318477121224313 -6.105201949354631 -4.346675963343364
          -8.821568653067427 -5.8843261281649815 -6.821115835328524 -7.176992215748857 -8.167057083540486 -5.35047700898561
          -5.617229421850586 -6.49159410682273 -7.837748767308066 -3.946247263712776 -4.829857700377433 -5.974860348456277
          -6.477043755090348 -4.205026966592545 -4.728774130214514 -5.597948287510758 -3.8253851452655927 -5.2333273536730065
          -5.994764038759806 -3.789257981840226 -5.114243744300758 -4.569881217165062 -3.2981490785797574 -3.60830375915403
          -3.5820233793170995 -3.9136769566768645 -3.6345462212236987 -4.07563711515266 -3.7595687518920835 -4.0152060559290685
          -3.566422520136843 -2.9030633194452755 -1.826864234473705 -2.133555838635625 -2.3919005066061 -1.9793046476086076
          -2.007688881210579 -2.0097739245160136 -1.8161908204955155 -2.3095165092234287 -2.489285492132783 -2.490999838270082
          -2.495476147528359 -3.4334784201770265 -3.6928504804721145 -3.5603158156786368 -2.9266097739544468 -3.1843159754734893
          -3.218736595079016 -2.96799202547439 -2.514588410868483 -3.298001190995045
        </DataArray>
        <DataArray type="Float64" Name="ALEdispl" NumberOfComponents="3" format="ascii" RangeMin="0" RangeMax="0">
          0 0 0 0 0 0
          0 0 0 0 0 0
          0 0 0 0 0 0
          0 0 0 0 0 0
          0 0 0 0 0 0
          0 0 0 0 0 0
          0 0 0 0 0 0
          0 0 0 0 0 0
          0 0 0 0 0 0
          0 0 0 0 0 0
          0 0 0 0 0 0
          0 0 0 0 0 0
          0 0 0 0 0 0
          0 0 0 0 0 0
          0 0 0 0 0 0
          0 0 0 0 0 0
          0 0 0 0 0 0
          0 0 0 0 0 0
          0 0 0 0 0 0
          0 0 0 0 0 0
          0 0 0 0 0 0
          0 0 0 0 0 0
          0 0 0 0 0 0
          0 0 0 0 0 0
          0 0 0 0 0 0
          0 0 0 0 0 0
          0 0 0 0 0 0
          0 0 0 0 0 0
          0 0 0 0 0 0
          0 0 0 0 0 0
          0 0 0 0 0 0
          0 0 0 0 0 0
          0 0 0 0 0 0
          0 0 0 0 0 0
          0 0 0 0 0 0
          0 0 0 0 0 0
          0 0 0 0 0 0
          0 0 0 0 0 0
          0 0 0 0 0 0
          0 0 0 0 0 0
          0 0 0 0 0 0
          0 0 0 0 0 0
          0 0 0 0 0 0
          0 0 0 0 0 0
          0 0 0 0 0 0
          0 0 0 0 0 0
          0 0 0 0 0 0
          0 0 0 0 0 0
          0 0 0 0 0 0
          0 0 0 0 0 0
          0 0 0 0 0 0
          0 0 0 0 0 0
          0 0 0 0 0 0
          0 0 0 0 0 0
          0 0 0 0 0 0
          0 0 0 0 0 0
          0 0 0 0 0 0
          0 0 0 0 0 0
          0 0 0 0 0 0
          0 0 0 0 0 0
          0 0 0 0 0 0
          0 0 0 0 0 0
          0 0 0 0 0 0
          0 0 0 0 0 0
          0 0 0 0 0 0
          <InformationKey name="L2_NORM_RANGE" location="vtkDataArray" length="2">
            <Value index="0">
              0
            </Value>
            <Value index="1">
              0
            </Value>
          </InformationKey>
        </DataArray>
        <DataArray type="Float64" Name="ALEveloc" NumberOfComponents="3" format="ascii" RangeMin="0" RangeMax="0.8214875541147505">
          0 0 0 0 -0.11793662078651632 0
          0.04104566342307362 -0.09843391319460462 0 0.05966406367280153 -0.2773584108992556 0
          0 -0.3575516837795104 0 0.04720323017055793 -0.5950801662027191 0
          0.16864836783031084 -0.3638160690076265 0 0.020041899841327142 -0.04851678648435574 0
          0.03473211650894909 0 0 0 -0.06203753243633931 0
          0.02012876837071533 -0.2928222300459512 0 0.026315607543740682 -0.19517119941001432 0
          0 -0.20203646801590694 0 0.02120040837081838 -0.11279118873487526 0
          0.06209534814128903 -0.10660236967616132 0 0.0531103536467505 -0.04742952178571519 0
          0.04983853667902484 -0.17951084284470012 0 0.07585177190810756 -0.18381905679256277 0
          0.05504388671469426 -0.4028337789157062 0 0.09914382711815206 -0.32029946446448226 0
          0.0914840232176341 -0.24398948952380706 0 0 -0.5466774286925107 0
          0.017763160475911775 -0.4698640583166553 0 0.1426777165936418 -0.2660502075396729 0
          0.10333574213493534 -0.46392353865192915 0 0.014854962344393388 -0.702368418810887 0
          0.033284659489811005 -0.4030931077585506 0 0.037032522652976074 -0.3512600482995891 0
          0.01927223819576693 -0.34921644961750953 0 0.05127539790619735 -0.46756744531555394 0
          0.07394172436369054 -0.42961054921918435 0 0.0779268523527771 -0.35944993189976826 0
          0.12446103721689172 -0.33169718235144274 0 0.0999878273594928 -0.3752490854858466 0
          0.12116685711470002 -0.29283112424846497 0 0.007279920513292194 -0.6283785007164711 0
          0 -0.4498673172064895 0 0.007344720054944491 -0.5313224174534905 0
          0.02819622073005758 -0.49748610979998953 0 0.01630906141015258 -0.586116238563771 0
          0.00790017332510808 -0.4298632301100338 0 0.15038624743004964 -0.29915534702625546 0
          0.15949781596870943 -0.2602778478551765 0 0.061228707542040094 -0.6576229118420301 0
          0.0948046183462898 -0.5945390384848896 0 0.13564895467740434 -0.414792256505529 0
          0.13801386372581306 -0.5331192908665745 0 0.07125025349114522 -0.5126514337275482 0
          0.024979271906574185 -0.6257570515177395 0 0.17903924154120435 -0.4777630681718512 0
          0.21748504980294367 -0.33088957907389077 0 0.17132085517756032 -0.2934749531842643 0
          0.22882955638843255 -0.41623320981432 0 0.26850107739227763 -0.2941042237167208 0
          0.36477803076960624 -0.3487230648440303 0 0.29396693801421664 -0.3842284014337185 0
          0.06366173150834192 0 0 0.0812823195873628 -0.10734081251263182 0
          0.12229380492932967 -0.2056731532136957 0 0.06887013703154504 -0.05382556740285912 0
          0.09856593026796862 -0.15609311047768795 0 0.07382368005382836 -0.03197903741363204 0
          0.07183965929256313 0 0 0.09897577650001604 -0.1106536523716353 0
          0.08518453457059277 -0.07866902969365878 0 0.1506461395627637 -0.19865106885981262 0
          0.12602095602417335 -0.15247076253394612 0 0.1792119802044572 -0.25705306462502364 0
          0.08132492336753527 -0.052776078074328464 0 0.11561899810970529 -0.1048783750660782 0
          0.059390788089380746 0 0 0.18396391351203475 -0.18824562884163287 0
          0.07607856031179823 -0.039574097436265734 0 0.1611004157427372 -0.08483681887741551 0
          0.042161024064891674 -0.010332958885399507 0 0.3666586387399557 -0.21497880687648876 0
          0.05740016991407393 -0.01144562662398623 0 0.15811316330411684 0.01684574839342336 0
          0 0 0 0 0.005056133506242589 0
          0.09482849895415832 -0.07901991888461327 0 0.08138621550152857 -0.051176052614008836 0
          0.06768005353017453 -0.020453297013604748 0 0.14613686363724676 -0.14391034919203738 0
          0.13789346557084167 -0.10051966449351457 0 0.10021769958044534 -0.07088413401830132 0
          0.0669484873489793 -0.01950792974582892 0 0.2513454423823209 -0.19333916048596203 0
          0.18376695619633127 -0.13574368069889436 0 0.11130738288165169 -0.06279899867607226 0
          0.06679818625944976 -0.025753842860548368 0 0.2349660193235992 -0.12589081852434875 0
          0.166651334654006 -0.04310915580014911 0 0.11062179385256393 -0.03874837497165033 0
          0.2644625269214163 -0.0698113624410243 0 0.09869136035258366 -0.00422137975870159 0
          0.02942798757117432 -0.0027343529677444425 0 0.15736208679231542 0.10375534667363712 0
          0.055184548108117744 0.025357697889638067 0 0 0.07038702327422203 0
          0.3163713128095503 -0.25742648974752363 0 0.25676548877552247 -0.2397883537547849 0
          0.22238889280383556 -0.2753011374882004 0 0.22198555376389467 -0.23572725834592975 0
          0.2904372767165753 -0.194203024711913 0 0.25124288277843004 -0.16380768052654876 0
          0.285562730604494 -0.15944756862546555 0 0.23978427680023973 -0.09594575947656292 0
          0.3342276134949716 -0.14422471404957857 0 0.43103786422537343 -0.30626592938572905 0
          0.0833791087540573 -0.7398736926627987 0 0.1880054416763397 -0.6114620316906637 0
          0 -0.6492973338594357 0 0.1313792801712758 -0.6710533860962983 0
          0.03913451960826917 -0.7147859660090108 0 0.006227154021073239 -0.7893336978122217 0
          0.0214338551649484 -0.821207885628361 0 0.24966413163509096 -0.5465105995497788 0
          0.3077479399430325 -0.48117609856135035 0 0.3909459774637449 -0.44869544742423795 0
          0.4791337468117261 -0.40754537898214827 0 0.37417355986125855 -0.12307002412673881 0
          0.28269610643835213 -0.044276797342810155 0 0.2978992217445947 -0.010884964740162246 0
          0.46139418133053045 -0.27314683506767246 0 0.41786518377788434 -0.20430541523150234 0
          0 0.3999040865350838 0 0.5120983945497489 0.053256837970104325 0
          0.5133890650478529 -0.3769270821107052 0 0.4126114624858748 -0.10213175725277618 0
          <InformationKey name="L2_NORM_RANGE" location="vtkDataArray" length="2">
            <Value index="0">
              0
            </Value>
            <Value index="1">
              0.82148755411
            </Value>
          </InformationKey>
        </DataArray>
        <DataArray type="Float64" Name="LEVEL" format="ascii" RangeMin="-0.8313502907586555" RangeMax="-0.06639472272819406">
          -0.16685562184088312 -0.12789371455871626 -0.21951737082571574 -0.1760125121662292 -0.08809759215769325 -0.11934913510186054
          -0.16130245484263112 -0.19533404860924547 -0.24750814774366053 -0.14743693745719727 -0.12795529202269565 -0.1577783953825537
          -0.10612827134969506 -0.17399488278754802 -0.2574005258081788 -0.2732663555094703 -0.1987394930478229 -0.22906735305629322
          -0.14313752052451864 -0.17705059687766414 -0.20880168974279467 -0.07296757370520668 -0.10938681235669194 -0.19820896551338846
          -0.14137330812912932 -0.09465315765100085 -0.12188595667619628 -0.13626956567300963 -0.1170321752387556 -0.12812238148889588
          -0.1449483237373713 -0.15989086964071697 -0.17139148497279455 -0.1571226119967743 -0.18745052203000354 -0.08402037908611275
          -0.08025585366631398 -0.09140240482090921 -0.11474014967357479 -0.10201998500384639 -0.09906273136371677 -0.178343258060207
          -0.1991013945439453 -0.11853653868357757 -0.1266496999497984 -0.1519199736968147 -0.13522423559176436 -0.1302214713614059
          -0.10699859191011094 -0.1419372562808008 -0.16760500944498308 -0.1772162599129148 -0.15006817087902463 -0.1727432336694405
          -0.1569680427619629 -0.15408900999604697 -0.33733160434630305 -0.294386103862219 -0.24152531493044735 -0.31787511635083515
          -0.27023298648594585 -0.3716356417909321 -0.4524585899411727 -0.3212897383217725 -0.3431509806645457 -0.24795238233860892
          -0.286733327138142 -0.1994423041484745 -0.4024684362889965 -0.34389195025490393 -0.5828166086976794 -0.2500212948130278
          -0.46156219872125354 -0.3351523813848492 -0.5996956003936251 -0.18978094608129592 -0.5135951894723343 -0.36189972658239755
          -0.8313502907586555 -0.6145552128850995 -0.3751324436229131 -0.4348762218500495 -0.4898166499951454 -0.2969155058460041
          -0.34192054444591985 -0.39873724654269405 -0.5231346644976076 -0.22224408745817636 -0.2855144439589844 -0.40118149222761
          -0.4870335572184773 -0.25845900873072847 -0.34614309689452566 -0.4202163434742744 -0.25199828816450015 -0.4453164512248198
          -0.5632956236592827 -0.3466944735182719 -0.49613918779922606 -0.5100963550046944 -0.1798194496582934 -0.19742256422138396
          -0.18620014811793986 -0.2107480779391272 -0.2068434424377057 -0.23919850682370963 -0.22314661216911522 -0.25540697715633326
          -0.2152852438816363 -0.16169175114949666 -0.11423848578468052 -0.12500803777642217 -0.06639472272819406 -0.11976809931451003
          -0.10855296782496374 -0.0790784820793774 -0.09913865126842833 -0.13113318332370935 -0.1383040035763829 -0.13892034891431407
          -0.13930919020227123 -0.21178934171462163 -0.2531798045388022 -0.25459429778835485 -0.16501421428748297 -0.18520555031186872
          -0.23555557209504038 -0.19741754546053847 -0.14174254472909345 -0.2092374470555252
        </DataArray>
      </PointData>
      <CellData>
        <DataArray type="UInt8" Name="vtkGhostType" format="ascii" RangeMin="0" RangeMax="1">
          0 0 0 0 0 0
          0 0 0 0 0 0
          0 0 0 0 0 0
          0 0 0 0 0 0
          0 0 0 0 0 0
          0 0 0 0 0 0
          0 0 0 0 0 0
          0 0 0 0 0 0
          0 0 0 0 0 0
          0 0 0 0 0 0
          0 0 0 0 0 0
          0 0 0 0 0 0
          0 0 0 0 0 0
          0 0 0 0 0 0
          0 0 0 0 0 0
          0 0 0 0 0 0
          0 0 0 0 0 0
          0 0 0 0 0 1
          0 0 1 0 0 1
          0 1 1 0 0 0
          0 0 0 0 0 0
          0 0 0 0 1 1
          1 1 1 1 1 1
          0 0 0 0 0 0
          0 0 0 0 0 0
          0 0 0 0 0 0
          0 0 0 0 0 0
          0 0 0 0 0 0
          0 0 0 1 1 1
          0 1 0 0 0 0
          0 1 0 1 0 1
          1 0 0 0 0 0
          0 0 0 0 0 0
          0 0 0 0 0 0
          0 0 0 0 1 0
          1 1
        </DataArray>
      </CellData>
      <Points>
        <DataArray type="Float32" Name="Points" NumberOfComponents="3" format="ascii" RangeMin="0.2817317490978412" RangeMax="1.4142135623730951">
          0 1 0 0 0.7799999713897705 0
          0.18538910150527954 0.8323888182640076 0 0.2148997038602829 0.5873312950134277 0
          0 0.5135279297828674 0 0.17262980341911316 0.3433345854282379 0
          0.4027113914489746 0.4189484119415283 0 0.09269455075263977 0.9161943793296814 0
          0.16691304743289948 1 0 0 0.8899999856948853 0
          0.08631490170955658 0.5616673231124878 0 0.10744985193014145 0.6836656332015991 0
          0 0.6467639207839966 0 0.09269455075263977 0.8061944246292114 0
          0.2818044126033783 0.8135008215904236 0 0.25960761308670044 0.9161943793296814 0
          0.20014439523220062 0.7098600268363953 0 0.2965596914291382 0.6909720301628113 0
          0.19376474618911743 0.465332955121994 0 0.30880555510520935 0.503139853477478 0
          0.3171716630458832 0.6006638407707214 0 0 0.385145902633667 0
          0.08631490170955658 0.4284312427043915 0 0.41107749938964844 0.5164723992347717 0
          0.2876706123352051 0.3811415135860443 0 0.08631490170955658 0.3000492453575134 0
          0.12947234511375427 0.45250093936920166 0 0.1400398313999176 0.5135001540184021 0
          0.08631490170955658 0.49504926800727844 0 0.1831972748041153 0.40433377027511597 0
          0.24071767926216125 0.42323723435401917 0 0.2512851357460022 0.48423638939857483 0
          0.3557584881782532 0.4610441327095032 0 0.298238068819046 0.4421406686306 0
          0.3599415123462677 0.5098060965538025 0 0.04315745085477829 0.3425975739955902 0
          0 0.4493368864059448 0 0.04315745085477829 0.40678858757019043 0
          0.12947234511375427 0.3858829140663147 0 0.08631490170955658 0.36424025893211365 0
          0.04315745085477829 0.47097957134246826 0 0.4068944454193115 0.46771040558815 0
          0.4446311295032501 0.5037631988525391 0 0.20767009258270264 0.3006232678890228 0
          0.2651905119419098 0.319526731967926 0 0.34519100189208984 0.4000449478626251 0
          0.32271090149879456 0.33843016624450684 0 0.23015019297599792 0.3622380495071411 0
          0.12947234511375427 0.32169193029403687 0 0.3802312910556793 0.35733363032341003 0
          0.47322705388069153 0.42389601469039917 0 0.4404480755329132 0.45500117540359497 0
          0.4462457001209259 0.3799176514148712 0 0.5437427163124084 0.42884358763694763 0
          0.5872769951820374 0.3898128569126129 0 0.5167613625526428 0.38486525416374207 0
          0.33382609486579895 1 0 0.37821969389915466 0.7946128249168396 0
          0.41944360733032227 0.6139963865280151 0 0.3560228943824768 0.8973063826560974 0
          0.39883163571357727 0.704304575920105 0 0.42906031012535095 0.9316822290420532 0
          0.5006116628646851 1 0 0.4679107964038849 0.7592308521270752 0
          0.4512571096420288 0.8289886116981506 0 0.48655083775520325 0.588577926158905 0
          0.4885227382183075 0.6689226627349854 0 0.4781847596168518 0.4910539388656616 0
          0.5242944955825806 0.8633643984794617 0 0.5576019287109375 0.7238488793373108 0
          0.6673972010612488 1 0 0.553658127784729 0.5631595253944397 0
          0.6844274997711182 0.7983605861663818 0 0.7037597894668579 0.6202651262283325 0
          0.8397989869117737 0.8445892930030823 0 0.6847739815711975 0.43873879313468933 0
          0.8471701145172119 0.7234833240509033 0 0.8715677261352539 0.5484824776649475 0
          1 1 0 1 0.7011029124259949 0
          0.540948212146759 0.7936066389083862 0 0.6043609976768494 0.8308625221252441 0
          0.5958458781242371 0.9316822290420532 0 0.5556300282478333 0.6435042023658752 0
          0.6306808590888977 0.6720569729804993 0 0.6210147142410278 0.7611047625541687 0
          0.6759123206138611 0.8991802930831909 0 0.6192160248756409 0.5009491443634033 0
          0.6287089586257935 0.5917122960090637 0 0.694093644618988 0.7093128561973572 0
          0.765798807144165 0.7609219551086426 0 0.6942669153213501 0.5295019745826721 0
          0.7876637578010559 0.5843737721443176 0 0.7754649519920349 0.6718742251396179 0
          0.7781708240509033 0.4936106503009796 0 0.8593689203262329 0.635982871055603 0
          0.923585057258606 0.7122930884361267 0 0.935783863067627 0.49489864706993103 0
          0.935783863067627 0.6247926950454712 0 1 0.5712088346481323 0
          0.614258348941803 0.4337911903858185 0 0.5814793705940247 0.46489638090133667 0
          0.5109637379646301 0.4599487781524658 0 0.5487003922462463 0.49600154161453247 0
          0.6519950032234192 0.4698439836502075 0 0.6567414999008179 0.5152255296707153 0
          0.6895204782485962 0.48412036895751953 0 0.7362188696861267 0.5115563273429871 0
          0.7314724326133728 0.4661747217178345 0 0.6577926278114319 0.39476045966148376 0
          0.2427103966474533 0.25791195034980774 0 0.35775119066238403 0.29571884870529175 0
          0 0.3209548890590668 0 0.30023080110549927 0.27681541442871094 0
          0.16451264917850494 0.2789806127548218 0 0.04315745085477829 0.27840656042099 0
          0.12135519832372665 0.25733792781829834 0 0.4237655997276306 0.31830286979675293 0
          0.4897800087928772 0.3408868908882141 0 0.5602956414222717 0.34583449363708496 0
          0.6308112740516663 0.3507820963859558 0 0.7670518755912781 0.4551134705543518 0
          0.8137503266334534 0.48254939913749695 0 0.8493297696113586 0.4714881479740143 0
          0.692839503288269 0.3998619616031647 0 0.7203534245491028 0.42767754197120667 0
          1 0.44131478667259216 0 0.9135459065437317 0.4179042875766754 0
          0.6658581495285034 0.3558836281299591 0 0.8026313185691833 0.44405221939086914 0
          <InformationKey name="L2_NORM_RANGE" location="vtkDataArray" length="2">
            <Value index="0">
              0.2817317491
            </Value>
            <Value index="1">
              1.4142135624
            </Value>
          </InformationKey>
        </DataArray>
      </Points>
      <Cells>
        <DataArray type="Int64" Name="connectivity" format="ascii" RangeMin="0" RangeMax="129">
          74 78 70 70 72 74
          76 79 74 74 79 78
          76 74 72 3 18 19
          1 10 11 3 11 18
          10 18 11 4 22 12
          1 12 10 22 10 12
          58 60 20 57 17 60
          3 20 17 60 17 20
          58 23 65 65 23 67
          58 20 23 3 19 20
          20 19 23 57 59 14
          56 15 59 2 14 15
          59 15 14 2 15 7
          56 8 15 0 7 8
          15 8 7 57 14 17
          2 16 14 3 17 16
          14 16 17 0 9 7
          1 13 9 2 7 13
          9 13 7 2 13 16
          1 11 13 3 16 11
          13 11 16 58 65 66
          56 61 62 57 63 64
          58 66 60 57 60 63
          66 63 60 57 64 59
          56 59 61 64 61 59
          71 67 87 71 83 65
          69 66 83 83 66 65
          68 82 61 70 62 82
          82 62 61 69 80 63
          68 64 80 80 64 63
          69 63 66 71 65 67
          68 61 64 73 88 91
          71 87 88 91 88 87
          71 88 83 73 84 88
          69 83 84 88 84 83
          73 89 84 72 85 89
          69 84 85 89 85 84
          69 85 80 72 81 85
          68 80 81 85 81 80
          68 81 82 72 86 81
          70 82 86 81 86 82
          126 97 127 77 123 97
          127 97 123 77 94 123
          77 97 98 126 99 97
          79 98 99 97 99 98
          77 92 94 73 91 92
          94 92 91 73 92 93
          77 95 92 76 93 95
          92 95 93 76 95 96
          77 98 95 79 96 98
          95 98 96 73 93 89
          76 90 93 72 89 90
          93 90 89 6 45 49
          24 46 45 111 49 46
          45 46 49 5 43 47
          110 44 43 24 47 44
          43 44 47 111 46 113
          24 44 46 110 113 44
          46 44 113 5 47 29
          24 30 47 18 29 30
          47 30 29 6 32 45
          19 33 32 24 45 33
          32 33 45 24 33 30
          19 31 33 18 30 31
          33 31 30 5 48 43
          25 114 48 110 43 114
          48 114 43 25 115 116
          25 116 114 25 35 115
          21 112 35 115 35 112
          5 38 48 22 39 38
          25 48 39 38 39 48
          4 36 40 21 37 36
          22 40 37 36 37 40
          25 39 35 22 37 39
          21 35 37 39 37 35
          5 29 26 18 27 29
          10 26 27 29 27 26
          5 26 38 10 28 26
          22 38 28 26 28 38
          6 50 51 53 102 50
          67 51 102 50 102 51
          6 51 41 67 42 51
          23 41 42 51 42 41