<?xml version="1.0"?>
<VTKFile type="UnstructuredGrid" version="0.1" byte_order="LittleEndian" header_type="UInt32" compressor="vtkZLibDataCompressor">
  <UnstructuredGrid>
    <Piece NumberOfPoints="58" NumberOfCells="86">
      <PointData>
        <DataArray type="Float64" Name="Velocity" NumberOfComponents="3" format="ascii" RangeMin="0" RangeMax="4.729598244118388">
          0 0 0 0 -4.729598244118388 0
          0.4239730988701937 -1.5255957932220983 0 0.5141916865194514 0 0
          0.6406538955071437 -0.7767495694217237 0 0.9740649719377392 -1.8049237158701346 0
          0 -2.9544051158694424 0 0.9349767192237659 -0.8801856668069592 0
          0.9605470248034912 -1.3299017284886752 0 1.4742196473569262 -0.7092673012890424 0
          0 -1.2459393602732476 0 1.2581749899818517 -0.4644256808646171 0
          0 0 0 0.20335534387416956 -1.0832357959057994 0
          0.318733157046216 0 0 0 -1.765111391103278 0
          0.5312462262936396 -2.668738886365239 0 0.5657309161640509 -3.016016877800316 0
          0 -3.8504120791474232 0 0.27266346504692474 -2.615300590290013 0
          0.5675959571961129 -1.0787641681510238 0 0.46354839995947195 -0.5757723728605676 0
          0.6488350108176697 -1.9807613421047714 0 0.5470304319673842 -0.46912777725345983 0
          0.7701785483666524 -0.8942449668296281 0 0.7718140818514967 -1.352567676215018 0
          0.9905549607114682 -1.6085701121010707 0 1.2509822797557026 -1.1663227163926784 0
          0.9806310306847734 -1.264864817340452 0 0 -2.069242266463052 0
          0.5526283174882988 -1.9851489109835636 0 1.1725024818804066 -0.8486593674272723 0
          1.1296070052626634 -0.8254359210866538 0 1.2668819059643477 -0.9865596818280253 0
          0.5003757708603517 -1.3007109518268511 0 1.4021412469433088 -0.6216341145778778 0
          0.7193418534270364 -0.7805806066125662 0 0 -0.6002223317197088 0
          1.0316684959632878 -0.22863208653273084 0 1.3325135202749465 -0.19336138930402388 0
          0.6031884700459397 -0.28579953919947276 0 0.5021870956013924 0 0
          0.8594209260549688 0 0 1.408420928165213 0 0
          1.163410856391065 0 0 0.5497748435631588 -0.23675537726416943 0
          0.5316182920514971 0 0 0.6790620744589566 -0.6138172653986387 0
          0.6101431700320987 -0.5065273657323728 0 0.94392048845745 -0.6964522132402121 0
          0.7968704594515035 -0.6692020810923782 0 1.2429089212222975 -0.48288871960865054 0
          1.1767071134561877 -0.6592880575953105 0 1.5911090632584115 -0.427443433434794 0
          1.50737481267983 -0.2238700531906032 0 1.5198370133655756 -0.35119769254812166 0
          1.550388731159568 -0.05223036627043667 0 1.5520300930189541 0 0
          <InformationKey name="L2_NORM_RANGE" location="vtkDataArray" length="2">
            <Value index="0">
              0
            </Value>
            <Value index="1">
              4.7295982441
            </Value>
          </InformationKey>
        </DataArray>
        <DataArray type="Float64" Name="Pressure" format="ascii" RangeMin="-5.346194759931403" RangeMax="6.338577164679047">
          -4.306330961649877 -0.3174605285726551 -2.6743651095456795 -4.9457431516847725 -3.005525714745245 0.061189797744865874
          1.8550260261064027 -1.45180137078417 2.6661572780745266 0.018466010296620764 4.026061579795845 3.334143981089029
          6.338577164679047 -3.5115789204302503 -4.453635906353783 -3.1440243560413776 1.1987617254980374 0.026214166468606994
          0.7363226065402304 -1.9133330448304031 -2.8447383777037714 -3.8671205035134326 -1.1328530908520067 -3.9869075106659446
          -2.231011882172431 -1.5631102164838258 1.349134430649359 0.0218333071941741 -0.8871081777175487 2.9728960035566327
          2.3921707318245105 -0.5763600329911489 3.032402462720158 1.4360434568380551 3.508754981141302 1.6967807414716007
          3.994749118311502 5.128406612477095 4.3617601311895875 3.4634594735874904 5.168219760800335 6.069274839076542
          5.359450872714204 3.5852069249807905 4.546048713403847 -4.5267726193854125 -5.346194759931403 -2.96652650963475
          -3.580473620384817 -1.561211034899587 -2.2025599108960865 -0.7134996493048648 -0.8559278429622876 0.027024423849645495
          2.352194043707979 1.700818930022114 2.463845283434127 2.6414256491668446
        </DataArray>
        <DataArray type="Float64" Name="ALEdispl" NumberOfComponents="3" format="ascii" RangeMin="0" RangeMax="0">
          0 0 0 0 0 0
          0 0 0 0 0 0
          0 0 0 0 0 0
          0 0 0 0 0 0
          0 0 0 0 0 0
          0 0 0 0 0 0
          0 0 0 0 0 0
          0 0 0 0 0 0
          0 0 0 0 0 0
          0 0 0 0 0 0
          0 0 0 0 0 0
          0 0 0 0 0 0
          0 0 0 0 0 0
          0 0 0 0 0 0
          0 0 0 0 0 0
          0 0 0 0 0 0
          0 0 0 0 0 0
          0 0 0 0 0 0
          0 0 0 0 0 0
          0 0 0 0 0 0
          0 0 0 0 0 0
          0 0 0 0 0 0
          0 0 0 0 0 0
          0 0 0 0 0 0
          0 0 0 0 0 0
          0 0 0 0 0 0
          0 0 0 0 0 0
          0 0 0 0 0 0
          0 0 0 0 0 0
          <InformationKey name="L2_NORM_RANGE" location="vtkDataArray" length="2">
            <Value index="0">
              0
            </Value>
            <Value index="1">
              0
            </Value>
          </InformationKey>
        </DataArray>
        <DataArray type="Float64" Name="ALEveloc" NumberOfComponents="3" format="ascii" RangeMin="0" RangeMax="0">
          0 0 0 0 0 0
          0 0 0 0 0 0
          0 0 0 0 0 0
          0 0 0 0 0 0
          0 0 0 0 0 0
          0 0 0 0 0 0
          0 0 0 0 0 0
          0 0 0 0 0 0
          0 0 0 0 0 0
          0 0 0 0 0 0
          0 0 0 0 0 0
          0 0 0 0 0 0
          0 0 0 0 0 0
          0 0 0 0 0 0
          0 0 0 0 0 0
          0 0 0 0 0 0
          0 0 0 0 0 0
          0 0 0 0 0 0
          0 0 0 0 0 0
          0 0 0 0 0 0
          0 0 0 0 0 0
          0 0 0 0 0 0
          0 0 0 0 0 0
          0 0 0 0 0 0
          0 0 0 0 0 0
          0 0 0 0 0 0
          0 0 0 0 0 0
          0 0 0 0 0 0
          0 0 0 0 0 0
          <InformationKey name="L2_NORM_RANGE" location="vtkDataArray" length="2">
            <Value index="0">
              0
            </Value>
            <Value index="1">
              0
            </Value>
          </InformationKey>
        </DataArray>
        <DataArray type="Float64" Name="LEVEL" format="ascii" RangeMin="-0.4979860934827814" RangeMax="0.58076416330734">
          -0.16685562184088312 0 -0.1627626701087064 -0.3866492270298222 -0.2633589223348365 0
          0.3665655626794153 -0.1563962781702671 0.20988954749992608 0 0.38958560621002214 0.2435318312059135
          0.58076416330734 -0.16480914597479476 -0.27675242443535264 -0.08342781092044156 0.10494477374996304 0
          0.18328278133970766 -0.0813813350543532 -0.21306079622177143 -0.2747059485692643 -0.0813813350543532 -0.32500407468232934
          -0.2098776002525518 -0.13167946116741824 0.10494477374996304 0 -0.07819813908513355 0.3780755844447187
          0.2882275550896707 -0.07819813908513355 0.2267106893529198 0.10494477374996304 0.2997375768549741 0.12176591560295676
          0.3165587187079678 0.4851748847586811 0.32688338084927526 0.252637343654307 0.41214799725662676 0.49549954689998854
          0.41023493049263704 0.2617428561027005 0.3359888932976688 -0.39935500063372054 -0.4979860934827814 -0.29688745115694964
          -0.33770984828622774 -0.18226758636711343 -0.24340612907466497 -0.10151240047039287 -0.10406944728197988 0
          0.16978455564597256 0.12176591560295676 0.17889006809436603 0.1939871043290286
        </DataArray>
      </PointData>
      <CellData>
        <DataArray type="UInt8" Name="vtkGhostType" format="ascii" RangeMin="0" RangeMax="0">
          0 0 0 0 0 0
          0 0 0 0 0 0
          0 0 0 0 0 0
          0 0 0 0 0 0
          0 0 0 0 0 0
          0 0 0 0 0 0
          0 0 0 0 0 0
          0 0 0 0 0 0
          0 0 0 0 0 0
          0 0 0 0 0 0
          0 0 0 0 0 0
          0 0 0 0 0 0
          0 0 0 0 0 0
          0 0 0 0 0 0
          0 0
        </DataArray>
      </CellData>
      <Points>
        <DataArray type="Float32" Name="Points" NumberOfComponents="3" format="ascii" RangeMin="0" RangeMax="1.1183076665194356">
          0 1 0 0 0.7799999713897705 0
          0.18538910150527954 0.8323888182640076 0 0.33382609486579895 1 0
          0.37821969389915466 0.7946128249168396 0 0.2148997038602829 0.5873312950134277 0
          0 0.5135279297828674 0 0.41944360733032227 0.6139963865280151 0
          0.17262980341911316 0.3433345854282379 0 0.4027113914489746 0.4189484119415283 0
          0 0.25676390528678894 0 0.31279098987579346 0.17248930037021637 0
          0 0 0 0.09269455075263977 0.9161943793296814 0
          0.16691304743289948 1 0 0 0.8899999856948853 0
          0.08631490170955658 0.5616673231124878 0 0.10744985193014145 0.6836656332015991 0
          0 0.6467639207839966 0 0.09269455075263977 0.8061944246292114 0
          0.2818044126033783 0.8135008215904236 0 0.25960761308670044 0.9161943793296814 0
          0.20014439523220062 0.7098600268363953 0 0.3560228943824768 0.8973063826560974 0
          0.39883163571357727 0.704304575920105 0 0.2965596914291382 0.6909720301628113 0
          0.19376474618911743 0.465332955121994 0 0.30880555510520935 0.503139853477478 0
          0.3171716630458832 0.6006638407707214 0 0 0.385145902633667 0
          0.08631490170955658 0.4284312427043915 0 0.41107749938964844 0.5164723992347717 0
          0.2427103966474533 0.25791195034980774 0 0.2876706123352051 0.3811415135860443 0
          0.08631490170955658 0.3000492453575134 0 0.35775119066238403 0.29571884870529175 0
          0.15639549493789673 0.21462659537792206 0 0 0.12838195264339447 0
          0.28412413597106934 0.08624465018510818 0 0.39534664154052734 0.08624465018510818 0
          0.15639549493789673 0.08624465018510818 0 0.1277286559343338 0 0
          0.2554573118686676 0 0 0.47790229320526123 0 0
          0.3666797876358032 0 0 0.42906031012535095 0.9316822290420532 0
          0.5006116628646851 1 0 0.4679107964038849 0.7592308521270752 0
          0.4512571096420288 0.8289886116981506 0 0.48655083775520325 0.588577926158905 0
          0.4885227382183075 0.6689226627349854 0 0.5437427163124084 0.42884358763694763 0
          0.4781847596168518 0.4910539388656616 0 0.4897800087928772 0.3408868908882141 0
          0.46478500962257385 0.13526567816734314 0 0.4448198080062866 0.21765734255313873 0
          0.5473406314849854 0.04902103170752525 0 0.5794022083282471 0 0
          <InformationKey name="L2_NORM_RANGE" location="vtkDataArray" length="2">
            <Value index="0">
              0
            </Value>
            <Value index="1">
              1.1183076665
            </Value>
          </InformationKey>
        </DataArray>
      </Points>
      <Cells>
        <DataArray type="Int64" Name="connectivity" format="ascii" RangeMin="0" RangeMax="57">
          11 35 32 9 33 35
          8 32 33 35 33 32
          8 33 26 9 27 33
          5 26 27 33 27 26
          11 32 36 8 34 32
          10 36 34 32 34 36
          10 34 29 8 30 34
          6 29 30 34 30 29
          1 16 17 8 26 16
          5 17 26 16 26 17
          6 30 18 8 16 30
          1 18 16 30 16 18
          9 51 52 7 49 50
          3 45 46 4 47 48
          7 50 24 4 24 47
          50 47 24 7 24 28
          4 25 24 5 28 25
          24 25 28 7 31 49
          9 52 31 49 31 52
          7 28 31 5 27 28
          9 31 27 28 27 31
          4 48 23 3 23 45
          48 45 23 4 23 20
          3 21 23 2 20 21
          23 21 20 2 21 13
          3 14 21 0 13 14
          21 14 13 4 20 25
          2 22 20 5 25 22
          20 22 25 0 15 13
          1 19 15 2 13 19
          15 19 13 2 19 22
          1 17 19 5 22 17
          19 17 22 42 44 38
          43 39 44 11 38 39
          44 39 38 11 54 55
          9 35 53 11 55 35
          53 35 55 11 39 54
          43 56 39 54 39 56
          12 40 37 11 36 40
          10 37 36 40 36 37
          12 41 40 42 38 41
          11 40 38 41 38 40
          9 53 51 43 57 56
        </DataArray>
        <DataArray type="Int64" Name="offsets" format="ascii" RangeMin="3" RangeMax="258">
          3 6 9 12 15 18
          21 24 27 30 33 36
          39 42 45 48 51 54
          57 60 63 66 69 72
          75 78 81 84 87 90
          93 96 99 102 105 108
          111 114 117 120 123 126
          129 132 135 138 141 144
          147 150 153 156 159 162
          165 168 171 174 177 180
          183 186 189 192 195 198
          201 204 207 210 213 216
          219 222 225 228 231 234
          237 240 243 246 249 252
          255 258
        </DataArray>
        <DataArray type="UInt8" Name="types" format="ascii" RangeMin="5" RangeMax="5">
          5 5 5 5 5 5
          5 5 5 5 5 5
          5 5 5 5 5 5
          5 5 5 5 5 5
          5 5 5 5 5 5
          5 5 5 5 5 5
          5 5 5 5 5 5
          5 5 5 5 5 5
          5 5 5 5 5 5
          5 5 5 5 5 5
          5 5 5 5 5 5
          5 5 5 5 5 5
          5 5 5 5 5 5
          5 5 5 5 5 5
          5 5
        </DataArray>
      </Cells>
    </Piece>
  </UnstructuredGrid>
</VTKFile>
