<?xml version="1.0"?>
<VTKFile type="UnstructuredGrid" version="0.1" byte_order="LittleEndian" header_type="UInt32" compressor="vtkZLibDataCompressor">
  <UnstructuredGrid>
    <Piece NumberOfPoints="131" NumberOfCells="216">
      <PointData>
        <DataArray type="Float64" Name="Velocity" NumberOfComponents="3" format="ascii" RangeMin="0" RangeMax="1.213516214989737">
          0 0.018698273256476702 0 0.15165280278145812 0.08093890085338058 0
          0 0 0 0.1096303590143213 0.035856573914830166 0
          0.07273774465115405 0.029232213145941835 0 0.12130969322057616 0.025017604560388602 0
          0 0.009701150010268202 0 0.4459444352145403 0.09679130151855316 0
          -0.12426061538616005 -0.008606367566080365 0 0.2602157509616346 0.0023941772483269575 0
          0.236833404110695 0 0 0.7683492661074505 0 0
          -0.4966969830935373 0 0 0 0.020164658481069055 0
          0.1361149689329445 0.04976548072003898 0 0.09190789108470095 0.03585763036316532 0
          0.12211374833640672 0.03143870937223983 0 0.08423249882501602 0.026242811339044693 0
          0.02601385854132905 0.01985399967189732 0 0.07669844878896222 0.022807249839471442 0
          0.09665311924445469 0.04452741015178794 0 0.057752069970909634 0.019662416306783507 0
          0.06445960854836764 0.026077394930994553 0 0.1702382577032049 0.041085423544600035 0
          0.058493550250509084 0.01956067309570912 0 0.1804577069870187 0.019618722013508286 0
          0.08358531615481671 0.01525267697754923 0 0 0.0035592665846020397 0
          0.11352570050226178 0.007509287814897658 0 0 0.015289569692792809 0
          0.931613402680949 -0.24913821026517652 0 0.10503499711040071 1.2089620562387537 0
          0.2419639483325874 0.1084941672204146 0 0.07199836130610121 0.35591625323018583 0
          0.4827446577401117 -0.058335718067641984 0 0.384060276808734 0.008794944468437668 0
          -0.47032195119232384 -0.21052848344370426 0 0.07011709470127454 0.1299397288601151 0
          -0.04047178431010666 -0.026930022545955088 0 0.1379368975801101 -0.0007994084133557284 0
          0.2762599418843457 0.04165549700848431 0 0.27469046899025285 -0.012207002166561573 0
          0.11196151007868144 0 0 0.38589410049188816 0 0
          1.0999173039484471 0 0 -0.20657054605693045 0 0
          0.043746886560918775 0.05622121882032628 0 0.07014832591721078 0.04592380724356604 0
          0.050986635154462355 0.013681409371988272 0 0.000670418574040034 -0.025360339806592865 0
          0.04687593632372426 0.011721950252685484 0 0.05073621118625365 0.005632767485980728 0
          0.052451108019309245 0.011446281989856852 0 0.049508223651637005 0.011260576933970224 0
          0.029296477187689258 0.00023810817446901172 0 0.046922370445040565 -0.002882956476082741 0
          0.040405254833097266 -0.015609264446900162 0 -0.08954765308591639 0 0
          -0.13315449213599917 -0.12741179306710332 0 -0.020418637296533534 -0.12509338774480358 0
          -0.016003795383701627 -0.0603767754063458 0 -0.011483092764425239 0 0
          0.05332412411349282 -0.006195458669165179 0 0.05028787781289097 0.015308228470059724 0
          0.05384551837717913 -0.040415298124257086 0 0.0744562565622587 -0.03908437766382039 0
          0.060743188550135364 -0.0011558375973279543 0 0.03776253949972999 -0.08147203753900893 0
          0.08246946182102723 0 0 0.1076224204363928 -0.14292129794221325 0
          0.02674475963827735 -0.003613029492634395 0 0.15223454032196798 -0.00574469526063489 0
          0.07553795771996256 -0.002895438268030293 0 0.04618685331537995 0 0
          0.13772604442020817 0 0 0.025460058310949857 -0.047784062354052144 0
          0.031886934457884146 -0.0319730871399278 0 0.007240210645891365 -0.06255695086464284 0
          0.053351987585697945 0.004857323941690252 0 0.05502466265106504 0.008773623062838605 0
          0.05109061552525521 -0.06326517325893058 0 0.054002198193994856 -0.020944601077150366 0
          0.06928121883532672 -0.0736481750187588 0 0.06432746103676823 -0.04203706705373002 0
          0.1043706518499495 -0.06408426686264095 0 0.08829063850005771 -0.07588465396213324 0
          0.05981370258380626 -0.02014276708308918 0 0.06700359337246332 -0.01663278648919754 0
          0.056995781376378694 -0.005423962844121097 0 0.07187830836729672 -0.12223706828552279 0
          0.1500045106922637 -0.1317343893312345 0 0.13562194367142827 -0.06587159445064464 0
          0.16065463475961636 -0.051369133661813386 0 0.031141228420211314 -0.04064271035431715 0
          0.055316324609861973 -0.019304660348076326 0 0.0401055522285301 -0.013062739162858491 0
          0.1074748170712069 -0.06654873038231023 0 0.14785941862951002 0.00913322879970392 0
          0.16424901684976437 0.0038374016808140265 0 0.1472448612253417 0.00337370370568646 0
          0.12489801421322601 -0.017564494565786525 0 0.06196050389287614 -0.027650034764692584 0
          0.07950866295372762 0.0021174705543887656 0 0.1213981629484978 0.0017622345707961143 0
          0.0638633425579058 -0.009851156919031642 0 0.06329007709389946 0 0
          0.13585943951594534 0 0 0.11727377722146329 0 0
          0 0.020080292219893443 0 0.04433307449483927 0.021504830983593164 0
          0.017878366203153598 0.020590022795570196 0 0.08261691106598477 0.028675029925072835 0
          0.07807570607789989 0.029618514999547693 0 0.06839651479014287 0.027118662397770554 0
          0.054840677578953265 0.023280134505358246 0 0.058914769708985515 0.022661552129201814 0
          0.05113277702014762 0.018207837185261075 0 0.046350838819799275 0.017101457474956432 0
          0.04770518944156959 0.01572146979639193 0 0.045416274927340544 0.023911238553408383 0
          0.15506970089010927 -0.06911892562541308 0 0.11993158486869622 0 0
          0.1628911598107808 0.02022991146190528 0 0.056087214368909816 0.015473586520117771 0
          0.05022888127748059 0.020816847520038564 0 0.08516644203550261 -0.029188604873301657 0
          0.06349912061908744 0.007009993986032681 0 0.07266328854070436 -0.007412261267828426 0
          0.11229808034654175 -0.03314050375809193 0 0.14593717357755376 0.016697412741571604 0
          0.15159986897550753 -0.00908866538965752 0
          <InformationKey name="L2_NORM_RANGE" location="vtkDataArray" length="2">
            <Value index="0">
              0
            </Value>
            <Value index="1">
              1.213516215
            </Value>
          </InformationKey>
        </DataArray>
        <DataArray type="Float64" Name="Pressure" format="ascii" RangeMin="-2.9662484561745517" RangeMax="1.8108848134182578">
          -1.8191868513298675 -1.1469508020512482 0.5989142611594481 -1.826864234473705 -2.133555838635625 -1.4521671062358412
          -0.6261171822748591 -0.6084758246685656 -0.6054333966587441 -0.35002405543600784 0.4265986912874829 0.09792382548234553
          -0.00019376809820065286 -2.3919005066061 -1.4648108973297163 -1.9793046476086076 -1.6451315705007181 -2.007688881210579
          -2.0097739245160136 -1.8161908204955155 -1.613416195873584 -2.3095165092234287 -1.7858209554775837 -1.3058125996127092
          -1.631353466052088 -0.8816629648864267 -1.0356866974324972 -0.02125973346745523 -0.4354066200350772 -1.2293628759800828
          -0.5093642329630361 -0.5507696706042741 -0.8520530505150201 -0.6678700287851657 -0.25309540904745575 -0.4973912807656454
          -0.5308265143554869 -0.8737320142210947 -0.674194899685273 0.1591802297583053 -0.7900736487679374 0.019634983977223894
          0.5816255733811936 0.006201904153189486 0.131704202746906 0.30642744777467074 -0.9820609643368191 -1.2922740345315902
          -2.489285492132783 -0.7980369868517114 -1.443395229443461 -2.1154786182520247 -1.9456355541828154 -2.490999838270082
          -1.114613717835928 -1.5762405617647088 -1.2433886707821171 0.44511921610323846 -0.16776645058509554 -0.42611749170422447
          0.2637262140239171 0.5741228426219691 -1.7341643813275203 -2.495476147528359 -1.0139269983319132 -1.0128798703343063
          -1.7381750501099154 -0.3489001164578227 1.0442581039207661 -0.2494974131510113 0.0002556299290368298 0.7876618811059481
          0.39616379862733436 0.7255319176024964 1.4215509083275302 -0.5986324990659034 -0.9002398587701215 -0.4601007025841434
          -2.1027358998765693 -2.1139404609691392 -0.6750208042713207 -1.3678238146152997 -0.6559653124336396 -1.015562330376798
          -0.6101157340270711 -0.6323048683260354 -1.3776865078437583 -1.3696554598403505 -1.7312476362804392 -0.3047589399037631
          -0.20259609675099524 0.28084318392635216 0.32064608422152063 -0.20471710512860078 0.1968236690894219 0.4092820976739732
          0.24226856561512275 1.304233469456468 0.8284149582998303 1.1109992195752474 0.5907308074603684 0.022297142231325295
          0.7345084558046244 0.9197123235211914 0.5637714177104229 0.8698137070231741 1.6140720391532437 1.2311208127922515
          -2.9662484561745517 -2.197227114780529 -2.5803461824216294 -2.1853916594803233 -2.3531954304033373 -2.5167323410770432
          -2.3850033620180766 -2.6732590391009547 -2.862650408918508 -2.890026729291728 -2.8768622973234663 -2.9030633194452755
          -0.17009455474617785 1.8108848134182578 0.8727164443752804 -2.126623609184213 -2.514588410868483 -0.9796656915340057
          -1.7342086942955712 -1.3575078275069379 -0.5536696261338141 1.3486489838264846 0.3590212038231182
        </DataArray>
        <DataArray type="Float64" Name="ALEdispl" NumberOfComponents="3" format="ascii" RangeMin="0" RangeMax="0">
          0 0 0 0 0 0
          0 0 0 0 0 0
          0 0 0 0 0 0
          0 0 0 0 0 0
          0 0 0 0 0 0
          0 0 0 0 0 0
          0 0 0 0 0 0
          0 0 0 0 0 0
          0 0 0 0 0 0
          0 0 0 0 0 0
          0 0 0 0 0 0
          0 0 0 0 0 0
          0 0 0 0 0 0
          0 0 0 0 0 0
          0 0 0 0 0 0
          0 0 0 0 0 0
          0 0 0 0 0 0
          0 0 0 0 0 0
          0 0 0 0 0 0
          0 0 0 0 0 0
          0 0 0 0 0 0
          0 0 0 0 0 0
          0 0 0 0 0 0
          0 0 0 0 0 0
          0 0 0 0 0 0
          0 0 0 0 0 0
          0 0 0 0 0 0
          0 0 0 0 0 0
          0 0 0 0 0 0
          0 0 0 0 0 0
          0 0 0 0 0 0
          0 0 0 0 0 0
          0 0 0 0 0 0
          0 0 0 0 0 0
          0 0 0 0 0 0
          0 0 0 0 0 0
          0 0 0 0 0 0
          0 0 0 0 0 0
          0 0 0 0 0 0
          0 0 0 0 0 0
          0 0 0 0 0 0
          0 0 0 0 0 0
          0 0 0 0 0 0
          0 0 0 0 0 0
          0 0 0 0 0 0
          0 0 0 0 0 0
          0 0 0 0 0 0
          0 0 0 0 0 0
          0 0 0 0 0 0
          0 0 0 0 0 0
          0 0 0 0 0 0
          0 0 0 0 0 0
          0 0 0 0 0 0
          0 0 0 0 0 0
          0 0 0 0 0 0
          0 0 0 0 0 0
          0 0 0 0 0 0
          0 0 0 0 0 0
          0 0 0 0 0 0
          0 0 0 0 0 0
          0 0 0 0 0 0
          0 0 0 0 0 0
          0 0 0 0 0 0
          0 0 0 0 0 0
          0 0 0 0 0 0
          0 0 0
          <InformationKey name="L2_NORM_RANGE" location="vtkDataArray" length="2">
            <Value index="0">
              0
            </Value>
            <Value index="1">
              0
            </Value>
          </InformationKey>
        </DataArray>
        <DataArray type="Float64" Name="ALEveloc" NumberOfComponents="3" format="ascii" RangeMin="0" RangeMax="1.4676366033630988">
          0 -0.8387522304491639 0 0.14880565038499807 -0.8856587020674703 0
          0 0 0 0.0833791087540573 -0.7398736926627987 0
          0.1880054416763397 -0.6114620316906637 0 0.0300330367740391 -0.8907336309260182 0
          0 -1.2310487171805282 0 0.09388182787455224 -1.0601093667631725 0
          0.2747733269144168 -1.0062676232476893 0 0.020907927173515594 -1.2535405673575089 0
          -0.005278021640391399 0 0 -0.0830907740616089 0 0
          0.1852816128686582 0 0 0 -0.6492973338594357 0
          0.11543071647629607 -0.8209607782432992 0 0.1313792801712758 -0.6710533860962983 0
          0.056870406876777496 -0.8124738760638001 0 0.03913451960826917 -0.7147859660090108 0
          0.006227154021073239 -0.7893336978122217 0 0.0214338551649484 -0.821207885628361 0
          0.17510282924540327 -0.7504431292536389 0 0.24966413163509096 -0.5465105995497788 0
          0.2538059460895075 -0.6791710860457 0 0.07798217755126048 -0.893868213621521 0
          0.01145011648946606 -0.8757894942929327 0 0.028148571445581475 -1.067363080029097 0
          0.008647624990732065 -1.0686480521256172 0 0 -1.4391645188945015 0
          0.006397475946134144 -1.2659131415391545 0 0 -1.031247990116169 0
          0.0534623274336295 -1.1361758818900154 0 0.12059825687337308 -1.0619462853769597 0
          0.12862282313754883 -0.9807531044756248 0 0.17031980071291397 -1.0159441787730932 0
          0.02138106884310886 -1.2756036105188424 0 0.04197140001447682 -1.1568235447190425 0
          0.2377265897197858 -1.0818938965059268 0 0.2004355079686309 -0.9387585858243928 0
          0.33910943262103704 -0.9559106507614941 0 0.00011673986165569407 -1.4676365987201934 0
          0.06356718332735906 -1.0453270253733262 0 0.007747577049193315 -1.387492274046747 0
          -0.004234280581811517 0 0 -0.003631057677696608 0 0
          0.045360842423253674 0 0 0.3172421293575661 0 0
          0.26284817532057825 -0.8872252762481727 0 0.2358628154244044 -0.8093201331716979 0
          0.3077479399430325 -0.48117609856135035 0 0.3999497550996111 -0.9037263755788799 0
          0.3331530720697451 -0.7457114409846954 0 0.4049999940306239 -0.5486173662629565 0
          0.32885847931252066 -0.6144514756640447 0 0.3909459774637449 -0.44869544742423795 0
          0.36673565029370747 -0.8249609835128147 0 0.42477009733053805 -0.6828977618196967 0
          0.47037193426343976 -0.7657482256292902 0 0.29866088145692105 0 0
          0.35752773178478936 -1.0788365141150311 0 0.4369690228288687 -1.034817825503009 0
          0.5233060651867905 -1.0241307315780386 0 0.4043957237940107 0 0
          0.5136604703509915 -0.6151745731547931 0 0.4791337468117261 -0.40754537898214827 0
          0.6308902962395089 -0.7892976316659008 0 0.7278131111940507 -0.7387713807392838 0
          0.6183068948825299 -0.5654452548847511 0 0.7398702763365006 -0.9665528043776843 0
          0.700908155913989 0 0 0.855685863544966 -0.9314747281907181 0
          0.605271318492115 -1.0438755808555142 0 0.8409445331211446 -0.22994112862243588 0
          0.7458669424017625 -0.626166448450796 0 0.5104448317138206 0 0
          0.8447418048175166 0 0 0.5635498830698873 -0.9327483477996157 0
          0.5167185404762031 -0.8488978171600546 0 0.49739454874336675 -0.9825302077089754 0
          0.5062330822866066 -0.5124412977928106 0 0.5472726102166727 -0.48693259327033545 0
          0.6850274956482819 -0.877489955001908 0 0.5776306611021946 -0.704290496580863 0
          0.7385214254675881 -0.8586390178592338 0 0.6808403753049324 -0.7688983940476779 0
          0.8488212696509205 -0.8157669954856137 0 0.7971412218565863 -0.8413116029199463 0
          0.6164938493184082 -0.6786204644915536 0 0.6750340117309238 -0.65245812230351 0
          0.5668970389414248 -0.5915730126823389 0 0.7970660671559677 -0.9488021431300057 0
          0.9143056599339644 -0.9141473132514306 0 0.9374707768896788 -0.8349103229045736 0
          0.9658755321481993 -0.6989075014044044 0 0.6779695278924757 -1.018840093561265 0
          0.710423698887828 -0.9589442733704878 0 0.5761352142609595 -0.7239772342105799 0
          0.8821552610189664 -0.8814774687369661 0 0.8920289654285032 -0.04368176889415737 0
          0.8852692942466357 -0.19810651848275598 0 0.8343206677087501 -0.08242323326133427 0
          0.7843955569719457 -0.3642802465299072 0 0.788671659921265 -0.9768357908561068 0
          0.6928611781572493 -0.22394525307286764 0 0.7645046117423676 -0.13150148529855812 0
          0.6102815857123316 -0.34406167091244333 0 0.6082003018759388 0 0
          0.899185464299606 0 0 0.7790154189856884 0 0
          0 -0.5466774286925107 0 0.014854962344393388 -0.702368418810887 0
          0.007279920513292194 -0.6283785007164711 0 0.061228707542040094 -0.6576229118420301 0
          0.0948046183462898 -0.5945390384848896 0 0.13801386372581306 -0.5331192908665745 0
          0.024979271906574185 -0.6257570515177395 0 0.17903924154120435 -0.4777630681718512 0
          0.22882955638843255 -0.41623320981432 0 0.36477803076960624 -0.3487230648440303 0
          0.29396693801421664 -0.3842284014337185 0 0.43103786422537343 -0.30626592938572905 0
          0.9699243373803369 -0.8932663442149468 0 0.9361871849747674 0 0
          0.929594055372127 -0.16627190834307604 0 0.5972121757689393 -0.4535840706129278 0
          0.5133890650478529 -0.3769270821107052 0 0.7925154073259888 -0.7107353309782729 0
          0.6700599401678256 -0.5324713424088252 0 0.739436361432444 -0.6228300973220815 0
          0.9136184750554055 -0.7882346797076061 0 0.9246349639350022 -0.0409940627543961 0
          0.984599355986091 -0.5422804846235934 0
          <InformationKey name="L2_NORM_RANGE" location="vtkDataArray" length="2">
            <Value index="0">
              0
            </Value>
            <Value index="1">
              1.4676366034
            </Value>
          </InformationKey>
        </DataArray>
        <DataArray type="Float64" Name="LEVEL" format="ascii" RangeMin="-0.16169175114949666" RangeMax="0.3930122598319633">
          -0.062435988637193816 -0.09760849363224225 -0.04812761732416462 -0.11423848578468052 -0.12500803777642217 -0.09997081327033794
          -0.05492152660073143 -0.07849650544959622 -0.06353794336762858 -0.08802508176270155 -0.07684520223649416 0.023327992974234216
          -0.010427025316561422 -0.06639472272819406 -0.10748133290573993 -0.11976809931451003 -0.10906926971041447 -0.10855296782496374
          -0.0790784820793774 -0.09913865126842833 -0.11094251208080419 -0.13113318332370935 -0.11390669064488061 -0.103136974780103
          -0.08654141190911732 -0.09366823243745838 -0.08137407812533765 -0.05152457196244802 -0.07707634722126183 -0.05856880172265687
          -0.06798826837849616 -0.056025390636272016 -0.08885342898789683 -0.0713368011660447 -0.0803359038451924 -0.08651722019683937
          -0.05060435919045305 -0.08247947883057256 -0.06683222954399279 -0.07363363189775322 -0.09324253958127918 -0.08178267924548163
          -0.0677201285741747 -0.0733248780675162 0.001860685696414184 0.03426140010036528 -0.08553524498637895 -0.09876409364859459
          -0.1383040035763829 -0.07102270810100099 -0.09983266256927785 -0.12299147502561582 -0.1183730663210783 -0.13892034891431407
          -0.08570901987491869 -0.10273407252526913 -0.08730176469678828 0.3877803924971802 -0.040688290265010724 -0.043308067214231014
          0.037935428760882205 0.3930122598319633 -0.1060706432023873 -0.13930919020227123 -0.0733487058060194 -0.07303990418013662
          -0.1051434309676124 -0.03758655673444984 0.35240334912534493 -0.038146256507699164 -0.013523635201498822 0.2263536649729979
          0.14745158865522914 0.38024492612742505 0.3230478958027146 -0.05422878134319155 -0.07160668785230774 -0.0484848980937501
          -0.12125821703876954 -0.12243579980452458 -0.055650501700434354 -0.08936181767678422 -0.05554615726769029 -0.07325586197314202
          -0.055844713784524776 -0.05588798175040826 -0.09009626658965553 -0.08885257278239 -0.10548197451145433 -0.03780443202498121
          -0.03848808099041712 0.031861673704574725 0.06254535186413208 -0.03158709527759043 0.03482719294830967 0.1640049317648245
          0.02541239839969139 0.27604755200277203 0.21908460722532191 0.282245854830962 0.20678796226282392 -0.010283573246149522
          0.27377814102872616 0.2839692442051672 0.2562660884652147 0.36656680796438285 0.30650184227586014 0.3384203119619618
          -0.07296757370520668 -0.09465315765100085 -0.08402037908611275 -0.11853653868357757 -0.1266496999497984 -0.13522423559176436
          -0.10699859191011094 -0.1419372562808008 -0.15006817087902463 -0.1569680427619629 -0.15408900999604697 -0.16169175114949666
          -0.03866337087517451 0.28820010490515524 0.21181554947764594 -0.12226523637952043 -0.14174254472909345 -0.07114281938396161
          -0.10473086537430824 -0.08691172509600438 -0.05396147647461133 0.2595274697490159 0.09802824837293722
        </DataArray>
      </PointData>
      <CellData>
        <DataArray type="UInt8" Name="vtkGhostType" format="ascii" RangeMin="0" RangeMax="0">
          0 0 0 0 0 0
          0 0 0 0 0 0
          0 0 0 0 0 0
          0 0 0 0 0 0
          0 0 0 0 0 0
          0 0 0 0 0 0
          0 0 0 0 0 0
          0 0 0 0 0 0
          0 0 0 0 0 0
          0 0 0 0 0 0
          0 0 0 0 0 0
          0 0 0 0 0 0
          0 0 0 0 0 0
          0 0 0 0 0 0
          0 0 0 0 0 0
          0 0 0 0 0 0
          0 0 0 0 0 0
          0 0 0 0 0 0
          0 0 0 0 0 0
          0 0 0 0 0 0
          0 0 0 0 0 0
          0 0 0 0 0 0
          0 0 0 0 0 0
          0 0 0 0 0 0
          0 0 0 0 0 0
          0 0 0 0 0 0
          0 0 0 0 0 0
          0 0 0 0 0 0
          0 0 0 0 0 0
          0 0 0 0 0 0
          0 0 0 0 0 0
          0 0 0 0 0 0
          0 0 0 0 0 0
          0 0 0 0 0 0
          0 0 0 0 0 0
          0 0 0 0 0 0
        </DataArray>
      </CellData>
      <Points>
        <DataArray type="Float32" Name="Points" NumberOfComponents="3" format="ascii" RangeMin="0" RangeMax="0.8700000047683716">
          0 0.25676390528678894 0 0.31279098987579346 0.17248930037021637 0
          0 0 0 0.2427103966474533 0.25791195034980774 0
          0.35775119066238403 0.29571884870529175 0 0.15639549493789673 0.21462659537792206 0
          0 0.12838195264339447 0 0.28412413597106934 0.08624465018510818 0
          0.39534664154052734 0.08624465018510818 0 0.15639549493789673 0.08624465018510818 0
          0.1277286559343338 0 0 0.2554573118686676 0 0
          0.3666797876358032 0 0 0 0.3209548890590668 0
          0.277750700712204 0.21520061790943146 0 0.30023080110549927 0.27681541442871094 0
          0.19955295324325562 0.2362692803144455 0 0.16451264917850494 0.2789806127548218 0
          0.04315745085477829 0.27840656042099 0 0.12135519832372665 0.25733792781829834 0
          0.33527109026908875 0.23410408198833466 0 0.4237655997276306 0.31830286979675293 0
          0.4012854993343353 0.25668808817863464 0 0.2345932573080063 0.1935579478740692 0
          0.07819774746894836 0.2356952428817749 0 0.15639549493789673 0.15043562650680542 0
          0.07819774746894836 0.17150427401065826 0 0 0.06419097632169724 0
          0.07819774746894836 0.10731329768896103 0 0 0.1925729215145111 0
          0.26979073882102966 0.04312232509255409 0 0.3254019618034363 0.04312232509255409 0
          0.2984575629234314 0.12936697900295258 0 0.33973538875579834 0.08624465018510818 0
          0.20592640340328217 0.04312232509255409 0 0.22025983035564423 0.08624465018510818 0
          0.3810132145881653 0.04312232509255409 0 0.3540688157081604 0.12936697900295258 0
          0.4300658106803894 0.11075516790151596 0 0.07819774746894836 0.04312232509255409 0
          0.2345932573080063 0.12936697900295258 0 0.14206206798553467 0.04312232509255409 0
          0.0638643279671669 0 0 0.1915929764509201 0 0
          0.3110685646533966 0 0 0.4222910404205322 0 0
          0.38878801465034485 0.15387749671936035 0 0.37880539894104004 0.19507332146167755 0
          0.4897800087928772 0.3408868908882141 0 0.46478500962257385 0.13526567816734314 0
          0.4448198080062866 0.21765734255313873 0 0.5333142876625061 0.3018561601638794 0
          0.4672999083995819 0.2792721390724182 0 0.5602956414222717 0.34583449363708496 0
          0.45480239391326904 0.17646151781082153 0 0.5108342170715332 0.2402413785457611 0
          0.5208168029785156 0.19904553890228271 0 0.47790229320526123 0 0
          0.4366244673728943 0.04312232509255409 0 0.47134363651275635 0.06763283908367157 0
          0.5126214623451233 0.024510515853762627 0 0.5286522507667542 0 0
          0.5768486261367798 0.2628253996372223 0 0.6308112740516663 0.3507820963859558 0
          0.5968137979507446 0.1804337352514267 0 0.652594804763794 0.19491499662399292 0
          0.6469422578811646 0.2730284631252289 0 0.6167790293693542 0.0980420634150505 0
          0.6809021234512329 0 0 0.6725599765777588 0.11252333223819733 0
          0.5473406314849854 0.04902103170752525 0 0.7433894872665405 0.04902103170752525 0
          0.6488405466079712 0.04902103170752525 0 0.5794022083282471 0 0
          0.7754510641098022 0 0 0.5407819747924805 0.11665386706590652 0
          0.530799388885498 0.15784969925880432 0 0.5060628056526184 0.09214335680007935 0
          0.6038299202919006 0.30680376291275024 0 0.6388767957687378 0.31190526485443115 0
          0.606796383857727 0.1392378956079483 0 0.5868312120437622 0.2216295599937439 0
          0.6346868872642517 0.146478533744812 0 0.6247043013572693 0.1876743584871292 0
          0.690467894077301 0.16095979511737823 0 0.6625773906707764 0.15371917188167572 0
          0.6147217154502869 0.2288701981306076 0 0.6497685313224792 0.2339717298746109 0
          0.6118954420089722 0.2679269313812256 0 0.6446694731712341 0.10528269410133362 0
          0.7004504799842834 0.11976396292448044 0 0.7079747319221497 0.08077217638492584 0
          0.7358652353286743 0.08801281452178955 0 0.5820598006248474 0.07353154569864273 0
          0.5980905890464783 0.04902103170752525 0 0.5633714199066162 0.024510515853762627 0
          0.680084228515625 0.07353154569864273 0 0.806694746017456 0.024510515853762627 0
          0.7712799906730652 0.05626166611909866 0 0.7594202756881714 0.024510515853762627 0
          0.6961150169372559 0.04902103170752525 0 0.6328097581863403 0.07353154569864273 0
          0.664871335029602 0.024510515853762627 0 0.7121458053588867 0.024510515853762627 0
          0.6141213774681091 0.024510515853762627 0 0.63015216588974 0 0
          0.8227255344390869 0 0 0.7281765937805176 0 0
          0 0.385145902633667 0 0.08631490170955658 0.3000492453575134 0
          0.04315745085477829 0.3425975739955902 0 0.20767009258270264 0.3006232678890228 0
          0.2651905119419098 0.319526731967926 0 0.32271090149879456 0.33843016624450684 0
          0.12947234511375427 0.32169193029403687 0 0.3802312910556793 0.35733363032341003 0
          0.4462457001209259 0.3799176514148712 0 0.5872769951820374 0.3898128569126129 0
          0.5167613625526428 0.38486525416374207 0 0.6577926278114319 0.39476045966148376 0
          0.7283409833908081 0.12700459361076355 0 0.8700000047683716 0 0
          0.7991704940795898 0.06350229680538177 0 0.6739236116409302 0.31700679659843445 0
          0.6658581495285034 0.3558836281299591 0 0.6876416206359863 0.20001652836799622 0
          0.6819890737533569 0.2781299650669098 0 0.6848153471946716 0.239073246717453 0
          0.7255147099494934 0.16606132686138153 0 0.8345852494239807 0.03175114840269089 0
          0.763755738735199 0.09525345265865326 0
          <InformationKey name="L2_NORM_RANGE" location="vtkDataArray" length="2">
            <Value index="0">
              0
            </Value>
            <Value index="1">
              0.87000000477
            </Value>
          </InformationKey>
        </DataArray>
      </Points>
      <Cells>
        <DataArray type="Int64" Name="connectivity" format="ascii" RangeMin="0" RangeMax="130">
          1 20 14 4 15 20
          3 14 15 20 15 14
          4 115 113 3 112 111
          4 113 15 3 15 112
          113 112 15 1 14 23
          3 16 14 5 23 16
          14 16 23 109 17 114
          3 111 17 114 17 111
          0 24 18 5 19 24
          109 18 19 24 19 18
          3 17 16 109 19 17
          5 16 19 17 19 16
          0 18 13 109 110 18
          108 13 110 18 110 13
          11 44 30 12 31 44
          7 30 31 44 31 30
          57 58 45 8 36 58
          12 45 36 58 36 45
          1 32 37 7 33 32
          8 37 33 32 33 37
          12 36 31 8 33 36
          7 31 33 36 33 31
          1 46 47 49 54 46
          50 47 54 46 54 47
          4 21 115 48 116 21
          115 21 116 1 47 20
          50 22 47 4 20 22
          47 22 20 48 21 52
          4 22 21 50 52 22
          21 22 52 1 37 46
          8 38 37 49 46 38
          37 38 46 8 58 59
          49 38 77 8 59 38
          38 59 77 2 39 27
          9 28 39 6 27 28
          39 28 27 1 23 40
          5 25 23 9 40 25
          23 25 40 0 29 24
          6 26 29 5 24 26
          29 26 24 9 25 28
          5 26 25 6 28 26
          25 26 28 2 42 39
          10 41 42 9 39 41
          42 41 39 11 30 43
          7 34 30 10 43 34
          30 34 43 1 40 32
          9 35 40 7 32 35
          40 35 32 10 34 41
          7 35 34 9 41 35
          34 35 41 48 118 116
          63 119 117 63 117 53
          48 53 118 117 118 53
          49 75 76 62 55 81
          50 56 55 64 81 56
          55 56 81 64 56 76
          50 54 56 49 76 54
          56 54 76 62 51 55
          48 52 51 50 55 52
          51 52 55 49 77 75
          62 78 51 63 53 78
          48 51 53 78 53 51
          57 60 58 70 59 60
          60 59 58 70 77 59
          57 61 60 73 95 61
          70 60 95 61 95 60
          63 124 119 67 80 75
          64 76 80 80 76 75
          67 75 93 70 93 77
          75 77 93 67 89 80
          69 82 89 64 80 82
          89 82 80 120 84 90
          65 85 84 69 90 85
          84 85 90 62 81 86
          64 83 81 65 86 83
          81 83 86 69 85 82
          65 83 85 64 82 83
          85 83 82 120 128 84
          65 84 125 128 125 84
          66 127 126 62 86 88
          65 87 86 66 88 87
          86 87 88 66 87 127
          65 125 87 127 87 125
          62 88 78 66 79 88
          63 78 79 88 79 78
          66 126 123 66 123 79
          63 79 124 123 124 79
          67 96 89 71 91 96