<?xml version="1.0"?>
<VTKFile type="UnstructuredGrid" version="0.1" byte_order="LittleEndian" header_type="UInt32" compressor="vtkZLibDataCompressor">
  <UnstructuredGrid>
    <Piece NumberOfPoints="34" NumberOfCells="50">
      <PointData>
        <DataArray type="Float64" Name="nsi_BC" NumberOfComponents="3" format="ascii" RangeMin="0" RangeMax="0">
          0 0 0 0 0 0
          0 0 0 0 0 0
          0 0 0 0 0 0
          0 0 0 0 0 0
          0 0 0 0 0 0
          0 0 0 0 0 0
          0 0 0 0 0 0
          0 0 0 0 0 0
          0 0 0 0 0 0
          0 0 0 0 0 0
          0 0 0 0 0 0
          0 0 0 0 0 0
          0 0 0 0 0 0
          0 0 0 0 0 0
          0 0 0 0 0 0
          0 0 0 0 0 0
          0 0 0 0 0 0
          <InformationKey name="L2_NORM_RANGE" location="vtkDataArray" length="2">
            <Value index="0">
              0
            </Value>
            <Value index="1">
              0
            </Value>
          </InformationKey>
        </DataArray>
        <DataArray type="Float64" Name="nsi_FIXNO" NumberOfComponents="3" format="ascii" RangeMin="1" RangeMax="1.4142135623730951">
          1 1 0 1 0 0
          -1 -1 0 1 0 0
          -1 -1 0 -1 -1 0
          1 0 0 -1 -1 0
          1 0 0 -1 -1 0
          -1 -1 0 -1 -1 0
          1 0 0 -1 -1 0
          -1 -1 0 -1 -1 0
          -1 -1 0 -1 -1 0
          -1 -1 0 -1 -1 0
          1 1 0 1 1 0
          -1 -1 0 1 0 0
          1 0 0 1 0 0
          -1 -1 0 -1 -1 0
          1 0 0 1 0 0
          -1 -1 0 1 0 0
          1 0 0 1 1 0
          <InformationKey name="L2_NORM_RANGE" location="vtkDataArray" length="2">
            <Value index="0">
              1
            </Value>
            <Value index="1">
              1.4142135624
            </Value>
          </InformationKey>
        </DataArray>
        <DataArray type="Float64" Name="lev_BC" format="ascii" RangeMin="-1" RangeMax="1">
          -1 0 -1 -1 -1 0
          1 -1 -1 -1 1 0
          1 -1 -1 -1 1 0
          -1 -1 1 -1 -1 1
          -1 1 -1 0 -1 1
          -1 -1 0 -1
        </DataArray>
        <DataArray type="Float64" Name="lev_FIXNO" format="ascii" RangeMin="0" RangeMax="0">
          0 0 0 0 0 0
          0 0 0 0 0 0
          0 0 0 0 0 0
          0 0 0 0 0 0
          0 0 0 0 0 0
          0 0 0 0
        </DataArray>
        <DataArray type="Float64" Name="Velocity" NumberOfComponents="3" format="ascii" RangeMin="0" RangeMax="0.4598608130735556">
          0 0 0 -1.1442987208440769e-18 -0.3214259086905942 0
          -0.25058575197778304 -0.15029008554447568 0 -0.3575081169513884 -4.4605543197417955e-17 0
          -0.3472423499894276 0.01357654216074282 0 -0.05174339185293869 -0.31895408841583256 0
          4.875026428626465e-17 -0.4598608130735556 0 -0.18542521789806496 0.06086946443624038 0
          -0.30439562666813813 1.2682330823921178e-17 0 -0.2724256446847296 0.11000375336735646 0
          0.1760262664373717 -0.29160351358682746 0 0.1349876877314658 -0.1536197606978623 0
          1.3038175720443478e-17 -0.240853727622732 0 -0.15674749093854326 0.23322335601775657 0
          -0.16412921626598062 0.19980801017885913 0 0.018845691475515753 0.17820394880076146 0
          0.3237443633564124 -0.13849795153814448 0 0.3109048745413505 0.01442315585822766 0
          -0.007946742916083603 0.35036310377848734 0 -0.06164182560366135 0.3597271682262015 0
          0 0 0 0 0 0
          0.15100802434586683 0.22890813670913282 0 0.23200541608794215 1.3446038973628511e-17 0
          -1.4099029801602363e-17 0.2839633533054434 0 0.43401562896895884 1.4159284106420575e-17 0
          0.07777461673170202 0.36269855671227974 0 0.3837731113146236 0.07941804826921375 0
          3.709953952738817e-17 0.43415563662602236 0 0.41440568830209407 -1.4705146332359286e-17 0
          0.17126048822269963 0.2212627698408242 0 -1.0875686653767981e-17 0.34558943547534365 0
          0.28381636267623683 -8.503150159156554e-18 0 0 0 0
          <InformationKey name="L2_NORM_RANGE" location="vtkDataArray" length="2">
            <Value index="0">
              0
            </Value>
            <Value index="1">
              0.45986081307
            </Value>
          </InformationKey>
        </DataArray>
        <DataArray type="Float64" Name="Pressure" format="ascii" RangeMin="-0.1391890512375595" RangeMax="4.652052733131396">
          0 -0.1391890512375595 0.1131815129804401 0.22154209815110515 0.28791032091229135 0.2071742705130402
          0.7906927909978897 0.3989280965311268 0.38278141679893063 0.40860211655465895 1.639577418257634 0.4615271733865092
          2.418880897818162 0.512720125796708 0.4639337214311332 0.5864063686063283 2.1293302867567365 0.681871741470094
          0.671911181991103 0.5888169115457672 4.652052733131396 0.4395527524633527 0.7719454461563806 4.335788616342868
          0.5107096369466886 3.557342867801549 0.8409429929152816 1.082535554967541 0.6950875755438268 2.5146442497552624
          1.0394854557053674 0.9062150913092679 1.2593749854134768 1.137302810646403
        </DataArray>
        <DataArray type="Float64" Name="LEVEL" format="ascii" RangeMin="-0.832859624182779" RangeMax="0.5809684182790265">
          -0.1647027082337942 -0.023295871467173785 -0.20286306488587463 -0.41086534193905044 -0.3237988470704228 -0.027508870527746934
          0.16527085335513053 -0.20557148396724412 -0.6291099304081498 -0.4307547695415417 0.1853759852630854 -0.0034629370118987924
          0.3707381014812502 -0.31558318666012874 -0.5312385419461685 -0.128539226168584 0.18347642148172233 0.020579815278710684
          -0.23980348583071998 -0.3936712822992014 0.5809684182790265 -0.832859624182779 -0.08052453796660107 0.424960771066489
          -0.5853099050980637 0.2887585962272816 -0.15675551628047746 0.03178792948937876 -0.3827068596071251 0.15399780527526757
          -0.07678444104766054 -0.22023932005581967 0.019912220744052942 -0.08573594917422545
        </DataArray>
      </PointData>
      <CellData>
        <DataArray type="UInt8" Name="vtkGhostType" format="ascii" RangeMin="0" RangeMax="0">
          0 0 0 0 0 0
          0 0 0 0 0 0
          0 0 0 0 0 0
          0 0 0 0 0 0
          0 0 0 0 0 0
          0 0 0 0 0 0
          0 0 0 0 0 0
          0 0 0 0 0 0
          0 0
        </DataArray>
      </CellData>
      <Points>
        <DataArray type="Float32" Name="Points" NumberOfComponents="3" format="ascii" RangeMin="0" RangeMax="1.4142135623730951">
          0 1 0 0 0.7799999713897705 0
          0.19571679830551147 0.840013325214386 0 0.3338231146335602 1 0
          0.4226129949092865 0.8073133826255798 0 0.21492919325828552 0.5873047709465027 0
          0 0.512727677822113 0 0.4972974956035614 0.6009321212768555 0
          0.6673728823661804 1 0 0.630643904209137 0.7812064290046692 0
          0.20702050626277924 0.32903969287872314 0 0.40350478887557983 0.41823700070381165 0
          0 0.25636380910873413 0 0.6898214221000671 0.5965974926948547 0
          0.8102678060531616 0.7724344730377197 0 0.6222723722457886 0.4149332046508789 0
          0.3845047950744629 0.20200540125370026 0 0.5769323110580444 0.2627502977848053 0
          0.7934312224388123 0.426090806722641 0 0.8737686276435852 0.5574696063995361 0
          0 0 0 1 1 0
          0.7134407162666321 0.28491899371147156 0 0.2561560869216919 0 0
          1 0.6993336081504822 0 0.47891008853912354 0 0
          0.8612840175628662 0.26164010167121887 0 0.7288737893104553 0.12652690708637238 0
          1 0.44098520278930664 0 0.6815431714057922 0 0
          0.8920316100120544 0.1200575977563858 0 1 0.21212109923362732 0
          0.8700000047683716 0 0 1 0 0
          <InformationKey name="L2_NORM_RANGE" location="vtkDataArray" length="2">
            <Value index="0">
              0
            </Value>
            <Value index="1">
              1.4142135624
            </Value>
          </InformationKey>
        </DataArray>
      </Points>
      <Cells>
        <DataArray type="Int64" Name="connectivity" format="ascii" RangeMin="0" RangeMax="33">
          29 32 27 29 27 25
          23 25 16 27 17 25
          17 11 16 16 11 10
          17 16 25 23 10 12
          10 11 5 16 10 23
          12 10 6 6 10 5
          6 5 1 20 23 12
          32 33 30 30 33 31
          32 30 27 30 31 26
          26 31 28 30 26 27
          27 26 22 22 26 18
          27 22 17 17 22 15
          18 26 28 22 18 15
          17 15 11 18 28 19
          19 28 24 18 13 15
          19 24 14 14 24 21
          19 14 13 13 14 9
          19 13 18 9 14 8
          13 9 7 15 13 7
          7 9 4 4 9 8
          7 4 5 0 1 2
          11 15 7 2 1 5
          0 2 3 3 2 4
          3 4 8 11 7 5
          4 2 5 8 14 21
        </DataArray>
        <DataArray type="Int64" Name="offsets" format="ascii" RangeMin="3" RangeMax="150">
          3 6 9 12 15 18
          21 24 27 30 33 36
          39 42 45 48 51 54
          57 60 63 66 69 72
          75 78 81 84 87 90
          93 96 99 102 105 108
          111 114 117 120 123 126
          129 132 135 138 141 144
          147 150
        </DataArray>
        <DataArray type="UInt8" Name="types" format="ascii" RangeMin="5" RangeMax="5">
          5 5 5 5 5 5
          5 5 5 5 5 5
          5 5 5 5 5 5
          5 5 5 5 5 5
          5 5 5 5 5 5
          5 5 5 5 5 5
          5 5 5 5 5 5
          5 5 5 5 5 5
          5 5
        </DataArray>
      </Cells>
    </Piece>
  </UnstructuredGrid>
</VTKFile>
