<?xml version="1.0"?>
<VTKFile type="UnstructuredGrid" version="0.1" byte_order="LittleEndian" header_type="UInt32" compressor="vtkZLibDataCompressor">
  <UnstructuredGrid>
    <Piece NumberOfPoints="34" NumberOfCells="50">
      <PointData>
        <DataArray type="Float64" Name="nsi_BC" NumberOfComponents="3" format="ascii" RangeMin="0" RangeMax="0">
          0 0 0 0 0 0
          0 0 0 0 0 0
          0 0 0 0 0 0
          0 0 0 0 0 0
          0 0 0 0 0 0
          0 0 0 0 0 0
          0 0 0 0 0 0
          0 0 0 0 0 0
          0 0 0 0 0 0
          0 0 0 0 0 0
          0 0 0 0 0 0
          0 0 0 0 0 0
          0 0 0 0 0 0
          0 0 0 0 0 0
          0 0 0 0 0 0
          0 0 0 0 0 0
          0 0 0 0 0 0
          <InformationKey name="L2_NORM_RANGE" location="vtkDataArray" length="2">
            <Value index="0">
              0
            </Value>
            <Value index="1">
              0
            </Value>
          </InformationKey>
        </DataArray>
        <DataArray type="Float64" Name="nsi_FIXNO" NumberOfComponents="3" format="ascii" RangeMin="1" RangeMax="1.4142135623730951">
          1 1 0 1 0 0
          -1 -1 0 1 0 0
          -1 -1 0 -1 -1 0
          1 0 0 -1 -1 0
          1 0 0 -1 -1 0
          -1 -1 0 -1 -1 0
          1 0 0 -1 -1 0
          -1 -1 0 -1 -1 0
          -1 -1 0 -1 -1 0
          -1 -1 0 -1 -1 0
          1 1 0 1 1 0
          -1 -1 0 1 0 0
          1 0 0 1 0 0
          -1 -1 0 -1 -1 0
          1 0 0 1 0 0
          -1 -1 0 1 0 0
          1 0 0 1 1 0
          <InformationKey name="L2_NORM_RANGE" location="vtkDataArray" length="2">
            <Value index="0">
              1
            </Value>
            <Value index="1">
              1.4142135624
            </Value>
          </InformationKey>
        </DataArray>
        <DataArray type="Float64" Name="lev_BC" format="ascii" RangeMin="-1" RangeMax="1">
          -1 0 -1 -1 -1 0
          1 -1 -1 -1 1 0
          1 -1 -1 -1 1 0
          -1 -1 1 -1 -1 1
          -1 1 -1 0 -1 1
          -1 -1 0 -1
        </DataArray>
        <DataArray type="Float64" Name="lev_FIXNO" format="ascii" RangeMin="0" RangeMax="0">
          0 0 0 0 0 0
          0 0 0 0 0 0
          0 0 0 0 0 0
          0 0 0 0 0 0
          0 0 0 0 0 0
          0 0 0 0
        </DataArray>
        <DataArray type="Float64" Name="Velocity" NumberOfComponents="3" format="ascii" RangeMin="0" RangeMax="0.7595801517466911">
          0 0 0 -1.4704165945862157e-18 -0.4130302529045686 0
          -0.3239471648329053 -0.20792312383841902 0 -0.4741619741510961 -5.916020201422606e-17 0
          -0.48411809576138165 -0.005730303674224536 0 -0.1434938427386336 -0.44544759924757904 0
          8.052378478774451e-17 -0.7595801517466911 0 -0.2979089697334269 0.06449371301392724 0
          -0.435324796545983 1.8137360073413388e-17 0 -0.39370750528515913 0.14377665996228856 0
          0.2507406203230355 -0.4901788154456428 0 0.14227564244569824 -0.21253074729601126 0
          2.3351192471138215e-17 -0.4313656965284567 0 -0.24764712689307566 0.3290602158521912 0
          -0.24254546389304868 0.2866945131878094 0 0.008927445701097271 0.2507760251759183 0
          0.5074514975906798 -0.21232521316895248 0 0.46667623853203116 0.009031278829553997 0
          -0.02611674015386296 0.5187972339839148 0 -0.10118439288521283 0.5328517559849305 0
          0 0 0 0 0 0
          0.23033752664700297 0.32805460130320935 0 0.4110812334075268 2.38245053883988e-17 0
          -2.077712089930092e-17 0.4184643202844757 0 0.7114017331397031 2.320870167107617e-17 0
          0.11799135647141072 0.5572971414659529 0 0.602437634560678 0.09859549309448999 0
          5.659235288810227e-17 0.6622693787926992 0 0.6539155976908007 -2.3204132627749012e-17 0
          0.2757540176413284 0.3419242109312986 0 -1.7074418512541548e-17 0.542562400211726 0
          0.4483971496171706 -1.3433997455890246e-17 0 0 0 0
          <InformationKey name="L2_NORM_RANGE" location="vtkDataArray" length="2">
            <Value index="0">
              0
            </Value>
            <Value index="1">
              0.75958015175
            </Value>
          </InformationKey>
        </DataArray>
        <DataArray type="Float64" Name="Pressure" format="ascii" RangeMin="-0.12540809918199233" RangeMax="4.823216315694982">
          0 -0.12540809918199233 0.11315253632344223 0.2379804590822136 0.3084471009283035 0.13992925032816483
          0.5814020202444596 0.423796423740326 0.442661874550758 0.46738112624290146 1.6097413777691396 0.4736416489530592
          2.47523017114639 0.5967106247975362 0.5448975337381161 0.6745082451697693 2.263207048149351 0.9481661928099038
          0.8202366974042847 0.7119468748381101 4.823216315694982 0.520889868682926 0.9343898223325413 4.537585158057692
          0.6081980349234082 3.782647801592096 1.0731441506704655 1.5381713085549864 0.8672776602006639 2.922128634502011
          1.3899638899317446 1.1846175110901989 1.9035442278504875 1.6085252951607294
        </DataArray>
        <DataArray type="Float64" Name="LEVEL" format="ascii" RangeMin="-0.8326916296509879" RangeMax="0.5814462033669319">
          -0.16848027412463143 -0.05183882598182127 -0.23816899672780667 -0.4442779673719811 -0.3532606217698207 -0.0702816895574585
          0.11286898780359622 -0.21582413847430643 -0.6546482426819094 -0.43976249904797027 0.15436668630667583 -0.013950197849631077
          0.3313471396890313 -0.30014482946811094 -0.5192159704500439 -0.10705166070823494 0.1921062714449394 0.0457035567468049
          -0.1987705693817125 -0.35455367980760316 0.5814462033669319 -0.8326916296509879 -0.04146447972381284 0.44873450796307135
          -0.5491014321073178 0.3299667850357336 -0.10717025613899261 0.07931243421082973 -0.33350715768934464 0.1996577140455177
          -0.03492708467944004 -0.18641430553472724 0.055998635297558705 -0.08025994025160024
        </DataArray>
      </PointData>
      <CellData>
        <DataArray type="UInt8" Name="vtkGhostType" format="ascii" RangeMin="0" RangeMax="0">
          0 0 0 0 0 0
          0 0 0 0 0 0
          0 0 0 0 0 0
          0 0 0 0 0 0
          0 0 0 0 0 0
          0 0 0 0 0 0
          0 0 0 0 0 0
          0 0 0 0 0 0
          0 0
        </DataArray>
      </CellData>
      <Points>
        <DataArray type="Float32" Name="Points" NumberOfComponents="3" format="ascii" RangeMin="0" RangeMax="1.4142135623730951">
          0 1 0 0 0.7799999713897705 0
          0.19571679830551147 0.840013325214386 0 0.3338231146335602 1 0
          0.4226129949092865 0.8073133826255798 0 0.21492919325828552 0.5873047709465027 0
          0 0.512727677822113 0 0.4972974956035614 0.6009321212768555 0
          0.6673728823661804 1 0 0.630643904209137 0.7812064290046692 0
          0.20702050626277924 0.32903969287872314 0 0.40350478887557983 0.41823700070381165 0
          0 0.25636380910873413 0 0.6898214221000671 0.5965974926948547 0
          0.8102678060531616 0.7724344730377197 0 0.6222723722457886 0.4149332046508789 0
          0.3845047950744629 0.20200540125370026 0 0.5769323110580444 0.2627502977848053 0
          0.7934312224388123 0.426090806722641 0 0.8737686276435852 0.5574696063995361 0
          0 0 0 1 1 0
          0.7134407162666321 0.28491899371147156 0 0.2561560869216919 0 0
          1 0.6993336081504822 0 0.47891008853912354 0 0
          0.8612840175628662 0.26164010167121887 0 0.7288737893104553 0.12652690708637238 0
          1 0.44098520278930664 0 0.6815431714057922 0 0
          0.8920316100120544 0.1200575977563858 0 1 0.21212109923362732 0
          0.8700000047683716 0 0 1 0 0
          <InformationKey name="L2_NORM_RANGE" location="vtkDataArray" length="2">
            <Value index="0">
              0
            </Value>
            <Value index="1">
              1.4142135624
            </Value>
          </InformationKey>
        </DataArray>
      </Points>
      <Cells>
        <DataArray type="Int64" Name="connectivity" format="ascii" RangeMin="0" RangeMax="33">
          29 32 27 29 27 25
          23 25 16 27 17 25
          17 11 16 16 11 10
          17 16 25 23 10 12
          10 11 5 16 10 23
          12 10 6 6 10 5
          6 5 1 20 23 12
          32 33 30 30 33 31
          32 30 27 30 31 26
          26 31 28 30 26 27
          27 26 22 22 26 18
          27 22 17 17 22 15
          18 26 28 22 18 15
          17 15 11 18 28 19
          19 28 24 18 13 15
          19 24 14 14 24 21
          19 14 13 13 14 9
          19 13 18 9 14 8
          13 9 7 15 13 7
          7 9 4 4 9 8
          7 4 5 0 1 2
          11 15 7 2 1 5
          0 2 3 3 2 4
          3 4 8 11 7 5
          4 2 5 8 14 21
        </DataArray>
        <DataArray type="Int64" Name="offsets" format="ascii" RangeMin="3" RangeMax="150">
          3 6 9 12 15 18
          21 24 27 30 33 36
          39 42 45 48 51 54
          57 60 63 66 69 72
          75 78 81 84 87 90
          93 96 99 102 105 108
          111 114 117 120 123 126
          129 132 135 138 141 144
          147 150
        </DataArray>
        <DataArray type="UInt8" Name="types" format="ascii" RangeMin="5" RangeMax="5">
          5 5 5 5 5 5
          5 5 5 5 5 5
          5 5 5 5 5 5
          5 5 5 5 5 5
          5 5 5 5 5 5
          5 5 5 5 5 5
          5 5 5 5 5 5
          5 5 5 5 5 5
          5 5
        </DataArray>
      </Cells>
    </Piece>
  </UnstructuredGrid>
</VTKFile>
