<?xml version="1.0"?>
<VTKFile type="UnstructuredGrid" version="0.1" byte_order="LittleEndian" header_type="UInt32" compressor="vtkZLibDataCompressor">
  <UnstructuredGrid>
    <Piece NumberOfPoints="102" NumberOfCells="170">
      <PointData>
        <DataArray type="Float64" Name="Velocity" NumberOfComponents="3" format="ascii" RangeMin="0" RangeMax="1.0000000000006757">
          0.5001630199691 0 0 0.5002388040966457 0 0
          0.5000763788833109 1.1375804854817134e-7 0 0.5000443235845484 -0.00037361349918698614 0
          0.5011720949489001 0 0 0.5000330295282959 0.00035911275652541043 0
          0.5001574774627046 0 0 0.5010623168179714 -0.0027030520114998888 0
          0.4980863865609878 -0.000019286284882292894 0 0.5055636820253988 0 0
          0.500232257574921 0 0 0.4951240305248624 -0.00618884736828957 0
          0.506429907613802 -0.008758073481255728 0 0.5010264405134663 0.0026726834122869593 0
          0.4950993939323146 0.006125780173497283 0 0.5011411943774668 0 0
          0.49287442734870457 -0.0188713359141056 0 0.5174752938866495 0 0
          0.48239423309859425 -0.00003640335663389324 0 0.5203336239981875 -0.009267632631638042 0
          0.5172323507700111 -0.021687433939391692 0 0.4637694077295898 -0.02441494624110025 0
          0.49288185868541945 0.018807590305304316 0 0.5025990771899068 -0.05196993239037765 0
          0.4637876013204043 0.024347380828151615 0 0.5064682732322912 0.00873287066237413 0
          0.44237168538373384 -0.07210731418643677 0 0.40452880848220646 -0.00001841801087644709 0
          0.549614307924462 -0.03602639633195417 0 0.5055402292904483 0 0
          0.5218106647212724 -0.08390167898036192 0 0.5255616461547806 -0.009227420863007542 0
          0.3446266919938161 -0.13360782246272834 0 0.44236950072956716 0.07206094213319421 0
          0.502657248913369 0.05195183168295403 0 0.5634762644685949 -0.28540573169806577 0
          0.34463411587479886 0.13356934157308364 0 0 0 0
          0 0 0 0.8109554947215447 -0.19166521606637435 0
          0.5172806504815652 0.021674177855492853 0 0.5745010209066478 -0.025098159775891193 0
          0 0 0 0.5634830453449627 0.2853770925218557 0
          0 0 0 0.5394691571565906 0 0
          0.5218984626365993 0.08388478096958162 0 0.555070596551723 0.0035392273102764146 0
          0 0 0 0 0 0
          0.8714305835318072 0.06506267526682229 0 0.8109971839070614 0.19166002350161992 0
          0 0 0 0.5494465228147813 0.0359217050702414 0
          0.5534030347699643 0.0511745788126847 0 0 0 0
          0.6927441832462092 0.2623291700348772 0 0.5744924354396006 0.02501853953827407 0
          0 0 0 0.5398818995520759 -0.004287843834106646 0
          0.5199157113744164 0.008961932520231211 0 0 0 0
          0.8715366709924764 -0.06502906591770377 0 0 0 0
          0 0 0 0 0 0
          0.5201055085008734 0.04096947635289881 0 0.4296472590027859 0.23086058961380876 0
          0.5172258405758202 0 0 0.4719939074249358 0.07890907385694777 0
          0.6927393487956217 -0.26229538227700455 0 0.5259057966006052 0.008808517584419381 0
          0.30722532835482436 0.00000737097911009302 0 0.5533119269842146 -0.05128705263966754 0
          0.42948161038657456 -0.2308419016495424 0 0.5556637211976827 -0.003259836494110357 0
          0.40057081181500753 0.036849035857642806 0 0.4724765140514901 -0.07881815030801992 0
          0.4010086569441076 -0.036671420326941845 0 0.47329084368275576 0.035878807846943875 0
          0.48511455343235627 -0.021790731451773005 0 0.5201431388654015 -0.0408705160003336 0
          0.47211364428192426 0.004863712885617587 0 0.44956395984214587 0.0001316157152678541 0
          0.5277042212385527 0 0 0.4718503917443288 -0.03603812997824463 0
          0.5382317455303651 0.003178693142487918 0 0.4441780330856071 -0.0016475354936774827 0
          0.539437604086183 0 0 0.4879244149565232 0.022664437302289467 0
          0.4476422650994045 0.0017474544311613272 0 0.48205692226453867 0.044693099837850095 0
          0.47735735734923906 -0.00395204990847072 0 0.4526774069434183 0.006898310697398017 0
          0.47479208570607834 -0.050994042917498796 0 1.0000000000006757 0 0
          1.0000000000006757 0 0 0.5167688624891715 0 0
          1.0000000000006757 0 0 1.0000000000006757 0 0
          1.0000000000006757 0 0 1.0000000000006757 0 0
          <InformationKey name="L2_NORM_RANGE" location="vtkDataArray" length="2">
            <Value index="0">
              0
            </Value>
            <Value index="1">
              1
            </Value>
          </InformationKey>
        </DataArray>
        <DataArray type="Float64" Name="Pressure" format="ascii" RangeMin="0" RangeMax="77.50053030929502">
          0 18.31986361543776 0 25.45010695998804 32.78676042047593 25.40646366559027
          0 39.30452124836274 36.589057133769074 43.40414228330369 18.31970217103226 44.193211927786855
          48.272437385470916 39.303564632911986 44.19277794605703 32.78593926702013 49.95656981003404 52.759507953899536
          48.58931431496755 54.554150036787405 53.73697301985886 52.12054778218118 49.95577357721724 54.04102675356462
          52.1203309788431 48.270941350849064 54.7289801585674 53.98358894879114 57.44786159796313 43.402897276357386
          56.794086612875084 59.08721335405901 55.36359150808727 54.728782096816886 54.0405452774056 56.53528803055699
          55.36353072168571 56.24478089899834 55.697645226197146 58.60704600197474 53.736307913445266 59.6997383933597
          57.75922981076234 56.53515172224037 56.244702644036934 62.400856739828946 56.79381722588842 61.544207379827476
          59.88964123354406 57.759142799956535 61.09731156815827 58.60695215640169 62.14280645008813 57.447403994529594
          62.7652056636784 59.88963991345384 63.42899026840425 59.6996607139879 64.0017184024298 64.78654217323768
          54.55181943679999 62.14290759537219 61.097365852846 65.04701258094853 64.00185870826861 65.04706848190197
          65.34896821641452 65.0709808103649 52.75724229631946 65.27790066000692 63.42918413639603 59.085446802312
          65.66063364029654 62.765428959294645 65.07116073972344 61.54405202148138 66.67873414726122 65.27826299813212
          66.67889688778705 67.9760686083752 69.35095228940504 65.34959936811198 71.00465959031861 68.89819521224041
          72.04992508146996 67.97758815497816 64.78773668666149 71.74700493641467 62.38998037052879 69.35205782985624
          71.74738896850083 74.70354853544941 71.00096344456644 75.42900730812606 74.55575464649316 76.16169520262022
          77.27500013926179 72.03116709833328 77.50053030929502 77.47473185541062 77.26887635411845 76.1957087389462
        </DataArray>
      </PointData>
      <CellData>
        <DataArray type="UInt8" Name="vtkGhostType" format="ascii" RangeMin="0" RangeMax="0">
          0 0 0 0 0 0
          0 0 0 0 0 0
          0 0 0 0 0 0
          0 0 0 0 0 0
          0 0 0 0 0 0
          0 0 0 0 0 0
          0 0 0 0 0 0
          0 0 0 0 0 0
          0 0 0 0 0 0
          0 0 0 0 0 0
          0 0 0 0 0 0
          0 0 0 0 0 0
          0 0 0 0 0 0
          0 0 0 0 0 0
          0 0 0 0 0 0
          0 0 0 0 0 0
          0 0 0 0 0 0
          0 0 0 0 0 0
          0 0 0 0 0 0
          0 0 0 0 0 0
          0 0 0 0 0 0
          0 0 0 0 0 0
          0 0 0 0 0 0
          0 0 0 0 0 0
          0 0 0 0 0 0
          0 0 0 0 0 0
          0 0 0 0 0 0
          0 0 0 0 0 0
          0 0
        </DataArray>
        <DataArray type="Float64" Name="Velocity_SGS" NumberOfComponents="3" format="ascii" RangeMin="0" RangeMax="0.02196543388501449">
          6.91165219126753e-310 4.66148113734187e-310 4.66148113734187e-310 0.004861639324041137 -0.0029638711679909517 0
          0.005423121764398409 0.0029201486786053616 0 0.004864353489782298 -0.0028777038160889452 0
          0.00481570737417044 0.0032559361065713516 0 -0.004483028722588047 0.007388272642315407 0
          -0.006357636243568136 7.104582394801186e-7 0 -0.004736109949413965 -0.007591981727610002 0
          -0.0028783136197106027 -0.0012160496018460993 0 -0.0007061298769846045 -0.0038563079859431117 0
          0.00189881840383506 -0.01008560855579673 0 0.001943384713556904 0.010200999487896543 0
          -0.0010812733836322586 0.003369746115518808 0 -0.0035085997014765377 0.0015023926958571184 0
          -0.01592913733475371 -0.0077919085906476455 0 -0.00238822881026181 -0.009354415768073904 0
          0.015103375798959859 -0.003938348105599768 0 -0.014317056859394394 0.007004097277155958 0
          0.007818883848913598 0.009868766982535668 0 -0.01049057532244867 0.00936052438861576 0
          0.007252806573361716 -0.009327773690185934 0 0.0129763513463352 -0.008716516631170193 0
          0.016049973549882024 0.0042051062002978045 0 -0.0023423451979145277 0.009199757502815462 0
          -0.015769788488923027 7.475508235577164e-7 0 -0.011695560116687688 -0.010240700604159806 0
          0.01470856755269032 0.009738008655115041 0 0.013509890707531644 0.010681099230679753 0
          -0.015611957405457557 0.008094236464036446 0 -0.007473800794670019 -0.0075969916683637975 0
          -0.01843357629456644 -0.007571963175903697 0 -0.007907556301373674 0.008105610588560361 0
          -0.016458623274131813 -0.008501075957074578 0 0.004858519471691373 -6.474399345544932e-7 0
          0.005595300313838444 -0.013884004331498893 0 0.021740682255477994 -0.000049408099566993456 0
          0.005672113867522258 0.014098840094223495 0 0.01489044543107643 -0.01182881511892847 0
          -0.02029654500237766 0.008398246645782755 0 0.020127481143663604 0.000015125347644519022 0
          -0.00004947528612178533 0.00864076148312158 0 0.0012413525803597722 -0.0000010757269297478542 0
          -0.000035695219994366124 -0.007860243868435493 0 0.0006708982319021087 0.009898107601309651 0
          0.0004576764023421873 -0.00653016280119192 0 -0.001662719087189474 0.003405807053583494 0
          -0.0015896064248953942 -0.0032660465429076167 0 -0.00034659918146331525 -0.00993390157290078 0
          -0.0007693027616399767 0.009206949915378506 0 0.0006579803918946229 -0.009275143967239257 0
          -0.0008846096041454712 -0.010073656079925858 0 -0.00036194204428070375 0.009664180959213925 0
          0.0005120526755484757 0.006082438629929817 0 -0.0014895031876954834 -0.0034091529670026376 0
          0.000928433837335622 0.003140246150465916 0 0.001653537317934558 -0.003858502674151638 0
          0.000880859672451187 -0.0033730813190863134 0 -0.0016249762463527953 0.003680062314345486 0
          -0.00017723317206445204 0.001820446257535343 0 0.0014862875483499893 0.0036107899253394336 0
          0.00032509897566664926 0.000013114987001602563 0 -0.00017397304854765473 -0.0017527133501608664 0
          -0.0012647536977260139 0.00331271948644819 0 -0.0012356770661478911 -0.003180471579267076 0
          0.0006478973246833993 0.002715900550641454 0 0.0006652635682386295 -0.0027578101824922703 0
          -0.00262985262155469 -0.00020537103396209332 0 -0.002222952740106767 0.0010876498871087888 0
          -0.0023340354290044434 -0.0011395987611416592 0 0.0017239574450039897 0.00007693934791101796 0
          0.002506044964769242 -0.0016781385771543072 0 0.0018258003162875127 -0.00009080831780391692 0
          -0.0008754363227938804 0.0014206917981367624 0 0.0028419095539459834 0.001743901179487999 0
          -0.0015737288727764925 6.620559324005447e-7 0 -0.0024414761639592374 0.00018621170567333176 0
          0.0020590606844681668 -0.001111901936854747 0 0.002220125084916232 0.0011566222086229123 0
          -0.0009112408946015527 -0.0013703512394620837 0 0.0018088646944547596 -0.000048725076583376554 0
          -0.0009442963553625272 0.0015606393597015478 0 0.0007760976838341733 -3.1139990023391683e-7 0
          -0.00030773754508390595 0.0007900859144704877 0 0.0011032974345431587 0.0006865924953728679 0
          -0.0002167784896426849 -0.0007340603811210227 0 -0.001050832400888125 0.000785919079451557 0
          0.0011510251232993017 -0.0007180704646012482 0 -0.0008286394853631766 0.0012930539307414838 0
          0.0019410125987639037 0.000038509924303354605 0 -0.000968866791613278 -0.001412750048850562 0
          -0.000899343259519376 -0.0013978932941684087 0 -0.0012102301442206277 -0.0008051769442994144 0
          -0.00010271858214474291 0.0006524146841737663 0 -0.00005382167485394521 0.0008073601236507661 0
          0.0007080025190196882 -0.0008892722352853013 0 0.0010872084902723337 -0.0017659329638953017 0
          -0.0004504357951958301 0.00039724805344371555 0 0.0014152602568368435 -0.00006534527939603318 0
          0.0004860270101326667 0.0024535200760357843 0 0.0012687424062618566 0.001731630298637952 0
          0.0005815153374878184 0.0008333264671998652 0 -0.000056297191122198315 -0.0007661467458728896 0
          -0.00010316416890250763 -0.0006276444740934763 0 -0.00044100054227452925 -0.0003910954451674353 0
          0.0004120419099474066 -0.002490973393294091 0 -0.0008069530280396921 -0.00037705399984103757 0
          0.00008141446148306207 -0.00013436739050924266 0 0.0014826253904731464 -0.0002535932268837185 0
          -0.0012138944793519215 -0.00012112543036012364 0 0.0015979241667696765 0.0001974953278907245 0
          -0.0010671180286964193 0.00028498299487252716 0 -0.0008718900432154479 0.0003961566819820672 0
          0.0003420595204859935 -0.00020388148302219073 0 -0.0012578905630315504 0.00025102678606207085 0
          0.0003559704829827849 0.0002158659677663138 0 -0.0007239907971415909 0.001824025172951992 0
          -0.0009712514561155392 -0.0022662214891457024 0 0.00008436662669872827 0.0001362368462847244 0
          0.000427258710692593 0.00004285012707552053 0 -0.00015418776166384917 -0.00005074841597009308 0
          -0.0033977884049911184 0.00201414079838244 0 -0.0018711068959089737 0.0002084418934153728 0
          -0.005467100676869462 0.0007364552216998251 0 -0.00019171169580409369 1.7131459714405306e-7 0
          -0.00024336031295978903 -1.603332648105355e-7 0 -0.00018070909695626223 0.00005139657906475082 0
          -0.005541441710915418 -0.0005414771022211144 0 -0.003457352550511216 -0.0022204718978591255 0
          -0.00023862860076802483 -4.4041567896838097e-7 0 0.00036346954768237867 -0.000032230409719385726 0
          -0.001647999541777007 -0.00016126553442744832 0 0.0021020070231085636 -0.0003313730990487109 0
          0.0032186913789130963 0.00029483749898092835 0 0.003407041267999209 -0.00030565657828972667 0
          0.0019419424143492584 0.00158963829209696 0 0.0020783642078452975 -0.0011773941177009415 0
          0.002039704943343124 0.00036616786917562924 0 0.0021645532616086137 0.00009184339674184738 0
          -0.00011356064991312782 -0.00013499981662763358 0 0.00010258248408731121 -0.000009695945866877153 0
          0.00010044528244618058 0.000010845068652297977 0 0.002037695104342887 -0.000423172202765675 0
          -0.003053351023276781 -0.0002770696549733876 0 0.00008065179000393744 -7.18060963431686e-8 0
          -0.00010032204980168881 -0.00008344490140958385 0 0.002052519680214912 -0.00014699421627853112 0
          -0.0031258148856866882 0.0002993656357438112 0 0.000015670952681891658 0.00007398838316266717 0
          -0.000058957300246866565 -0.00007690515800561461 0 -0.00006106543502714506 0.00007729778604715731 0
          0.000011710495787399153 -0.00007447401689295168 0 -0.000461843868725022 0.00023369632227680836 0
          -0.000271574466609924 -0.00024324259084690695 0 0.0008065760820810225 0.00003353076517998691 0
          -0.0001384032287004285 0.00012540132100656747 0 0.0008150396831699578 -0.000040122315266203395 0
          -0.00010347053971239982 0.00008868651619863022 0 0.000025411103256834474 -0.00003816470674966785 0
          0.000026676259652362538 0.000038353546196223866 0 0.000007873614892743131 0.000014382303612831989 0
          0.00000713286987676249 -0.00001428411043458534 0 -0.000016066001507536244 0.00000923963648871976 0
          -0.000015406105875267556 -0.000009170681284258617 0 -0.00001401337124512749 -3.711262064977853e-8 0
          0.0000031331238666858922 -0.0000023753818114688704 0 0.000003048396244775615 0.000002590527327633047 0
          -6.19365786831021e-7 0.0000014003685888615163 0 -6.435901752182173e-7 -0.000001443214943772087 0
          0.0000035190954971798683 2.6280589141963424e-8 0 -3.8671514628011663e-7 -2.884270585405062e-7 0
          -3.802390328245577e-7 3.0735616323597155e-7 0
          <InformationKey name="L2_NORM_RANGE" location="vtkDataArray" length="2">
            <Value index="0">
              0
            </Value>
            <Value index="1">
              0.021965433885
            </Value>
          </InformationKey>
        </DataArray>
        <DataArray type="Float64" Name="Velocity_SGS2" NumberOfComponents="3" format="ascii" RangeMin="0" RangeMax="0.07822424057760484">
          6.91165219126753e-310 4.66148113734187e-310 4.66148113734187e-310 0.0200737208509202 0.01655561413284224 0
          0.06103490421033586 -0.031099898870513103 0 0.058791765042547184 0.029724189153755513 0
          0.020529922393572885 -0.017426292359691897 0 0.07045981963924493 0.021054512986026067 0
          0.015546250354478666 -0.0000012453763740122337 0 0.07211675055887712 -0.021629409123772304 0
          0.04454015110061174 0.032696682668568885 0 0.03154151471567653 -0.030018812888794266 0
          0.07720733415768258 0.007256435232233226 0 0.0778799875435046 -0.007330713073539793 0
          0.030214814607972443 0.028121010084604332 0 0.04660799030757778 -0.034684711308202616 0
          -0.07215846228705361 0.011061329847353845 0 -0.049780900933966685 0.0019222958071693358 0
          -0.07066514271174684 -0.005698414448716497 0 -0.06614586419493755 -0.00962695893612589 0
          -0.05332686525408988 0.008069552199844274 0 -0.05478249648351224 -0.009404627130251076 0
          -0.05118457595917897 -0.007270222809093558 0 -0.05999117817911653 -0.010523014920946299 0
          -0.07449665627503341 0.0061408953939684 0 -0.049195044465239327 -0.0018498724623095472 0
          -0.07536948035374877 9.603773912236768e-8 0 -0.05866931586145445 0.011029868065258207 0
          -0.06562080829542621 0.012510833554579177 0 0.03385920725116879 0.0026495292568135143 0
          0.034651096650507834 0.0010589820565870892 0 0.03347780622224658 0.0023718767785801276 0
          0.034067259350078136 0.003138173894379131 0 0.03561994535327102 -0.002422891360257336 0
          0.03639222943224493 -0.0010937728200206207 0 0.03522699630542358 -8.261632681270953e-8 0
          0.03488463994242657 0.0009326418705062076 0 0.03645896764106979 -0.0024087968828328324 0
          0.035411260308742414 -0.0009495167765889178 0 0.03717583095900419 -0.0027347411893482686 0
          0.03731671255970589 -0.003348272985785548 0 0.03386088376321347 0.0022486247378828202 0
          -0.026237664831900192 0.0019326877094312592 0 -0.025262811268109787 -0.00006286449907205033 0
          -0.02385994233408058 -0.0018647329082640673 0 -0.023632412791171717 0.0010778410560710744 0
          -0.026995608441298186 0.0009471316827187057 0 -0.02649449149407864 0.0007753527043182816 0
          -0.025376315034023905 -0.000742130331196111 0 -0.023067251867383433 0.0011752443702522687 0
          -0.024085063455892952 -0.0021559069903250997 0 -0.022122737230846304 -0.00106794324483881 0
          -0.026339315486421835 0.0022354594108165756 0 -0.022443528443956987 -0.0011292778680451546 0
          -0.025186965405048355 -0.0009836043466330824 0 0.01548546512297537 0.0033563941902211014 0
          0.014474989539800948 0.004731042761747508 0 0.019569903086491734 -0.0028563969112116346 0
          0.015589010759666516 -0.004974523783684137 0 0.016690213254010648 -0.0036324542015274096 0
          0.013030219980873179 -0.0017851119305450692 0 0.01831009186157069 0.002630623089579563 0
          0.010439434554474217 0.000014503881212545527 0 0.012557146812389662 0.0017316048737383493 0
          0.018175535075791577 -0.002711738053450971 0 0.017415942293812558 0.0025912805968212804 0
          0.01848972195608643 0.000526571236968349 0 0.01877092629399382 -0.0005533999016278674 0
          -0.01388973568444992 0.0028056564693741516 0 -0.01439130431926978 -0.0016443804284440484 0
          -0.015126329789931843 0.0017265041971399225 0 -0.012054355279216954 -0.0022711848552580734 0
          -0.012002350809347109 -0.0004056926632933031 0 -0.012808187877148252 0.0023063302435864727 0
          -0.012668356774523661 0.000179647771958843 0 -0.01313786250230374 0.0004170253323642981 0
          -0.015547241231165777 2.1541821630839675e-7 0 -0.012970936120723125 -0.0026151832364727104 0
          -0.01093912183155471 0.0011282394889861082 0 -0.011410048547889004 -0.000830889104507597 0
          -0.012403806855065333 -0.00019850648640101776 0 0.008279153437543478 0.0010335971825127426 0
          0.009653940191857887 -0.005508295149946273 0 0.007225549654898621 0.000006151780699722563 0
          0.011556652572768047 -0.00016796205973302236 0 0.008036961801553038 0.0012944511278403302 0
          0.011385155991199951 0.00014166272462281257 0 0.0036993632535533647 -0.0022432919920270964 0
          0.008413029654104369 -0.001368043807377582 0 0.008492143819394914 -0.0021462145982120264 0
          0.008717644791478081 -0.0010675534477557766 0 0.008926377011471674 0.0022700658508852402 0
          0.009361536181284824 0.0052974590665504345 0 0.003832630512229051 0.0019884364865652123 0
          -0.004488931434817853 0.0008428015595584549 0 -0.008601712629452148 0.0010278065682955595 0
          -0.004730574730199869 0.0015472489939662632 0 -0.019960978709374376 0.002528610564965052 0
          -0.007893054135370406 0.0006739225975368858 0 -0.016339863436429392 -0.0004837695872187451 0
          -0.015137524911849953 -0.007365718970874205 0 -0.020180175288858224 -0.0028198612674641627 0
          -0.004516065586404939 -0.0013813621479932298 0 -0.008210289326026165 -0.0009607016475527731 0
          -0.004212109580718456 -0.000773030228312085 0 -0.007750840472459247 -0.0006723527155067981 0
          -0.015435094563151872 0.00799178889401149 0 0.009555706875130188 -0.0002662178967311275 0
          0.00382252987539541 0.0004290480526493017 0 -0.008377947014944112 -0.000009541686372227672 0
          0.020438950968438445 -0.0022679881814796103 0 -0.008557903013511645 -0.00012635554661663345 0
          0.020528204904298453 0.0026331460965019226 0 0.009908148237362484 0.00032633109830951853 0
          0.003973847811430378 0.00028350624441758057 0 0.010568453431418299 -0.00003045188987594715 0
          0.004124062489319549 -0.00028008350097422 0 0.010341338344155623 0.002444396766402575 0
          0.012172535932933229 -0.0016159592069117518 0 0.003903327411123399 -0.0004455941807613345 0
          -0.009322388326713484 0.0004234073335814511 0 -0.0034631858509930995 -0.00194099787269837 0
          0.029740713907197812 -0.032201115663181665 0 0.007605916550031934 -0.0007209216524152819 0
          0.05927737187673806 -0.013288549920741343 0 -0.0037910518633716443 0.000004729589176877399 0
          -0.0041682356569520095 0.0008468269653518622 0 -0.0035077578033781056 0.0019474695329925705 0
          0.05939925395037488 0.01547563958783214 0 0.03060664689939282 0.030582365513410866 0
          -0.0040418646621217195 -0.0008278076386261353 0 -0.008926205181518477 -0.0004271887289462582 0
          0.007676448237208498 0.0007124316609521334 0 -0.012175362711121296 -0.0001700487161694613 0
          -0.03885003863798907 -0.012488359104841498 0 -0.04015797004687588 0.010744357519624438 0
          0.0007570626450822612 0.016519281365839373 0 -0.0006224486220800223 -0.01480060640362389 0
          -0.031370453025791355 -0.050687687945843975 0 -0.02298339733273366 -0.0369987870750324 0
          0.004077350893308042 0.0038025834127634285 0 0.0018915773784140499 0.0019006732111944327 0
          0.0019362349902089617 -0.0019431881267055519 0 -0.03134792904115237 0.05205075503436185 0
          0.06250797556345107 0.0026172005412921488 0 0.0012843675921100054 -6.382087041142824e-7 0
          0.0008647508394524989 0.000901489170492569 0 -0.024146585481714167 0.036555895588431996 0
          0.060947690391837034 -0.0026975705424097042 0 -0.0007735799732485206 -0.0020928106009761617 0
          -0.0017478156109150625 0.0003117263703180063 0 -0.0017524475028756117 -0.000314392603885949 0
          -0.0007613302851199677 0.002127431797092292 0 -0.01800954073773517 0.014164722607892779 0
          -0.01706952093950795 -0.01342673650090296 0 -0.006476227490420187 0.0006407582332755151 0
          0.0041771715981947805 -0.0037768227513473663 0 -0.00645829888785258 -0.0005433251370197978 0
          0.0008647759290524143 -0.0009368286416612418 0 0.00032739172822245056 0.0004592161011939246 0
          0.0003247139206873621 -0.0004626648496304082 0 0.0004142606971448267 -0.000695097185291324 0
          0.00040421640370140205 0.0006800079845797197 0 -0.000287322510698608 -0.0005594688949429302 0
          -0.0002794152704537418 0.0005534629438206922 0 -0.0002988479722534593 0.0000032332142121339397 0
          0.00012259608967668225 0.00004144613034793399 0 0.00013048212017773025 -0.00004783500530923147 0
          -0.00004556565943047037 -0.000040906919376795415 0 -0.0000487248718620052 0.00004332394399540555 0
          0.0000372051587380748 -6.098174303409045e-7 0 0.0000011217375690287424 -0.000011238426737229051 0
          0.0000014892149780061969 0.000011562069830972724 0
          <InformationKey name="L2_NORM_RANGE" location="vtkDataArray" length="2">
            <Value index="0">
              0
            </Value>
            <Value index="1">
              0.078224240578
            </Value>
          </InformationKey>
        </DataArray>
      </CellData>
      <Points>
        <DataArray type="Float32" Name="Points" NumberOfComponents="3" format="ascii" RangeMin="0.6427936553955078" RangeMax="16.492422502470642">
          16 4 0 12.337202072143555 4 0
          16 0.003336417954415083 0 10.910933494567871 1.458586573600769 0
          9.447426795959473 4 0 10.919631958007812 -1.4520937204360962 0
          16 -4 0 8.143135070800781 2.174484968185425 0
          8.679097175598145 9.383152033137776e-10 0 7.336548328399658 4 0
          12.337202072143555 -4 0 7.150442123413086 0.7765142917633057 0
          6.3641791343688965 2.4112002849578857 0 8.143135070800781 -2.174484968185425 0
          7.150442123413086 -0.7765142917633057 0 9.447426795959473 -4 0
          5.989655017852783 1.044251561164856 0 5.502410888671875 4 0
          6.247039794921875 6.469296209843378e-10 0 5.150596618652344 3.0338735580444336 0
          5.276463985443115 1.8492776155471802 0 5.507872104644775 0.3716571033000946 0
          5.989655017852783 -1.044251561164856 0 5.1624369621276855 1.0298291444778442 0
          5.507872104644775 -0.3716571033000946 0 6.3641791343688965 -2.4112002849578857 0
          4.9475250244140625 0.49729952216148376 0 5.070098400115967 2.759303896482379e-10 0
          4.550701141357422 1.4520796537399292 0 7.336548328399658 -4 0
          4.607885360717773 0.8806737661361694 0 4.277002811431885 2.345876455307007 0
          4.712680339813232 0.1756599098443985 0 4.9475250244140625 -0.49729955196380615 0
          5.1624369621276855 -1.0298291444778442 0 4.549413681030273 0.4867381453514099 0
          4.712680339813232 -0.1756599098443985 0 4.442728042602539 0.2323615849018097 0
          4.5 0 0 4.260283470153809 0.6863105893135071 0
          5.276463985443115 -1.8492777347564697 0 4.12898588180542 1.0622961521148682 0
          4.284032344818115 0.41149193048477173 0 4.549413681030273 -0.4867381453514099 0
          4.442728042602539 -0.2323615849018097 0 3.668274164199829 4 0
          4.607885360717773 -0.8806737661361694 0 3.8128066062927246 1.5416762828826904 0
          4.060268402099609 0.49635443091392517 0 4.284032344818115 -0.41149193048477173 0
          3.911525011062622 0.7286574840545654 0 4.260283470153809 -0.6863105893135071 0
          3.822697639465332 0.46750810742378235 0 4.550701141357422 -1.4520796537399292 0
          3.620537757873535 1.0005594491958618 0 4.060268402099609 -0.49635443091392517 0
          3.5830352306365967 0.6040777564048767 0 4.12898588180542 -1.0622961521148682 0
          3.625744581222534 0.3315613269805908 0 3.2031748294830322 2.1983518600463867 0
          5.150596618652344 -3.0338735580444336 0 3.822697639465332 -0.46750810742378235 0
          3.911525011062622 -0.7286574840545654 0 3.51452898979187 0.11965782940387726 0
          3.625744581222534 -0.3315613269805908 0 3.51452898979187 -0.11965782940387726 0
          3.117795705795288 1.2780934572219849 0 3.350067138671875 0.34111109375953674 0
          5.502410888671875 -4 0 3.1990199089050293 0.7096065282821655 0
          3.5830352306365967 -0.6040777564048767 0 4.277002811431885 -2.345923662185669 0
          3.265990734100342 8.508456161848699e-10 0 3.620537757873535 -1.0005594491958618 0
          3.350067138671875 -0.34111109375953674 0 3.8128066062927246 -1.5416762828826904 0
          2.960996627807617 0.25609132647514343 0 3.1990199089050293 -0.7096065282821655 0
          2.960996627807617 -0.25609132647514343 0 2.624887228012085 0.7217148542404175 0
          2.318066358566284 1.490063190460205 0 3.117795705795288 -1.2780934572219849 0
          2.0251002311706543 2.550624370574951 0 2.447000503540039 1.945336336461878e-9 0
          1.8341370820999146 4 0 2.624887228012085 -0.7217148542404175 0
          3.2031748294830322 -2.198634147644043 0 1.8182549476623535 0.5377518534660339 0
          3.668274164199829 -4 0 2.318066358566284 -1.490063190460205 0
          1.8182549476623535 -0.5377518534660339 0 1.1527822017669678 1.237666130065918 0