<?xml version="1.0"?>
<VTKFile type="UnstructuredGrid" version="0.1" byte_order="LittleEndian" header_type="UInt32" compressor="vtkZLibDataCompressor">
  <UnstructuredGrid>
    <Piece NumberOfPoints="102" NumberOfCells="170">
      <PointData>
        <DataArray type="Float64" Name="Velocity" NumberOfComponents="3" format="ascii" RangeMin="0" RangeMax="2.1919731646455203">
          1.2880826193919221 0 0 1.2899841008411 0 0
          1.2908446487354024 0.000679628392882138 0 1.288120464578936 0.0006590514891824659 0
          1.2874181021370745 0 0 1.287924183167147 0.0011596128466193256 0
          1.2916102878126232 0 0 1.2836670459929174 -0.008093381701634022 0
          1.2751409186702376 0.0014496629426418877 0 1.2934083754357648 0 0
          1.290343122829319 0 0 1.2559777846732658 -0.018003424828363822 0
          1.2915800706031602 -0.027705778835230423 0 1.2826616937475266 0.007364423138908426 0
          1.255063499364207 0.018267092278627946 0 1.286484379380228 0 0
          1.2464381539058773 -0.0746763125501382 0 1.3297188713404906 0 0
          1.19626926439563 0.0015416057686079994 0 1.3392324752567064 -0.029748614836774 0
          1.3178382647803581 -0.06695014987365408 0 1.1085018687862311 -0.10304262579852497 0
          1.247466635493005 0.07128410254920035 0 1.283895926210931 -0.1802428358610367 0
          1.1108808934510248 0.10521728619485576 0 1.2880845219261374 0.02688953786544823 0
          1.1115656704141121 -0.42235663228848747 0 0.7918434406752065 0.008996660031070585 0
          1.4060662710574525 -0.09444322432695282 0 1.29062971063707 0 0
          1.5112337786635186 -0.32572022058908096 0 1.3697395216849828 -0.02724185626162798 0
          0.48113726420688757 -0.4396601506289702 0 1.1183362757680508 0.4147399276711585 0
          1.2823828251575617 0.17821225212839412 0 1.3055634664325637 -0.7548498829721444 0
          0.4838693270243126 0.46329858081723874 0 0 0 0
          0 0 0 2.026095924065213 -0.35885469919535445 0
          1.3193724027844262 0.06371829282090137 0 1.5916880612386302 -0.014787440341340208 0
          0 0 0 1.305802860981271 0.7504282188553593 0
          0 0 0 1.328442330148568 0 0
          1.5184475679491858 0.3156561379765887 0 1.4245889227596285 0.04048794848704716 0
          0 0 0 0 0 0
          2.1592699369128128 0.3762798555116257 0 2.032025532347648 0.34180151378332047 0
          0 0 0 1.4088308144643844 0.09383090017484641 0
          1.4148980045216635 0.2172714824072805 0 0 0 0
          1.6473997270857461 0.842746840678654 0 1.5946713790622182 0.006498573530186546 0
          0 0 0 1.341131944390302 -0.002881731881539944 0
          1.3423740391455175 0.029530179095754422 0 0 0 0
          2.1576722104618793 -0.38626025776236095 0 0 0 0
          0 0 0 0 0 0
          1.3325521374822387 0.11837370401736094 0 0.9428400038649312 0.6783252590197019 0
          1.329858908915839 0 0 1.1578677408669669 0.26631082789948857 0
          1.6483079203766564 -0.8424199199586496 0 1.3731147318205172 0.0255783651434733 0
          0.6110550470893474 0.019147166281832897 0 1.4129165708749334 -0.22442444669445247 0
          0.9458433157377129 -0.6752070236250682 0 1.4238022666769656 -0.043404371304984785 0
          0.9575601218280269 0.12037807411715337 0 1.143999861829256 -0.2687610574651106 0
          0.9494745262367628 -0.12126286209959096 0 1.1885065365034737 0.08704508373463661 0
          1.2239305720386136 0.03420725953189728 0 1.3315244855383062 -0.12036259129135277 0
          1.228532853626835 0.051946288163721044 0 1.1243921687726637 0.00236619283639579 0
          1.3377131138199374 0 0 1.1882562864539628 -0.08760736548054869 0
          1.3392191105864881 -0.003239064383995699 0 1.1040149178426566 0.0339268145056219 0
          1.3272893115013897 0 0 1.2217272749307326 -0.03232517288555439 0
          1.105565328686412 -0.03190839937468227 0 1.237979663272888 0.10015761008275764 0
          1.2291534895107297 -0.05359684534474087 0 1.150088578906478 -0.010646780178021058 0
          1.239277659829145 -0.09674050983732681 0 1.0000000000012759 0 0
          1.0000000000012759 0 0 1.3379296767765951 0 0
          1.0000000000012756 0 0 1.0000000000012759 0 0
          1.0000000000012759 0 0 1.0000000000012759 0 0
          <InformationKey name="L2_NORM_RANGE" location="vtkDataArray" length="2">
            <Value index="0">
              0
            </Value>
            <Value index="1">
              2.1919731646
            </Value>
          </InformationKey>
        </DataArray>
        <DataArray type="Float64" Name="Pressure" format="ascii" RangeMin="0" RangeMax="28.597068709272136">
          0 6.71986819792238 0 9.390806942393228 11.973916685480713 9.41895805715645
          0 14.231830880734288 13.375973608150057 15.606729251712865 6.822600235912396 15.891400950793537
          17.199785952766533 14.28982691664699 15.898416003923588 12.004720196233881 17.646429746188627 18.586412577215455
          17.23763091018589 19.10633330779461 18.843817507667328 18.16466663107621 17.652677651564623 18.754062121576144
          18.158658090064744 17.154936002984183 18.601040926073082 18.390761986902394 19.882881306635717 15.612349720044971
          19.283910060174474 20.474900106214385 18.092443765189884 18.57039496424651 18.74244333266892 18.417656257579946
          18.089076692436482 17.899334342213393 17.803379893228968 19.37424373594749 18.803415753859106 20.456342867768672
          18.516225302277956 18.42428359926465 17.94739345000422 21.609499779689735 19.281396533627028 21.295410643730214
          19.889346739615956 18.569687806958594 20.904689630213944 19.404076907372637 21.712003334068086 19.879281890118815
          21.87067657023674 19.932244168995187 22.568493505666765 20.472876882886638 23.388627182336144 22.2957084044677
          19.063842814870487 21.767404290921203 20.941332991293244 24.38221031967077 23.45353875663419 24.407106733019525
          22.74488294032715 23.85462248217155 18.538728350116873 23.166955861951166 22.602308643239216 20.472560094246454
          24.320275802770112 21.886814973915726 23.853452085215842 21.298274529902308 23.92343922931807 23.160179114597348
          23.90906149217184 23.8458348262939 24.120741680833316 22.745920500417554 24.355982700768713 24.237362629575806
          24.089376673241354 23.84145872931821 22.292631943561044 25.164344823152483 21.63702465199492 24.09284156394196
          25.152651201645345 26.087017576428366 24.334631195352465 26.40189234295193 25.997997282626837 27.668419642688523
          28.595014725520848 24.06742500379753 28.59468884206801 28.597068709272136 28.573519328615752 27.621223750434993
        </DataArray>
      </PointData>
      <CellData>
        <DataArray type="UInt8" Name="vtkGhostType" format="ascii" RangeMin="0" RangeMax="0">
          0 0 0 0 0 0
          0 0 0 0 0 0
          0 0 0 0 0 0
          0 0 0 0 0 0
          0 0 0 0 0 0
          0 0 0 0 0 0
          0 0 0 0 0 0
          0 0 0 0 0 0
          0 0 0 0 0 0
          0 0 0 0 0 0
          0 0 0 0 0 0
          0 0 0 0 0 0
          0 0 0 0 0 0
          0 0 0 0 0 0
          0 0 0 0 0 0
          0 0 0 0 0 0
          0 0 0 0 0 0
          0 0 0 0 0 0
          0 0 0 0 0 0
          0 0 0 0 0 0
          0 0 0 0 0 0
          0 0 0 0 0 0
          0 0 0 0 0 0
          0 0 0 0 0 0
          0 0 0 0 0 0
          0 0 0 0 0 0
          0 0 0 0 0 0
          0 0 0 0 0 0
          0 0
        </DataArray>
        <DataArray type="Float64" Name="Velocity_SGS" NumberOfComponents="3" format="ascii" RangeMin="0" RangeMax="0.14407991687555025">
          6.9116521912462e-310 4.6614824207758e-310 4.6614824207758e-310 0.034182836400604315 -0.026440916129346247 0
          0.03589543985195841 0.020569873416100386 0 0.031945007445591006 -0.02003628141836346 0
          0.035888856987768204 0.0316838681676649 0 -0.011702151568485503 0.056255748027892516 0
          -0.05832962513751668 0.0006651727940318835 0 -0.016249704769004947 -0.061403213870495015 0
          -0.022695916360215757 0.006568571906622238 0 -0.009061384662766486 -0.0299291952743189 0
          0.022145075779384335 -0.06687619798959943 0 0.022694053015203785 0.06448014502057961 0
          -0.012770904902382488 0.02087911099636619 0 -0.03121514370143577 -0.0029587642582348736 0
          -0.046003919461584275 -0.04153832435668134 0 -0.05339344936666171 -0.06516032516998481 0
          0.07733721995106013 -0.02077460653987397 0 -0.033798080637548494 0.02997629917422653 0
          -0.005416731842147901 0.05561645024751213 0 -0.046130706106402186 0.05700576453875755 0
          -0.006590585110741145 -0.05142823535128917 0 0.04468796749315313 -0.04577883068936518 0
          0.08931567186214961 0.02835637292144398 0 -0.044067029875053725 0.060297326326906736 0
          -0.06438006751375905 -0.0002293567025916871 0 -0.06174599702049572 -0.07157438364874456 0
          0.058754934597745355 0.05824689880891701 0 0.08179589679989221 0.04893340655903581 0
          -0.07662413573055982 0.050757258548938776 0 -0.03942852653745502 -0.056530129003197774 0
          -0.10587360280644563 -0.050568158558875795 0 -0.04763964394071722 0.06718976030940066 0
          -0.08004903369638505 -0.05311504057647919 0 -0.00017531954120918875 0.0017353296089061513 0
          0.05425975097277484 -0.08656816040815171 0 0.1421764819169713 0.014691926066027039 0
          0.05815727032768396 0.09405304678011445 0 0.10314009155721626 -0.06484706035673019 0
          -0.1301921571021627 0.061717296408310515 0 0.12042937978575467 -0.01410231039153734 0
          -0.028307671215022562 0.048872545626961555 0 0.016168049117659584 -0.002639653134040571 0
          -0.021602630172569436 -0.03521250513892155 0 -0.006027861478993465 0.06688494168081714 0
          0.015165981526672421 -0.0424349628412226 0 -0.04870444214661042 0.027903670321202004 0
          -0.04324958477575365 -0.023285403472647348 0 0.007961856094452997 -0.06831467388528699 0
          0.009645615629191289 0.05417266217597971 0 -0.006375942019012683 -0.05526397161847861 0
          0.013879355624435059 -0.06762432709625385 0 0.008993230861819773 0.06577715415534861 0
          0.011310745502573775 0.03390280983349332 0 0.016322384618913076 -0.025567943081986875 0
          0.0009340068231888088 0.01930159874448712 0 0.0017096603839573815 -0.027928785854383187 0
          0.002855007481742468 -0.022406865897915407 0 0.018664104838277733 0.0309101398500624 0
          0.018420374499631735 -0.00407635111117182 0 0.0021887864026390643 0.024243567418564715 0
          -0.002406361930996923 0.0009037847733124509 0 0.017325171771701425 0.002360470671657443 0
          -0.015084489911043312 0.036007721355222025 0 -0.014327978907577768 -0.03202019774440153 0
          -0.0159557954304024 0.021237951858486252 0 -0.016847650126415526 -0.021756911688146443 0
          -0.012663044516195434 0.014998747135807152 0 -0.014623319093359437 -0.009640480426223256 0
          -0.0163363564352927 0.009782090664420161 0 0.019330678755413652 0.005729835925810788 0
          0.025753733683179098 -0.00529098410090964 0 0.021703193933170314 -0.006273408852534873 0
          0.0006670322372135818 0.01727267206318271 0 0.02891138411490276 0.006197175568035489 0
          -0.022099101091588243 0.0007303291527253342 0 -0.010863341631187146 -0.013243524792767197 0
          0.024408893097924093 -0.004301686293339413 0 0.025401857504395223 0.005242265451666931 0
          0.0006638784045707082 -0.016505433870499638 0 0.00790359547779455 -0.00557322728903017 0
          -0.014598680643789544 0.008297444406764606 0 0.00629018888578075 -0.00007389400734623139 0
          0.0004020801832065418 0.011641868147059123 0 0.008511482636030908 -0.000680217774246092 0
          0.00027142171249265395 -0.011273891135324508 0 -0.01487008275580154 0.002019546285644397 0
          0.010378707480870174 0.0009174876831163753 0 -0.004923418813477582 0.006180855194771039 0
          0.009257903172067065 0.006691203980266788 0 -0.005584670623402684 -0.0070873611118303466 0
          -0.012016169563861014 -0.007212257894195306 0 -0.013879289259432727 -0.0019004109017139344 0
          0.0017499084633329526 0.008621050702793571 0 -0.005352029260402796 0.006456041406777097 0
          0.003397049749481319 -0.009167351979682874 0 -0.006829036010899147 -0.007853004061848277 0
          -0.007024649099283112 0.0023013602215120987 0 -0.006762072293044485 0.00006787344807656346 0
          -0.0034789456808487196 0.011807402814050794 0 -0.006353517384565229 0.007553382888192095 0
          0.002948802579143257 0.008317741213906226 0 -0.004242531988409863 -0.005313594515034988 0
          0.0013688438744149773 -0.007242279767783245 0 -0.006814666932860996 -0.002022792184162636 0
          -0.00399821898799718 -0.013588737492422807 0 -0.0005720990626799699 -0.0034170635482563775 0
          0.002728417351840431 -0.0002232669944277931 0 0.003104672346685435 -0.000774091603642221 0
          -0.005386906376830447 0.002294779261280823 0 0.003559616294392344 0.0003133464436210319 0
          -0.005564867675148665 -0.0019256079009088278 0 -0.0008891124200638205 0.00385459755085404 0
          0.0029800356724595575 -0.0023702828134025133 0 0.0019436136369498061 -0.0005009862493444877 0
          0.003267067984850721 0.002541842405401326 0 0.007416412681007419 0.01026678955251752 0
          0.007775696352188098 -0.01115752020801636 0 0.0027314802143863027 0.00007794298155086284 0
          0.00039169948198273987 0.0006081403908256139 0 -0.0010683660997301237 -0.0010214463439705845 0
          0.005117620670071458 0.010469070221610123 0 -0.007411126067213255 0.0035606473158589875 0
          0.007810840162030238 0.0017721786854492717 0 -0.002679021677697622 0.00015330207134998334 0
          -0.0018856500499516231 0.0015073939366673631 0 -0.001015798773071634 0.0009745380989884112 0
          0.007492705987746128 -0.0024801252872210947 0 0.005011715396047221 -0.01029801837341784 0
          -0.0018743408286496935 -0.0016017737919444557 0 0.00025484934407544015 -0.0004573850696980231 0
          -0.0063977181278700584 -0.003085202316573014 0 0.005636955860780236 0.00026204429399914324 0
          -0.0043662242593779065 0.002942255177230451 0 -0.004354264647014921 -0.0026591718304251966 0
          -0.0019208853680338159 0.006247846798747385 0 -0.0021927897318764606 -0.006120790438170863 0
          -0.0002603227720622747 0.00320413669569534 0 0.004117147783796524 -0.0015021534445109539 0
          0.0022389206833456085 -0.0012771810187588834 0 0.0004856269104651087 -0.00044164104742718614 0
          0.0006849268742534433 0.0005723506657553568 0 -0.00019792597012869791 -0.0031142073526310558 0
          0.002699762725757084 -0.0015881475706091743 0 0.0008346198687098666 -0.00004221285153637095 0
          0.00028832599477193705 -0.0010952207999405659 0 0.003869770457426823 0.0015314212637885637 0
          0.0025809228026386086 0.001397189937499049 0 -0.0007665927033009021 0.0008540723031616386 0
          -0.0008019661487354755 -0.0005227920872818888 0 -0.0008223486016863739 0.0005085221272662583 0
          -0.0006435866306344446 -0.0008399883188901602 0 -0.0032653011208786734 0.0021318024272891168 0
          -0.002808653084322502 -0.0019802510682746465 0 -0.000663001459998177 0.0007550590207643633 0
          0.0025385284519350917 0.001308606376491448 0 -0.0003765286289849207 -0.0007992552781363267 0
          0.00025069898437758535 0.001182447992807345 0 0.00020979301037308827 -0.00037314689663121126 0
          0.00022111651733311205 0.0004198368891077539 0 0.0002657544948636881 0.0000841166527749929 0
          0.0002841276514966168 -0.00010217809693855424 0 -0.00003693057884287792 0.00013008620358579778 0
          -0.00006261090914759316 -0.0001820753364233846 0 -0.00027970688336325397 0.00003568700369796853 0
          -0.000032796408203912894 -0.000040010983877457314 0 -0.000018026111482630886 0.0000534676758959615 0
          -1.2738199095416137e-7 0.0000036765641719872375 0 -0.00001273938480059661 0.000008282221518262807 0
          0.00006784636764225807 -0.0000015180511610202895 0 0.000002178800041807012 -9.391963959961743e-7 0
          0.000023486876989549657 -0.000006093786651126434 0
          <InformationKey name="L2_NORM_RANGE" location="vtkDataArray" length="2">
            <Value index="0">
              0
            </Value>
            <Value index="1">
              0.14407991688
            </Value>
          </InformationKey>
        </DataArray>
        <DataArray type="Float64" Name="Velocity_SGS2" NumberOfComponents="3" format="ascii" RangeMin="0" RangeMax="0.163481881571802">
          6.9116521912462e-310 4.6614824207758e-310 4.6614824207758e-310 0.03807049598006085 0.02049986583751606 0
          0.14344777706514844 -0.07783623600500196 0 0.1291607953280562 0.07097577245750918 0
          0.037816322765954494 -0.013559720374984163 0 0.1215009007344199 0.03333700930953987 0
          0.043701450757724 0.005648133366206682 0 0.13686801828092635 -0.035941764882405455 0
          0.06701594197413133 0.035510669978212714 0 0.07918677910917202 -0.07742304997283216 0
          0.16239746282745152 0.018798661374235987 0 0.1619781164903678 -0.017242872393797008 0
          0.0739609440622722 0.0707367035440829 0 0.07803460128691267 -0.044320660135170026 0
          -0.10118237892857003 0.004056377159606196 0 -0.10388989288158318 0.010486773920780859 0
          -0.10663105210641885 -0.004392630378710419 0 -0.08033917579613178 -0.005123261029517233 0
          -0.10870687619334732 -0.012027622997880842 0 -0.08614114769686589 -0.007523145911132852 0
          -0.10438969298238719 0.011686334007045288 0 -0.10134362811248152 0.007236968130194879 0
          -0.12583093486411517 -0.00023208662141474545 0 -0.09616836979473987 -0.009228850258195184 0
          -0.08427951219330687 -0.0033411718184307437 0 -0.10157846597684467 0.010785384668751685 0
          -0.1210548852644604 -0.006104776279329441 0 0.03741145232070749 0.000809032347685177 0
          0.07279555779482326 0.017248006762991916 0 0.05026410314363457 0.02088127403089359 0
          0.0635659999823426 0.031099706070545814 0 0.06216271170994276 -0.023139644560933887 0
          0.07974694567932213 -0.017861550725260463 0 0.04948354916545588 0.0011153008931435655 0
          0.066273904436631 0.0036999221332440456 0 0.05549598903386593 -0.011105785305143383 0
          0.07200070103466731 -0.0032615587611262535 0 0.04942532604853865 0.00015372779210701126 0
          0.07854275095324073 -0.034428573526408726 0 0.044283206926001586 0.010348307804648857 0
          -0.08586283307202433 0.04087125496114441 0 -0.08017742746386301 -0.001115701867458959 0
          -0.06722011619218447 -0.033195652784227425 0 -0.06676361362056846 0.03865820881895166 0
          -0.08688629625464514 0.00583081413145192 0 -0.08695014873376838 0.012806866882992726 0
          -0.07443311441835226 -0.013571263502278358 0 -0.05500541295349172 -0.0203901525941547 0
          -0.05715551398215564 -0.0011370837520898805 0 -0.055799476431646844 -0.035395523623287815 0
          -0.06997522126524314 -0.0013325980211485872 0 -0.05431038238030769 0.018541485699540526 0
          -0.06924373602975063 -0.0052909423816970905 0 0.03972450685213091 -0.009327815155625307 0
          0.04162720461508766 0.010866581372591043 0 0.053604891176963765 -0.01185234224668375 0
          0.051302121200585436 -0.011454038932619624 0 0.04857146973004636 0.014463822363728195 0
          0.05119121320679851 0.006234639757201779 0 0.04482348376567019 0.011736821001756194 0
          0.03939027919336223 -0.0016123574395507274 0 0.04355684386186936 -0.00782736975154621 0
          0.04703196238804095 0.009385428344473222 0 0.041250084807706894 -0.007783562268366587 0
          0.04791913257555905 0.01064312861397299 0 0.04976871463825254 -0.010286978900051732 0
          -0.035107172904342315 0.01306058003709075 0 -0.026197679403931723 -0.006092230347595576 0
          -0.033934021763736694 0.008416079129519792 0 -0.031904843566985114 0.0017999458187219317 0
          -0.03808845249009941 -0.0047920194141828805 0 -0.03868573363742615 -0.0028817336425874703 0
          -0.03441453073840784 0.00922431023790167 0 -0.04890324212717492 0.006524340147584393 0
          -0.02648217070980581 0.0004592420432640125 0 -0.02703536042996366 -0.011307111559817284 0
          -0.04552384264985644 -0.0014938134237133076 0 -0.05104365471575091 0.0030753784869003526 0
          -0.0315461107322015 -0.009999305530993506 0 0.021059726540512542 0.0017366164753936028 0
          0.026184675760481068 0.00022482033911358848 0 0.017107873822597083 -0.001068255193779186 0
          0.026618058070534176 0.0026099109998901585 0 0.015542527606898856 -0.0010637486006875065 0
          0.024448612169256353 -0.0017787186557621118 0 0.026619512527083864 0.0017169037850785851 0
          0.01862217795726921 0.0023279626894574697 0 0.01816559651273035 0.005946129641354984 0
          0.02298374652942562 -0.003072512205391776 0 0.021731252819496755 -0.00602234093804197 0
          0.023465675649265157 -0.0015309534646227672 0 0.02566512318223829 -0.0014866583341516604 0
          -0.0168446080303434 0.000256230160256549 0 -0.020956020985052816 0.005865622720673631 0
          -0.021460991669845938 0.006086093119307201 0 -0.01636997915636636 -0.002447278594996386 0
          -0.018077029730443634 0.0028536688493310904 0 -0.006962393123045177 -0.000537586657243112 0
          -0.016583997409642733 -0.0094130987943893 0 -0.01532016886794715 0.0009246980858277085 0
          -0.020394638395473494 -0.006340526062639379 0 -0.016054584474795446 -0.006197213998563248 0
          -0.015414599496803292 -0.00013890950259950064 0 -0.016697657930285183 -0.0016562309864843411 0
          -0.018482389084043826 0.011059694709702927 0 0.011884429794832417 -0.004514755726258725 0
          0.00923571076647901 -0.00047641836972290175 0 -0.005351087697258911 0.005159672859674691 0
          0.03413717575989032 0.009485948702662988 0 -0.0050418538147578495 -0.004629021804817118 0
          0.0386230118647278 -0.008614682081631067 0 0.01322100960445799 0.005375955590495718 0
          0.010687167801897369 -0.00013344059977205783 0 0.00460254972901197 -0.0001643552254583584 0
          0.012990893018721084 -0.0011448282923885071 0 0.006130716383289277 0.012897772408454796 0
          0.009331036795158176 -0.012720053363782017 0 0.009687944130535258 0.001250844364611052 0
          -0.006398485352934213 0.0038239211301530083 0 -0.009282152934991272 -0.0010322885696547688 0
          0.01960130280885247 -0.034406366370276095 0 0.01305109250806472 -0.01741257630166316 0
          0.03693010510884631 -0.011163644180688215 0 -0.008246976751303927 -0.00001724841220980978 0
          -0.008172560781050697 0.001958752275048729 0 -0.0107805948519052 0.002146407741234829 0
          0.035182561699376835 0.0120983899500046 0 0.01943205860983829 0.030087859805667378 0
          -0.009528196971940933 -0.0033207456977154635 0 -0.0062977001757470105 -0.0039627422129908645 0
          0.0119744877410504 0.016438469138405163 0 -0.01225904468666403 0.0002178000584433566 0
          -0.03244985411232988 -0.017256707963819704 0 -0.038833149812622744 0.017247971635890695 0
          0.0004389374367565462 0.029449704427862378 0 -0.0009397642264116334 -0.02537226920332036 0
          -0.02857661948720324 -0.05054113891145222 0 -0.0171121864168258 -0.04357437291458061 0
          -0.0013994950075041568 0.0069973307108598054 0 0.004130503001636954 0.002161368704972156 0
          0.006960563992726298 -0.0025250181671455977 0 -0.028041624414646478 0.05181882328529645 0
          0.05487376985740007 0.0157613670810762 0 0.0036635843621299308 -0.00035045404252559865 0
          -0.00022328951328018137 0.0006938765886450784 0 -0.01874058068038036 0.04488130380645002 0
          0.04686125383493529 -0.014814091451004813 0 -0.0025068813909074625 -0.0019827577455229454 0
          -0.004852062332145085 0.0011419523828045293 0 -0.004982335252306538 0.00011181271809721947 0
          -0.0005845521039073774 0.0023523249502079213 0 -0.026756696867189587 0.024527561193757406 0
          -0.023622603348343946 -0.022003121875812225 0 0.0032498294161121648 0.004262876199581177 0
          -0.0012544983007220572 -0.007580576459782017 0 0.0019733614712988774 -0.004372466180299285 0
          -0.00009400909125469156 0.0002731380896311777 0 0.0020716385376451777 -0.00027134336080892056 0
          0.001260871724057745 -0.0009226843550618232 0 0.0014173806837684487 0.0010503161298503667 0
          0.0017056678862694065 -0.0006196629741004093 0 -0.0011260232999618653 0.00013129497564749154 0
          -0.002563709043408608 -0.0011233669561521928 0 -0.0016133332315697926 -0.00007702459069159413 0
          -0.0008854349326787923 -0.0011337583455666663 0 0.0010599349215092266 0.001426594116941682 0
          0.0005376686060119624 0.0005673856253425372 0 0.0004234051724660611 -0.00013633785563629315 0
          0.0013352920991041809 0.00026523225134245624 0 0.000239285235585249 -0.00015083384536822828 0
          -0.0005329277191615943 -0.0003224853797699681 0
          <InformationKey name="L2_NORM_RANGE" location="vtkDataArray" length="2">
            <Value index="0">
              0
            </Value>
            <Value index="1">
              0.16348188157
            </Value>
          </InformationKey>
        </DataArray>
      </CellData>
      <Points>
        <DataArray type="Float32" Name="Points" NumberOfComponents="3" format="ascii" RangeMin="0.6427936553955078" RangeMax="16.492422502470642">
          16 4 0 12.337202072143555 4 0
          16 0.003336417954415083 0 10.910933494567871 1.458586573600769 0
          9.447426795959473 4 0 10.919631958007812 -1.4520937204360962 0
          16 -4 0 8.143135070800781 2.174484968185425 0
          8.679097175598145 9.383152033137776e-10 0 7.336548328399658 4 0
          12.337202072143555 -4 0 7.150442123413086 0.7765142917633057 0
          6.3641791343688965 2.4112002849578857 0 8.143135070800781 -2.174484968185425 0
          7.150442123413086 -0.7765142917633057 0 9.447426795959473 -4 0
          5.989655017852783 1.044251561164856 0 5.502410888671875 4 0
          6.247039794921875 6.469296209843378e-10 0 5.150596618652344 3.0338735580444336 0
          5.276463985443115 1.8492776155471802 0 5.507872104644775 0.3716571033000946 0
          5.989655017852783 -1.044251561164856 0 5.1624369621276855 1.0298291444778442 0
          5.507872104644775 -0.3716571033000946 0 6.3641791343688965 -2.4112002849578857 0
          4.9475250244140625 0.49729952216148376 0 5.070098400115967 2.759303896482379e-10 0
          4.550701141357422 1.4520796537399292 0 7.336548328399658 -4 0
          4.607885360717773 0.8806737661361694 0 4.277002811431885 2.345876455307007 0
          4.712680339813232 0.1756599098443985 0 4.9475250244140625 -0.49729955196380615 0
          5.1624369621276855 -1.0298291444778442 0 4.549413681030273 0.4867381453514099 0
          4.712680339813232 -0.1756599098443985 0 4.442728042602539 0.2323615849018097 0
          4.5 0 0 4.260283470153809 0.6863105893135071 0
          5.276463985443115 -1.8492777347564697 0 4.12898588180542 1.0622961521148682 0
          4.284032344818115 0.41149193048477173 0 4.549413681030273 -0.4867381453514099 0
          4.442728042602539 -0.2323615849018097 0 3.668274164199829 4 0
          4.607885360717773 -0.8806737661361694 0 3.8128066062927246 1.5416762828826904 0
          4.060268402099609 0.49635443091392517 0 4.284032344818115 -0.41149193048477173 0
          3.911525011062622 0.7286574840545654 0 4.260283470153809 -0.6863105893135071 0
          3.822697639465332 0.46750810742378235 0 4.550701141357422 -1.4520796537399292 0
          3.620537757873535 1.0005594491958618 0 4.060268402099609 -0.49635443091392517 0
          3.5830352306365967 0.6040777564048767 0 4.12898588180542 -1.0622961521148682 0
          3.625744581222534 0.3315613269805908 0 3.2031748294830322 2.1983518600463867 0
          5.150596618652344 -3.0338735580444336 0 3.822697639465332 -0.46750810742378235 0
          3.911525011062622 -0.7286574840545654 0 3.51452898979187 0.11965782940387726 0
          3.625744581222534 -0.3315613269805908 0 3.51452898979187 -0.11965782940387726 0
          3.117795705795288 1.2780934572219849 0 3.350067138671875 0.34111109375953674 0
          5.502410888671875 -4 0 3.1990199089050293 0.7096065282821655 0
          3.5830352306365967 -0.6040777564048767 0 4.277002811431885 -2.345923662185669 0
          3.265990734100342 8.508456161848699e-10 0 3.620537757873535 -1.0005594491958618 0
          3.350067138671875 -0.34111109375953674 0 3.8128066062927246 -1.5416762828826904 0
          2.960996627807617 0.25609132647514343 0 3.1990199089050293 -0.7096065282821655 0
          2.960996627807617 -0.25609132647514343 0 2.624887228012085 0.7217148542404175 0
          2.318066358566284 1.490063190460205 0 3.117795705795288 -1.2780934572219849 0
          2.0251002311706543 2.550624370574951 0 2.447000503540039 1.945336336461878e-9 0
          1.8341370820999146 4 0 2.624887228012085 -0.7217148542404175 0
          3.2031748294830322 -2.198634147644043 0 1.8182549476623535 0.5377518534660339 0
          3.668274164199829 -4 0 2.318066358566284 -1.490063190460205 0
          1.8182549476623535 -0.5377518534660339 0 1.1527822017669678 1.237666130065918 0
          2.0251002311706543 -2.5523180961608887 0 0.9903457164764404 -0.0066452063620090485 0
          1.1919611692428589 -1.2461633682250977 0 0 4 0
          0 2.204763412475586 0 1.8341370820999146 -4 0
          0 0.6427936553955078 0 0 -0.6752752065658569 0
          0 -2.2149267196655273 0 0 -4 0
          <InformationKey name="L2_NORM_RANGE" location="vtkDataArray" length="2">
            <Value index="0">
              0.6427936554
            </Value>