<?xml version="1.0"?>
<VTKFile type="UnstructuredGrid" version="0.1" byte_order="LittleEndian" header_type="UInt32" compressor="vtkZLibDataCompressor">
  <UnstructuredGrid>
    <Piece NumberOfPoints="102" NumberOfCells="170">
      <PointData>
        <DataArray type="Float64" Name="Velocity" NumberOfComponents="3" format="ascii" RangeMin="0" RangeMax="1.7577542669966961">
          1.0002367680681536 0 0 1.000422652796836 0 0
          1.0000347129628941 -0.0000012042252977793421 0 0.999861885415391 -0.0008509641470571188 0
          1.0024747102483398 0 0 0.9998471893799687 0.0008198148354495881 0
          1.0002180233453026 0 0 1.0023093350271421 -0.006517992427955851 0
          0.9952821563541423 -0.00003098884839399375 0 1.0116937509395414 0 0
          1.0004101086563817 0 0 0.9877885396640546 -0.013518326143747207 0
          1.0130553094096837 -0.020044750252047393 0 1.0022151486952953 0.006447894263110364 0
          0.9877889552753073 0.013386239626389983 0 1.0024177143998505 0 0
          0.9845634875037171 -0.04651790325279954 0 1.0417621637395804 0 0
          0.9556872673513173 -0.000036102088063445114 0 1.0498590171386655 -0.021679001772790932 0
          1.036232654803947 -0.04752312976170916 0 0.9077008787556567 -0.058344789809148194 0
          0.9847865399693244 0.046329645693202366 0 1.0054909197096176 -0.11928235162289073 0
          0.9081689362783777 0.058597230792738396 0 1.0130480103688306 0.019952907309802093 0
          0.8816127908405154 -0.21824568783057222 0 0.7477507729658283 0.001177514315199049 0
          1.1051425217010757 -0.07509536927098541 0 1.0116115908043617 0 0
          1.1043987544816514 -0.20853440700975423 0 1.067986100697337 -0.021952042192487725 0
          0.5518494134519635 -0.30624330066876915 0 0.8850807651885143 0.21626634783981524 0
          1.0056767622957115 0.11973314997132885 0 1.0938161856328974 -0.6082436069754921 0
          0.5532778207887142 0.31595491257674674 0 0 0 0
          0 0 0 1.6382223735239616 -0.3522497802784313 0
          1.0369073080819915 0.04704235932715422 0 1.196127436451799 -0.03898752999892523 0
          0 0 0 1.0945343847784197 0.6078998710841864 0
          0 0 0 1.0659656188462379 0 0
          1.107434380494313 0.2062338443952659 0 1.1199559343862802 0.01948988522921071 0
          0 0 0 0 0 0
          1.745386467653322 0.20814932543189243 0 1.6413451634114111 0.3477402238320781 0
          0 0 0 1.105721984269125 0.07491213422381078 0
          1.1123189904357649 0.12901017383353117 0 0 0 0
          1.3513441282518186 0.5920948416307869 0 1.1974735807060193 0.03664679545988757 0
          0 0 0 1.0683470334654437 -0.007517374117754286 0
          1.0492208933312914 0.021293411383352792 0 0 0 0
          1.7448353453958045 -0.21176057621043112 0 0 0 0
          0 0 0 0 0 0
          1.0491349207353613 0.0882629832596112 0 0.8076986941159879 0.49368852462362733 0
          1.0414834400516497 0 0 0.930996272370171 0.18126605317759084 0
          1.350931357547612 -0.5927282376180731 0 1.0689387004719604 0.020330475406179944 0
          0.5582136549315642 0.006891648580968449 0 1.110746065983227 -0.13189403978656486 0
          0.8066552884842311 -0.49136882952156646 0 1.1200188721226365 -0.019918536549809886 0
          0.7803591489447385 0.08304875466398431 0 0.9256090924024882 -0.18173253661175273 0
          0.777658274479252 -0.08391264526280277 0 0.9461043064540346 0.0673823742254154 0
          0.9649701759426221 -0.011135248004395679 0 1.0479246991049431 -0.0876173871768227 0
          0.9519086629394887 0.024369063257651858 0 0.8986113711661035 0.0004344009432244226 0
          1.033381533373222 0 0 0.945995269981023 -0.06794759139185985 0
          1.0671339738732613 0.003651145011904384 0 0.8775789507069581 0.012319788044436788 0
          1.0651506025878665 0 0 0.9665409458741064 0.012500301764877132 0
          0.8802135522048838 -0.010148712521852506 0 0.9452211683801031 0.09224902584664123 0
          0.9562676857717737 -0.024489906165434814 0 0.8791733478483794 0.0007958115120938875 0
          0.9416089141655325 -0.09483712356766344 0 1.0000000000011917 0 0
          1.0000000000011917 0 0 1.0266049108128308 0 0
          1.0000000000011915 0 0 1.0000000000011917 0 0
          1.0000000000011917 0 0 1.0000000000011917 0 0
          <InformationKey name="L2_NORM_RANGE" location="vtkDataArray" length="2">
            <Value index="0">
              0
            </Value>
            <Value index="1">
              1.757754267
            </Value>
          </InformationKey>
        </DataArray>
        <DataArray type="Float64" Name="Pressure" format="ascii" RangeMin="0" RangeMax="78.63581759387458">
          0 18.31471066499025 0 25.440102229536596 32.780862261428275 25.39623197482745
          0 39.28394812142972 36.56753942745537 43.41141710343572 18.31437967322104 44.14823418716877
          48.257260125125505 39.28246109672428 44.14605442272726 32.779976214817836 49.876376163010434 52.78380241834698
          48.490094134231754 54.568915910090745 53.71069833808785 51.93433631452152 49.872293468632094 53.90053446320436
          51.92964610649663 48.25455569696891 54.40105611086694 53.62562540554256 57.41557467630651 43.4100175638545
          56.56930562105988 59.13553850528877 54.6831183258276 54.390181118650275 53.89931251398901 55.93955209431854
          54.679448202218104 55.42780881523332 54.85059690055414 58.27357745247479 53.711419459636645 59.68876275559808
          57.13649936367726 55.94933815957623 55.44755339322005 62.583264410207846 56.57937646343257 61.66635722880357
          59.69253834105849 57.17254884274239 61.193632309075575 58.305177020608284 62.50226804023258 57.42733336711179
          63.03712550458459 59.734749043591314 63.99228339441874 59.71473033345938 64.86153321590209 64.92054719635607
          54.567130953672844 62.545479807686974 61.23044075264398 66.19403531693828 64.89368798335589 66.20137880952689
          65.65512215624611 65.98508114427409 52.78166603910897 65.81753150595374 64.01674415089806 59.14281944793929
          66.69520616488889 63.05745073571944 65.9851476511765 61.681692741957605 67.37207441468519 65.81679374710471
          67.36430436633216 68.44784533376114 69.7196881092823 65.661640964136 71.12395543600199 69.42774574929574
          71.81384677348848 68.44354013032708 64.9289873963581 72.28770993252601 62.573204351865876 69.7089023509959
          72.27984698699682 75.11715738263462 71.12763275572944 75.9102799107877 74.95676757925803 76.9802182941592
          78.40440482100223 71.814804831466 78.63581759387458 78.61848973498788 78.40535282353659 77.02451629839433
        </DataArray>
      </PointData>
      <CellData>
        <DataArray type="UInt8" Name="vtkGhostType" format="ascii" RangeMin="0" RangeMax="0">
          0 0 0 0 0 0
          0 0 0 0 0 0
          0 0 0 0 0 0
          0 0 0 0 0 0
          0 0 0 0 0 0
          0 0 0 0 0 0
          0 0 0 0 0 0
          0 0 0 0 0 0
          0 0 0 0 0 0
          0 0 0 0 0 0
          0 0 0 0 0 0
          0 0 0 0 0 0
          0 0 0 0 0 0
          0 0 0 0 0 0
          0 0 0 0 0 0
          0 0 0 0 0 0
          0 0 0 0 0 0
          0 0 0 0 0 0
          0 0 0 0 0 0
          0 0 0 0 0 0
          0 0 0 0 0 0
          0 0 0 0 0 0
          0 0 0 0 0 0
          0 0 0 0 0 0
          0 0 0 0 0 0
          0 0 0 0 0 0
          0 0 0 0 0 0
          0 0 0 0 0 0
          0 0
        </DataArray>
        <DataArray type="Float64" Name="Velocity_SGS" NumberOfComponents="3" format="ascii" RangeMin="0" RangeMax="0.08413380515051429">
          6.91165219126753e-310 4.66148113734187e-310 4.66148113734187e-310 0.02006940139091907 -0.013264607918405606 0
          0.020020707479200185 0.01137191644028881 0 0.017362732754912603 -0.011215107464744536 0
          0.020384138710593726 0.015495957226730826 0 -0.012546865161144116 0.03162722618206194 0
          -0.028662501331374556 0.0001672588666252645 0 -0.014355061590110102 -0.03334800659655005 0
          -0.011870385854378475 -0.00045184216256743265 0 -0.004590396378469419 -0.015698775380475177 0
          0.0098185581410294 -0.03865020688617826 0 0.010110713689738055 0.038606207412668285 0
          -0.006615909818241852 0.012022459789169986 0 -0.015670298693692436 0.0022717050799600305 0
          -0.04410127471507415 -0.02729830902114388 0 -0.01952800043417211 -0.03817570998033844 0
          0.05089057413012693 -0.01351750829285669 0 -0.036274679577596156 0.02187949994366399 0
          0.013142482151822732 0.03568186731950824 0 -0.03160742200377816 0.03544719494857283 0
          0.01142400426769038 -0.032959558590895624 0 0.03728984147239664 -0.02949160772021964 0
          0.05647453393592734 0.016268896221955383 0 -0.017373209402706043 0.03649455586140997 0
          -0.04640992494281436 -0.0002510612948079423 0 -0.03860610717686998 -0.04167309427368107 0
          0.04605183239721819 0.03581552863347856 0 0.04884880517529232 0.03695452055696304 0
          -0.05269275892006593 0.028752268487408413 0 -0.02559722538432197 -0.030170643708248387 0
          -0.06475391293415136 -0.02922234626642854 0 -0.028807942287937552 0.03390406675096432 0
          -0.05592683544484266 -0.030596326493606406 0 0.008749853350087856 0.0004923413678446153 0
          0.024779185777784464 -0.052626621614284975 0 0.08394920552283171 0.005570283762077629 0
          0.0258644529637701 0.054839623516633046 0 0.058153791221132914 -0.04473157950257107 0
          -0.07629668833477846 0.034646372027839246 0 0.0741607207128014 -0.005383100383788123 0
          -0.008504313783276141 0.03322473204025447 0 0.005949424422018306 -0.0006837133648885411 0
          -0.006805194955520203 -0.02720937417606883 0 0.0005835645998750541 0.040523240857819956 0
          0.00443389104715633 -0.024523835812667344 0 -0.017895057687618558 0.014021454011191288 0
          -0.01647441572926294 -0.012179817669524322 0 0.0023825860379145525 -0.03985674924449749 0
          0.0014298317656215587 0.0329795640332615 0 0.00026197458866974955 -0.03564826963345776 0
          0.0021352060489178027 -0.03889389505662427 0 0.0025838512159936915 0.038266301242205675 0
          0.0037124662493664426 0.020967607658216075 0 0.0007064672632336403 -0.013901960515398607 0
          0.002314007613154154 0.011463473533027334 0 0.0040803965655169 -0.01608924911386063 0
          0.0028690460168262783 -0.012833527860833305 0 0.0006329549148617738 0.01586066446887219 0
          0.004632192502065146 0.003932352004405164 0 0.0037759690014306704 0.014540681989262984 0
          0.0004023921622728771 0.000270307486537222 0 0.004510402399656673 -0.004059157440768127 0
          -0.006605429053406092 0.016257287359524277 0 -0.006310194045160142 -0.014981950759325813 0
          -0.0025825837885570828 0.0115132182984981 0 -0.0028422227002389703 -0.011921157121423972 0
          -0.009340731478037979 0.002725382815647399 0 -0.008153890129986874 0.00043128839325739556 0
          -0.008746660173243884 -0.0007087666597938094 0 0.008841286749294174 0.0015584103528028144 0
          0.012699559510437154 -0.004704579657041086 0 0.009723794561006947 -0.0015692716505902847 0
          -0.0020901566375164976 0.0072228037527222195 0 0.014114372522396763 0.00512691702857446 0
          -0.007391116209074298 0.000016015334122585802 0 -0.008233800535886527 -0.0025814499008726057 0
          0.011751883130110712 -0.0033374381849478807 0 0.012327368335147307 0.0036612367566523376 0
          -0.002159120344648282 -0.006905126441987689 0 0.0061258322884127055 -0.0012556206713304127 0
          -0.006088536437119352 0.0056287935121574605 0 0.0029402691673822367 0.00003215178817076597 0
          -0.00036552524169546313 0.004841178643307258 0 0.004187594371716792 0.0016141130867942549 0
          -0.0002226613401467945 -0.004611802675769196 0 -0.006625151095966792 0.0021107323328984316 0
          0.004702199621164427 -0.001668681565626524 0 -0.0029285883537216286 0.0042352601263657965 0
          0.006894566771911243 0.00139729529945348 0 -0.003438957865624199 -0.004693131684771817 0
          -0.00545203558413563 -0.0050836385265939565 0 -0.00656821795380384 -0.002042918172837061 0
          0.0003189795122380644 0.0036377949077659446 0 -0.0015089394015301916 0.0033333501617123363 0
          0.0022709264640555066 -0.004363844641732529 0 -0.000979552669350962 -0.005631586175577955 0
          -0.0027419493193652986 0.0012553706221093634 0 -0.0005495076089732586 -0.0000284862819342266 0
          -0.0007339441518014543 0.00832459063700609 0 -0.0006542563215461564 0.005529577654186692 0
          0.00197587116804967 0.004012330598334826 0 -0.001334047129509825 -0.0029479552677471187 0
          0.0002697753645022104 -0.0032818764227763517 0 -0.0026347958473027762 -0.0011737291373931304 0
          -0.0010197386536260507 -0.009050138492820095 0 -0.0016155893607301573 -0.0016707520738695454 0
          0.0008770368169330882 -0.0003439030666402625 0 0.0034913836039533984 -0.0007499476417134731 0
          -0.003406345905357396 0.00024344514118497702 0 0.0037759417312194865 0.0005472024343483925 0
          -0.003204001919758057 0.00017888101206956929 0 -0.0018658224053338505 0.0017774407838140127 0
          0.0013909650509172562 -0.001043892908718634 0 -0.0010103839365240754 0.00021854228208757052 0
          0.001481650400606193 0.0011038363247820276 0 0.001769206150998356 0.006753707255003407 0
          0.0014003504714524126 -0.007785089734158154 0 0.0009027175601831313 0.00033170101055455837 0
          0.0007481965319863634 0.00025565437931706714 0 -0.0005575268899808521 -0.0002901378917280899 0
          -0.0022539629475921822 0.007304906486072864 0 -0.00527721395745547 0.0013891061468825176 0
          -0.0038779473914679267 0.0018991280970281754 0 -0.0010439950906788985 -1.9344141581454808e-7 0
          -0.0009611477540312851 0.00038146033076065283 0 -0.0006538944564201599 0.0003038926830858968 0
          -0.004040827600580521 -0.001821160974787417 0 -0.0023626418120944676 -0.007549957054200031 0
          -0.0009248762318031484 -0.0003741362297743937 0 0.0005576302981089407 -0.0001983012520314622 0
          -0.004632341186298064 -0.0011868508583502742 0 0.004008738078938217 -0.0003421997327020237 0
          0.0027836330466442668 0.0016710772434840745 0 0.0031550183841222586 -0.0016455957238223733 0
          0.0010635489545427852 0.004425788094426986 0 0.0009666010368689446 -0.0038601836672065505 0
          0.0026002086560688712 0.0017622713590033996 0 0.0043306857658880074 -0.0002269811546893081 0
          0.0005434284033068202 -0.0006432842451686383 0 0.0003284483929210264 -0.000137091972456777 0
          0.00033641298324395437 0.00015087255752386407 0 0.002603405317372509 -0.0017957665139000365 0
          -0.0030561034415590126 -0.0010141051289431749 0 0.0003656218645552435 0.0000011363687754565124 0
          -0.00009975467832553509 -0.00045628199831584016 0 0.0041102096716420814 0.00015695687173750345 0
          -0.0031474615496445914 0.0009757222642982585 0 -0.00015892935464102622 0.0003732431186058482 0
          -0.00031182083688147306 -0.000295585099157595 0 -0.0003202699979791742 0.00030043876405569056 0
          -0.00016742758274593988 -0.0003755051490135269 0 -0.001563299281450362 0.0010016262413151172 0
          -0.001196317825215142 -0.0009694222297603976 0 0.001184763175303556 0.00027132917104278763 0
          0.00047101859883445644 0.0006197901249806789 0 0.0012651266939539263 -0.0002828779625988694 0
          -0.000117067124736712 0.0004863890848592138 0 0.00009946673963985814 -0.00018248821970893113 0
          0.00010607710423240617 0.0001878231467446309 0 0.00008482138933985453 0.00005588052620938513 0
          0.00008174573746225939 -0.00005595399903243164 0 -0.000039031190987867495 0.00006734801565823169 0
          -0.000036379436595330844 -0.00006603086825600117 0 -0.00008826168575537801 1.1161458945005423e-7 0
          0.000009546888225129108 -0.00002119128237061548 0 0.000009462266326535768 0.00002278527709498377 0
          -0.000005809462235740049 0.0000062424012328509665 0 -0.000005826889244069261 -0.000006365765571532867 0
          0.000011594874533728738 1.6730576802579282e-7 0 8.18426489003574e-8 -5.861460934833598e-7 0
          4.4626005840419907e-8 6.619389496058008e-7 0
          <InformationKey name="L2_NORM_RANGE" location="vtkDataArray" length="2">
            <Value index="0">
              0
            </Value>
            <Value index="1">
              0.084133805151
            </Value>
          </InformationKey>
        </DataArray>
        <DataArray type="Float64" Name="Velocity_SGS2" NumberOfComponents="3" format="ascii" RangeMin="0" RangeMax="0.14288413379619766">
          6.9116521912525e-310 6.9116521912525e-310 4.6614824199616e-310 0.03851256849057385 0.027708570970152648 0
          0.11769828885364056 -0.05999385128101033 0 0.10987220456461663 0.0559130630189697 0
          0.03921700500500994 -0.02775761417828586 0 0.1221417422603195 0.03523982414730542 0
          0.03344933336774972 0.0011582304386837173 0 0.1294677478991904 -0.03680976634453261 0
          0.07675142240314017 0.05182525918408112 0 0.06383889802745449 -0.05949352723182532 0
          0.1411219791086561 0.014139103138714705 0 0.1422345195363875 -0.013609450501130502 0
          0.06025020868384222 0.054811973422803445 0 0.08357412881713372 -0.05768831368299517 0
          -0.1165740744057148 0.012024989799829279 0 -0.09276467896195947 0.003469675012466769 0
          -0.11044513266001851 -0.00667302340987376 0 -0.09877099335048323 -0.009605900186478174 0
          -0.09772865941615586 0.0034180066769907286 0 -0.08991150005859147 -0.008315905640352478 0
          -0.09259278775505791 -0.0028885322837871093 0 -0.09828281330659931 -0.006691717104786173 0
          -0.12360502298793807 0.006091384223388115 0 -0.08940868958721909 -0.0035852990138434473 0
          -0.1130379310408621 -0.0011869393273066867 0 -0.10150003437944899 0.011467952019211972 0
          -0.11449408038144032 0.01025068864459535 0 0.05069523575392323 0.007232627103665755 0
          0.0630889757999773 0.008065010819284759 0 0.053268978117336496 0.009722137163517972 0
          0.05800160153593184 0.014987409783689079 0 0.06062540683046903 -0.010302231593652223 0
          0.0681637463246126 -0.00817638061430034 0 0.05560666811869379 -0.000024514502729864522 0
          0.06212798777101651 0.0029366889279942524 0 0.061633153779024785 -0.009147976169862109 0
          0.06471297195959944 -0.0025605221704071467 0 0.06034469437793867 -0.007178991961078695 0
          0.06796608134436939 -0.01610006227985918 0 0.053655236268367774 0.008666109093127528 0
          -0.06196503672698306 0.015086904537674774 0 -0.05796606004603591 -0.0004960430945284977 0
          -0.051807622021814714 -0.013213015039210758 0 -0.05102967780579502 0.012443161686913146 0
          -0.06280304158444774 0.004619186248334948 0 -0.06287593145428058 0.004982180144475963 0
          -0.056717372864213966 -0.005223587702366882 0 -0.046253351340485756 -0.0029763343327018563 0
          -0.04827679106202717 -0.005681467871184655 0 -0.045111290309053836 -0.012319663435104749 0
          -0.05652917551886354 0.005242943693875079 0 -0.04484059833914907 0.0019315070257088437 0
          -0.053898476933356185 -0.004422839864120211 0 0.03301194174877291 0.0014554407892051636 0
          0.031936820139823185 0.008152546118979044 0 0.04185523833630421 -0.005930033295667521 0
          0.03661198567225922 -0.008638903603480207 0 0.03786699684545134 -0.0005704095469245968 0
          0.033696501150500685 -0.000826638905202336 0 0.037006203951112225 0.005972444902469891 0
          0.02692295645720228 -0.0005705849552952533 0 0.03076656619708817 0.00007655267541000453 0
          0.03850593702147566 -0.0007748785154192538 0 0.03560994929297183 0.001157719127695668 0
          0.03905631031711965 0.0029268867017972202 0 0.040013440395806774 -0.002665785392149359 0
          -0.028877318132093238 0.006304804082335476 0 -0.025462017105607603 -0.003065134639818362 0
          -0.029428755711473478 0.003853373286915445 0 -0.025696196471020463 -0.0027937327282470297 0
          -0.027573621488410298 -0.002755648442024505 0 -0.029192361447102723 0.002460087995456429 0
          -0.02686954552327019 0.002216697709353581 0 -0.03286314387766493 0.003455675874283644 0
          -0.027178689065497228 0.0001332153695335781 0 -0.02466076373315612 -0.005831598235611 0
          -0.02913900954223983 0.0002746573440384169 0 -0.03175238886773134 0.0005291375903662297 0
          -0.02562269453370704 -0.002993621228024496 0 0.017563884342963545 0.0029272795714039342 0
          0.020476810896533033 -0.005801091003908479 0 0.014432022403146864 -0.00023723417191168217 0
          0.02346484233426934 0.00012784718322681908 0 0.01497255893504709 0.001724957029455668 0
          0.022804882650348076 0.00009273465537250813 0 0.014051123051525298 -0.0018852427560425771 0
          0.016296784672529423 -0.0018590172124799903 0 0.017167406495773124 0.00012594528205944235 0
          0.01914334716214835 -0.003015277163834049 0 0.018743447698178105 0.0003400202171297863 0
          0.019179135717762513 0.004891602456286118 0 0.014007782128203293 0.0015144473197510394 0
          -0.01222130683015694 0.0007147268594529669 0 -0.017884839536369504 0.003311195335335188 0
          -0.013888736918601308 0.004923245519599297 0 -0.02672979979338176 0.0011354160668162246 0
          -0.016206501398466786 0.00165229261166073 0 -0.018700927387496416 -0.0007476314074131587 0
          -0.022393112626798425 -0.011269913908498307 0 -0.02617672584609237 -0.001949045586805173 0
          -0.013106502363639904 -0.004748102677848955 0 -0.01597611787354741 -0.0031306312192756324 0
          -0.01102607481966747 -0.0007701356269575338 0 -0.015443865818974261 -0.0015054548785177445 0
          -0.02372031245479571 0.01263420818034822 0 0.015096378511354936 -0.0020644211348782335 0
          0.007882834399282833 0.0005552726072610942 0 -0.009951837080025403 0.002682436587983936 0
          0.036456662943436115 0.0032649092540794006 0 -0.009996006658677125 -0.002887528360914186 0
          0.03833119425866989 -0.0018838587139402185 0 0.016140748094801455 0.0024326458425197265 0
          0.009639746738345938 0.0008175798368224713 0 0.012682754100671177 -0.00019624369190041242 0
          0.010461608310043695 -0.0007374055251886721 0 0.012805838688731676 0.008555233798645073 0
          0.016200819222072546 -0.007589740232520296 0 0.008235265571784866 -0.0007030131364565353 0
          -0.012725262488099156 0.001952069025812337 0 -0.008003442597465901 -0.0029299191844741855 0
          0.04005143031968872 -0.04906937123343156 0 0.011593138478363189 -0.007826009103302646 0
          0.07790515124426525 -0.01867742236717567 0 -0.0075318291788781305 0.00001963840440606787 0
          -0.008500929616563124 0.0017349735624026 0 -0.00866658027964835 0.0030137066258786446 0
          0.077089188652007 0.021374780061844317 0 0.040423027220769084 0.04529977333020034 0
          -0.0079128770218245 -0.0015986785837636018 0 -0.01161281024156528 -0.0020392713175116156 0
          0.011538506210145585 0.007155380430594787 0 -0.018728131908992626 -0.0000928239566730775 0
          -0.05545941217247772 -0.0211047928523199 0 -0.0598809447939016 0.01911945060625085 0
          0.0008260732793913018 0.030414144466466154 0 -0.0013361403804834776 -0.02684633717306282 0
          -0.046163317621829014 -0.0778643672831488 0 -0.03258072106992202 -0.05923274752718362 0
          0.004185968025210216 0.007828363906667173 0 0.004402886020585492 0.003734037002825762 0
          0.004586523792454388 -0.003870550758038072 0 -0.04578757684937161 0.07998044876697993 0
          0.0912296236341957 0.009199358382847321 0 0.0026330917503532506 -0.00006301930982604664 0
          0.0006970474912877732 0.0014752614934175987 0 -0.03511745279222048 0.05923440793992092 0
          0.08651415500916095 -0.008865272668110599 0 -0.0012046774125848581 -0.0038954521295632913 0
          -0.0036297898564307722 0.0007843098060259454 0 -0.0037327611180171085 -0.0007611092929837196 0
          -0.0011676468279614757 0.003984047935069 0 -0.030334912227117886 0.025107192676143843 0
          -0.027958734384789158 -0.02321411781963548 0 -0.004987979770292344 0.0024189487456896352 0
          0.0044197966575091775 -0.007774795634496766 0 -0.004837681049763015 -0.002217131037156083 0
          0.0006787690345839859 -0.0015937670768840979 0 0.0010313852991187917 0.0010523223098429435 0
          0.0010497640866201695 -0.001088276793317807 0 0.0008376987655901246 -0.0011778820915973544 0
          0.000822741298539122 0.0011300326282891577 0 -0.0009090303238275071 -0.001089012866182665 0
          -0.0008666906110929922 0.0010521672160971516 0 -0.0005128775047609159 0.00000902938405878892 0
          0.00032750021758790043 0.000027794905820731857 0 0.00034578905583426385 -0.00003958367891285583 0
          -0.00011266237588675919 -0.00004739490618625441 0 -0.00011384450627075008 0.000054605944101310825 0
          0.0001256970964104171 -0.0000051215936973823995 0 0.0000028738405185674436 -0.00003082660304901852 0
          0.000004188027878552597 0.000030787973978551906 0
          <InformationKey name="L2_NORM_RANGE" location="vtkDataArray" length="2">
            <Value index="0">
              0
            </Value>
            <Value index="1">
              0.1428841338
            </Value>
          </InformationKey>
        </DataArray>
      </CellData>
      <Points>
        <DataArray type="Float32" Name="Points" NumberOfComponents="3" format="ascii" RangeMin="0.6427936553955078" RangeMax="16.492422502470642">
          16 4 0 12.337202072143555 4 0
          16 0.003336417954415083 0 10.910933494567871 1.458586573600769 0
          9.447426795959473 4 0 10.919631958007812 -1.4520937204360962 0
          16 -4 0 8.143135070800781 2.174484968185425 0
          8.679097175598145 9.383152033137776e-10 0 7.336548328399658 4 0
          12.337202072143555 -4 0 7.150442123413086 0.7765142917633057 0
          6.3641791343688965 2.4112002849578857 0 8.143135070800781 -2.174484968185425 0
          7.150442123413086 -0.7765142917633057 0 9.447426795959473 -4 0
          5.989655017852783 1.044251561164856 0 5.502410888671875 4 0
          6.247039794921875 6.469296209843378e-10 0 5.150596618652344 3.0338735580444336 0
          5.276463985443115 1.8492776155471802 0 5.507872104644775 0.3716571033000946 0
          5.989655017852783 -1.044251561164856 0 5.1624369621276855 1.0298291444778442 0
          5.507872104644775 -0.3716571033000946 0 6.3641791343688965 -2.4112002849578857 0
          4.9475250244140625 0.49729952216148376 0 5.070098400115967 2.759303896482379e-10 0
          4.550701141357422 1.4520796537399292 0 7.336548328399658 -4 0
          4.607885360717773 0.8806737661361694 0 4.277002811431885 2.345876455307007 0
          4.712680339813232 0.1756599098443985 0 4.9475250244140625 -0.49729955196380615 0
          5.1624369621276855 -1.0298291444778442 0 4.549413681030273 0.4867381453514099 0
          4.712680339813232 -0.1756599098443985 0 4.442728042602539 0.2323615849018097 0
          4.5 0 0 4.260283470153809 0.6863105893135071 0
          5.276463985443115 -1.8492777347564697 0 4.12898588180542 1.0622961521148682 0
          4.284032344818115 0.41149193048477173 0 4.549413681030273 -0.4867381453514099 0
          4.442728042602539 -0.2323615849018097 0 3.668274164199829 4 0
          4.607885360717773 -0.8806737661361694 0 3.8128066062927246 1.5416762828826904 0
          4.060268402099609 0.49635443091392517 0 4.284032344818115 -0.41149193048477173 0
          3.911525011062622 0.7286574840545654 0 4.260283470153809 -0.6863105893135071 0
          3.822697639465332 0.46750810742378235 0 4.550701141357422 -1.4520796537399292 0
          3.620537757873535 1.0005594491958618 0 4.060268402099609 -0.49635443091392517 0
          3.5830352306365967 0.6040777564048767 0 4.12898588180542 -1.0622961521148682 0
          3.625744581222534 0.3315613269805908 0 3.2031748294830322 2.1983518600463867 0
          5.150596618652344 -3.0338735580444336 0 3.822697639465332 -0.46750810742378235 0
          3.911525011062622 -0.7286574840545654 0 3.51452898979187 0.11965782940387726 0
          3.625744581222534 -0.3315613269805908 0 3.51452898979187 -0.11965782940387726 0
          3.117795705795288 1.2780934572219849 0 3.350067138671875 0.34111109375953674 0
          5.502410888671875 -4 0 3.1990199089050293 0.7096065282821655 0
          3.5830352306365967 -0.6040777564048767 0 4.277002811431885 -2.345923662185669 0
          3.265990734100342 8.508456161848699e-10 0 3.620537757873535 -1.0005594491958618 0
          3.350067138671875 -0.34111109375953674 0 3.8128066062927246 -1.5416762828826904 0
          2.960996627807617 0.25609132647514343 0 3.1990199089050293 -0.7096065282821655 0
          2.960996627807617 -0.25609132647514343 0 2.624887228012085 0.7217148542404175 0
          2.318066358566284 1.490063190460205 0 3.117795705795288 -1.2780934572219849 0
          2.0251002311706543 2.550624370574951 0 2.447000503540039 1.945336336461878e-9 0
          1.8341370820999146 4 0 2.624887228012085 -0.7217148542404175 0
          3.2031748294830322 -2.198634147644043 0 1.8182549476623535 0.5377518534660339 0
          3.668274164199829 -4 0 2.318066358566284 -1.490063190460205 0
          1.8182549476623535 -0.5377518534660339 0 1.1527822017669678 1.237666130065918 0
          2.0251002311706543 -2.5523180961608887 0 0.9903457164764404 -0.0066452063620090485 0
          1.1919611692428589 -1.2461633682250977 0 0 4 0
          0 2.204763412475586 0 1.8341370820999146 -4 0
          0 0.6427936553955078 0 0 -0.6752752065658569 0
          0 -2.2149267196655273 0 0 -4 0
          <InformationKey name="L2_NORM_RANGE" location="vtkDataArray" length="2">