<?xml version="1.0"?>
<VTKFile type="UnstructuredGrid" version="0.1" byte_order="LittleEndian" header_type="UInt32" compressor="vtkZLibDataCompressor">
  <UnstructuredGrid>
    <Piece NumberOfPoints="27" NumberOfCells="32">
      <PointData>
        <DataArray type="Float64" Name="Density" format="ascii" RangeMin="1" RangeMax="2.3759330994762102">
          1 1 1.7 1.2336667747176413 1 1.6999999999999997
          1.09743174125141 1.4128696544549033 1.3615395091393636 1.6999999999999997 1.5794129301157822 1.6679638218755852
          1.7 1.736492078041787 1.944701389351208 1.7 1.8976233873244288 2.1492740995911896
          1.6999999999999997 2.054264452682685 2.2790581644961367 1.7 2.19372508675705 2.3325153476914786
          1.7 2.3052865288136 2.3759330994762102
        </DataArray>
        <DataArray type="Float64" Name="Momentum" NumberOfComponents="3" format="ascii" RangeMin="2.9" RangeMax="6.108572964585586">
          2.9 0 0 2.9 0 0
          4.45281 -0.8607100000000001 0 3.43055778376092 -0.2929646736729532 0
          2.9 0 0 4.452809999999999 -0.8607099999999999 0
          3.1339906318980972 0 0 3.813989900558335 -0.5230280768494204 0
          3.742520942947717 0 0 4.45281 -0.8607099999999999 0
          4.182883806582635 -0.6332978004505682 0 4.4281634814098 0 0
          4.4528099999999995 -0.8607100000000001 0 4.544742954773582 -0.679563032010844 0
          5.0499402500018995 0 0 4.4528099999999995 -0.86071 0
          4.921289480073687 -0.6545689222886326 0 5.5196676478631295 0 0
          4.45281 -0.8607099999999999 0 5.295209296862755 -0.5760704220816307 0
          5.829802578111436 0 0 4.45281 -0.86071 0
          5.6343283105953965 -0.46322814590172157 0 5.992588146312542 0 0
          4.4528099999999995 -0.86071 0 5.888677094289878 -0.36201452310663357 0
          6.108551628951725 0.016144971265354968 0
          <InformationKey name="L2_NORM_RANGE" location="vtkDataArray" length="2">
            <Value index="0">
              2.9
            </Value>
            <Value index="1">
              6.1085729646
            </Value>
          </InformationKey>
        </DataArray>
        <DataArray type="Float64" Name="Energy" format="ascii" RangeMin="5.978459999999999" RangeMax="14.262587759941251">
          5.97846 5.978459999999999 9.850459752999999 7.301089661534755 5.97846 9.850459752999997
          6.514210459432407 8.29838669979958 7.997098505612906 9.850459753000003 9.234682533134622 9.727274946729176
          9.850459752999999 10.108105764275926 11.341598121217054 9.850459752999999 11.024373788156371 12.625271204930339
          9.850459753 11.92869990476931 13.500699951146979 9.850459752999999 12.778941276300513 13.944780050086843
          9.850459753 13.452553866528303 14.262587759941251
        </DataArray>
      </PointData>
      <CellData>
        <DataArray type="UInt8" Name="vtkGhostType" format="ascii" RangeMin="0" RangeMax="0">
          0 0 0 0 0 0
          0 0 0 0 0 0
          0 0 0 0 0 0
          0 0 0 0 0 0
          0 0 0 0 0 0
          0 0
        </DataArray>
        <DataArray type="Float64" Name="CORES" format="ascii" RangeMin="-3.029873170731709" RangeMax="1.1281667131210997">
          0.11007873096214574 -1.0425586395543054 -0.21758869106400863 -0.20237754995809892 -0.2422366598864378 0.2176886681947011
          -0.13189687955654641 0.36354582890564097 0.009823132067783957 0.3286975135530825 0.08229024237407144 0.1859109242765781
          0.09999623181723928 0.016007111099618193 0.013106739823626937 -0.09518137705600076 0.09293201309978838 -3.029873170731709
          -0.10098346078251678 1.1281667131210997 -0.3300971881982251 0.6545007066478723 -0.4574740331541878 0.41055893881954697
          -0.4930640956738682 0.2928580577416121 -0.39744206089100625 0.31109670997766836 -0.16890258273203398 0.43334302706931216
          0.14608100019100573 0.6287291825868915
        </DataArray>
        <DataArray type="Float64" Name="MORES" NumberOfComponents="3" format="ascii" RangeMin="0.2069217498200196" RangeMax="9.186736572829362">
          0.34271372933083394 -0.46967200223473293 0 -2.7909304818697755 1.6248505632629349 0
          -0.5561404452541399 -0.4525340522181184 0 -0.4045975719298968 0.6595375585715483 0
          -0.6286145979150048 -0.16397966897588145 0 0.6295354264740411 -0.07796663523364991 0
          -0.39690923104849546 0.20561065952029461 0 0.9712697550237125 -0.16662032478052236 0
          -0.06274677993651095 0.4651820608191759 0 0.8483763589018963 -0.17219629829126448 0
          0.17221993358728613 0.5543273084324524 0 0.4565979622279731 -0.15988056987238905 0
          0.219519959521213 0.4091431864833985 0 -0.004937968124176059 -0.20686282174277573 0
          0.12345042524003673 0.17778222118721984 0 -0.19589883995212942 -0.2755002622903119 0
          0.237991578463614 -0.05392759113970991 0 -7.940054956075821 4.620785231219513 0
          -0.24790356851154316 0.12648572408397218 0 2.8444798622487935 -1.8119302321068633 0
          -0.9014392614572868 0.0143308442069328 0 1.6365945069003303 -1.0834727350245585 0
          -1.238134139136013 0.0933868341620854 0 1.0624734698701717 -0.5395053202997152 0
          -1.3435659567121538 0.0468652122510133 0 0.8064308589784174 -0.14449409398576613 0
          -1.1029884464149946 0.01420709860137749 0 0.901959863462766 0.15089671915634284 0
          -0.5303995294654071 0.04962642095373554 0 1.2581432025595003 0.3559336023192286 0
          0.4065609474425326 0.3103998039096253 0 1.7852046696734303 0.5188031585894305 0
          <InformationKey name="L2_NORM_RANGE" location="vtkDataArray" length="2">
            <Value index="0">
              0.20692174982
            </Value>
            <Value index="1">
              9.1867365728
            </Value>
          </InformationKey>
        </DataArray>
        <DataArray type="Float64" Name="ENRES" format="ascii" RangeMin="-20.65645911415126" RangeMax="7.541417135491107">
          0.8303012073562017 -7.291152187449278 -1.5659276597398306 -1.4402978237489998 -1.7382235079788129 1.5049461542495284
          -1.0989927321627135 2.7735475127948757 -0.35879781207529265 2.5095726838694024 0.26606109514173387 1.5673961044105778
          0.6286917275703475 0.22425625567722623 0.41836198646438433 -0.41004570577611027 0.42187273380514656 -20.65645911415126
          -0.740357970167266 7.541417135491107 -2.305741240424598 4.366570722047001 -2.9751208561799576 2.744699582428516
          -3.3391633906393947 1.9916414643221907 -2.754734686292425 2.1148651946190773 -1.488886748607282 2.905718254709621
          0.731075988298043 4.16858462338705
        </DataArray>
      </CellData>
      <Points>
        <DataArray type="Float32" Name="Points" NumberOfComponents="3" format="ascii" RangeMin="0" RangeMax="4.2201894765504395">
          0 1 0 0 0.5 0
          0.512499988079071 1 0 0.512499988079071 0.5 0
          0 0 0 1.024999976158142 1 0
          0.512499988079071 0 0 1.024999976158142 0.5 0
          1.024999976158142 0 0 1.537500023841858 1 0
          1.537500023841858 0.5 0 1.537500023841858 0 0
          2.049999952316284 1 0 2.049999952316284 0.5 0
          2.049999952316284 0 0 2.5625 1 0
          2.5625 0.5 0 2.5625 0 0
          3.075000047683716 1 0 3.075000047683716 0.5 0
          3.075000047683716 0 0 3.5875000953674316 1 0
          3.5875000953674316 0.5 0 3.5875000953674316 0 0
          4.099999904632568 1 0 4.099999904632568 0.5 0
          4.099999904632568 0 0
          <InformationKey name="L2_NORM_RANGE" location="vtkDataArray" length="2">
            <Value index="0">
              0
            </Value>
            <Value index="1">
              4.2201894766
            </Value>
          </InformationKey>
        </DataArray>
      </Points>
      <Cells>
        <DataArray type="Int64" Name="connectivity" format="ascii" RangeMin="0" RangeMax="26">
          6 3 4 3 1 4
          8 7 6 7 3 6
          11 10 8 10 7 8
          14 13 11 13 10 11
          17 16 14 16 13 14
          20 19 17 19 16 17
          23 22 20 22 19 20
          26 25 23 25 22 23
          3 2 1 2 0 1
          7 5 3 5 2 3
          10 9 7 9 5 7
          13 12 10 12 9 10
          16 15 13 15 12 13
          19 18 16 18 15 16
          22 21 19 21 18 19
          25 24 22 24 21 22
        </DataArray>
        <DataArray type="Int64" Name="offsets" format="ascii" RangeMin="3" RangeMax="96">
          3 6 9 12 15 18
          21 24 27 30 33 36
          39 42 45 48 51 54
          57 60 63 66 69 72
          75 78 81 84 87 90
          93 96
        </DataArray>
        <DataArray type="UInt8" Name="types" format="ascii" RangeMin="5" RangeMax="5">
          5 5 5 5 5 5
          5 5 5 5 5 5
          5 5 5 5 5 5
          5 5 5 5 5 5
          5 5 5 5 5 5
          5 5
        </DataArray>
      </Cells>
    </Piece>
  </UnstructuredGrid>
</VTKFile>
