<?xml version="1.0"?>
<VTKFile type="UnstructuredGrid" version="0.1" byte_order="LittleEndian" header_type="UInt32" compressor="vtkZLibDataCompressor">
  <UnstructuredGrid>
    <Piece NumberOfPoints="59" NumberOfCells="148">
      <PointData>
        <DataArray type="Float64" Name="Temperature" format="ascii" RangeMin="0" RangeMax="0.5101364294779261">
          0.49654836813214126 0.5067844521202921 0.37371336073537154 0.4675327762916407 0.5022990101993325 0.4713518106741474
          0.503056461554943 0.4687537691223844 0.4674384028626773 0.4697834654247159 0.3753961671735612 0.3756780973391934
          0.3736833344360353 0.4654240982914841 0.46647542770081674 0.37643048551785413 0.21916491284451978 0.37411818766436294
          0.37208293638182827 0.3741675490474465 0.37338239943634055 0.37716902151954 0.2196991346832488 0.21811177974220858
          0.21802926505203596 0.21731570735007139 0.21811383214070038 0 0.21774374412456377 0
          0.21791938729817303 0 0 0.21956656402906627 0.21918635236710812 0.2170373393734488
          0 0.4943812325256379 0.4676109357488198 0.49862785900738554 0.46585772010682824 0.4995833021781517
          0.3731010820031534 0.37325038954361694 0.21685981852062555 0.5043097270723385 0.5101364294779261 0.4727535818293114
          0.473104534052323 0.37508264750729037 0.3760788541450696 0.22028269132414957 0.5030901585753846 0.47039464849313334
          0.3742003866587597 0.498450796338922 0.4678006215838712 0.46762849261593015 0.3756820482507251
        </DataArray>
      </PointData>
      <CellData>
        <DataArray type="UInt8" Name="vtkGhostType" format="ascii" RangeMin="0" RangeMax="1">
          0 0 0 0 0 0
          0 0 0 0 0 0
          0 0 0 0 0 0
          0 0 0 0 0 0
          0 0 0 0 1 1
          1 0 1 1 1 1
          0 0 0 0 0 0
          0 0 0 0 0 0
          0 0 0 0 0 0
          0 0 0 0 0 0
          0 0 0 0 0 0
          0 0 0 0 0 0
          0 0 0 0 0 0
          0 0 0 0 0 0
          0 0 0 0 0 0
          0 0 0 0 0 0
          0 0 0 0 0 0
          0 0 0 0 0 0
          0 0 0 0 0 0
          0 0 0 0 0 0
          0 0 0 0 0 0
          0 0 0 0 0 0
          0 0 0 0 0 0
          0 0 0 0 0 0
          0 1 1 0
        </DataArray>
      </CellData>
      <Points>
        <DataArray type="Float32" Name="Points" NumberOfComponents="3" format="ascii" RangeMin="0.25" RangeMax="1.6007810593582121">
          0 1 1 0.5 1 1
          0.5 0.5 1 0.25 0.75 0.5
          0.5 1 0.75 0.5 0.75 0.75
          0.25 1 1 0.25 0.75 0.75
          0.25 0.75 1 0.5 0.75 1
          0.25 0.5 1 0.5 0.5 0.75
          0.25 0.5 0.75 0 0.75 0.75
          0 0.75 1 0.5 0.5 0.5
          0.25 0.25 0.5 0.25 0.5 0.5
          0 0.5 0.5 0 0.5 1
          0 0.5 0.75 0.75 0.5 0.5
          0.5 0.25 0.25 0.25 0.25 1
          0 0.25 1 0.25 0.25 0.75
          0.5 0.25 1 0 0 0.5
          0 0.25 0.75 0 0 0.25
          0 0.25 0.5 0.25 0 0.5
          0.25 0 0.75 0.25 0.25 0.25
          0.5 0.25 0.5 0.5 0.25 0.75
          0.5 0 0.75 0 1 0.75
          0 0.75 0.5 0.25 1 0.5
          0.25 0.75 0.25 0.25 1 0.75
          0 0.5 0.25 0.25 0.5 0.25
          0 0.25 0.25 0.75 1 0.75
          0.75 1 1 0.75 0.75 1
          0.75 0.75 0.75 0.75 0.5 1
          0.75 0.5 0.75 0.75 0.25 1
          0.75 1 0.5 0.75 0.75 0.5
          0.75 0.5 0.25 0.5 1 0.5
          0.5 0.75 0.25 0.5 0.75 0.5
          0.5 0.5 0.25
          <InformationKey name="L2_NORM_RANGE" location="vtkDataArray" length="2">
            <Value index="0">
              0.25
            </Value>
            <Value index="1">
              1.6007810594
            </Value>
          </InformationKey>
        </DataArray>
      </Points>
      <Cells>
        <DataArray type="Int64" Name="connectivity" format="ascii" RangeMin="0" RangeMax="58">
          1 45 46 5 15 53
          5 48 45 48 46 5
          48 45 53 5 15 53
          58 57 1 4 45 5
          55 52 4 57 15 53
          57 5 45 5 4 52
          52 5 4 57 45 52
          53 5 5 52 53 57
          19 10 24 28 2 23
          10 25 10 23 24 28
          23 10 25 28 2 9
          47 11 1 46 9 5
          15 5 11 48 46 48
          47 9 9 48 47 11
          46 9 5 48 48 9
          5 11 2 25 26 23
          2 47 49 11 15 11
          50 48 47 49 11 48
          48 49 11 50 15 21
          53 48 15 22 58 54
          15 22 54 21 15 53
          54 58 15 54 53 21
          15 50 21 48 15 21
          50 34 15 22 21 34
          0 13 37 41 18 38
          13 3 55 39 3 41
          37 41 13 38 38 41
          13 3 41 38 39 3
          18 43 42 38 18 38
          3 43 55 3 39 56
          3 43 38 40 39 3
          38 40 3 39 56 40
          43 3 56 40 0 41
          6 13 55 4 41 3
          1 6 4 7 18 7
          3 13 6 13 41 7
          4 7 41 3 6 4
          7 41 13 41 7 3
          55 4 3 57 1 7
          4 5 18 3 7 17
          15 17 5 57 3 57
          4 7 7 57 4 5
          3 7 17 57 57 7
          17 5 55 3 56 57
          18 43 3 17 15 17
          57 58 43 58 56 3
          3 58 56 57 43 3
          17 58 58 3 17 57
          0 6 14 13 1 8
          6 7 19 14 8 20
          18 20 7 13 14 13
          6 8 8 13 6 7
          14 8 20 13 13 8
          20 7 2 25 10 12
          19 10 28 20 18 20
          30 12 10 12 25 28
          28 12 25 30 10 28
          20 12 12 28 20 30
          1 9 8 7 2 10
          9 12 19 8 10 20
          18 20 12 7 8 7
          9 10 10 7 9 12
          8 10 20 7 7 10
          20 12 2 9 11 12
          1 5 9 7 15 11
          5 17 18 17 7 12
          11 12 9 5 5 12
          9 7 11 5 17 12
          12 5 17 7 27 25
          16 30 2 11 25 12
          15 16 11 17 18 17
          12 30 16 30 25 12
          11 16 25 12 16 11
          17 12 30 16 17 12
          15 16 35 11 27 32
          16 25 2 25 11 26
          16 25 35 11 32 16
          25 35 26 35 25 11
          15 35 50 11 2 49
          26 11 50 11 35 51
          51 11 35 26 50 51
          49 11 11 51 49 26
          18 17 44 43 15 33
          17 58 17 33 44 43
          33 17 58 43 15 17
          33 16 18 44 17 30
          27 30 16 29 44 29
          33 16 17 44 33 16
          44 17 30 16 29 44
          30 16 27 31 29 16
          15 34 16 33 31 33
          29 16 33 31 34 16
          15 16 34 35 27 31
          16 32 31 36 34 16
          16 36 34 35 31 16
          32 36 36 16 32 35
          15 50 35 34 15 58
          22 33 15 34 33 22
          18 44 42 43
        </DataArray>
        <DataArray type="Int64" Name="offsets" format="ascii" RangeMin="4" RangeMax="592">
          4 8 12 16 20 24
          28 32 36 40 44 48
          52 56 60 64 68 72
          76 80 84 88 92 96
          100 104 108 112 116 120
          124 128 132 136 140 144
          148 152 156 160 164 168
          172 176 180 184 188 192
          196 200 204 208 212 216
          220 224 228 232 236 240
          244 248 252 256 260 264
          268 272 276 280 284 288
          292 296 300 304 308 312
          316 320 324 328 332 336
          340 344 348 352 356 360
          364 368 372 376 380 384
          388 392 396 400 404 408
          412 416 420 424 428 432
          436 440 444 448 452 456
          460 464 468 472 476 480
          484 488 492 496 500 504
          508 512 516 520 524 528
          532 536 540 544 548 552
          556 560 564 568 572 576
          580 584 588 592
        </DataArray>
        <DataArray type="UInt8" Name="types" format="ascii" RangeMin="10" RangeMax="10">
          10 10 10 10 10 10
          10 10 10 10 10 10
          10 10 10 10 10 10
          10 10 10 10 10 10
          10 10 10 10 10 10
          10 10 10 10 10 10
          10 10 10 10 10 10
          10 10 10 10 10 10
          10 10 10 10 10 10
          10 10 10 10 10 10
          10 10 10 10 10 10
          10 10 10 10 10 10
          10 10 10 10 10 10
          10 10 10 10 10 10
          10 10 10 10 10 10
          10 10 10 10 10 10
          10 10 10 10 10 10
          10 10 10 10 10 10
          10 10 10 10 10 10
          10 10 10 10 10 10
          10 10 10 10 10 10
          10 10 10 10 10 10
          10 10 10 10 10 10
          10 10 10 10 10 10
          10 10 10 10
        </DataArray>
      </Cells>
    </Piece>
  </UnstructuredGrid>
</VTKFile>
