<?xml version="1.0"?>
<VTKFile type="UnstructuredGrid" version="0.1" byte_order="LittleEndian" header_type="UInt32" compressor="vtkZLibDataCompressor">
  <UnstructuredGrid>
    <Piece NumberOfPoints="13" NumberOfCells="13">
      <PointData>
        <DataArray type="Float64" Name="Temperature" format="ascii" RangeMin="0" RangeMax="0.5468805666821478">
          0.5468805666821478 0 0.3877798736516678 0 0.3861705737111915 0
          0 0 0.5191482349189122 0.3733356322021949 0.3788546194938773 0
          0.5205047129613514
        </DataArray>
      </PointData>
      <CellData>
        <DataArray type="UInt8" Name="vtkGhostType" format="ascii" RangeMin="1" RangeMax="1">
          1 1 1 1 1 1
          1 1 1 1 1 1
          1
        </DataArray>
      </CellData>
      <Points>
        <DataArray type="Float32" Name="Points" NumberOfComponents="3" format="ascii" RangeMin="0.5" RangeMax="1.7320508075688772">
          1 1 1 1 0 1
          1 0.5 1 1 0 0.5
          1 0.5 0.5 1 0 0
          0.5 0 0.5 0.5 0 0
          0.5 1 1 0.5 0.5 1
          0.5 0.5 0.5 0.5 0 1
          1 1 0.5
          <InformationKey name="L2_NORM_RANGE" location="vtkDataArray" length="2">
            <Value index="0">
              0.5
            </Value>
            <Value index="1">
              1.7320508076
            </Value>
          </InformationKey>
        </DataArray>
      </Points>
      <Cells>
        <DataArray type="Int64" Name="connectivity" format="ascii" RangeMin="0" RangeMax="12">
          0 8 12 10 0 9
          8 10 0 2 9 10
          0 12 4 10 5 3
          4 7 0 4 2 10
          4 7 3 6 2 4
          3 6 4 2 10 6
          10 11 2 9 1 6
          11 2 6 11 2 10
          1 2 3 6
        </DataArray>
        <DataArray type="Int64" Name="offsets" format="ascii" RangeMin="4" RangeMax="52">
          4 8 12 16 20 24
          28 32 36 40 44 48
          52
        </DataArray>
        <DataArray type="UInt8" Name="types" format="ascii" RangeMin="10" RangeMax="10">
          10 10 10 10 10 10
          10 10 10 10 10 10
          10
        </DataArray>
      </Cells>
    </Piece>
  </UnstructuredGrid>
</VTKFile>
