<?xml version="1.0"?>
<VTKFile type="UnstructuredGrid" version="0.1" byte_order="LittleEndian" header_type="UInt32" compressor="vtkZLibDataCompressor">
  <UnstructuredGrid>
    <Piece NumberOfPoints="49" NumberOfCells="109">
      <PointData>
        <DataArray type="Float64" Name="Temperature" format="ascii" RangeMin="0" RangeMax="0.37716902151954">
          0 0.21811177974220858 0 0 0.21802926505203596 0.21731570735007139
          0.21811383214070038 0 0.21774374412456377 0 0.21791938729817303 0
          0 0.21956656402906627 0.21918635236710812 0.2170373393734488 0 0
          0 0 0 0.37716902151954 0.22018194079061187 0
          0 0.2196991346832488 0 0.21754930206542977 0.37371336073537154 0.3753961671735612
          0.3756780973391934 0.3736833344360353 0.37643048551785413 0.21916491284451978 0.37411818766436294 0.37208293638182827
          0.3741675490474465 0.37338239943634055 0.21867659300860223 0.22002555076954158 0.37325038954361694 0.21685981852062555
          0.37508264750729037 0.3760788541450696 0 0.21908031814908696 0 0.22028269132414957
          0.3756820482507251
        </DataArray>
      </PointData>
      <CellData>
        <DataArray type="UInt8" Name="vtkGhostType" format="ascii" RangeMin="0" RangeMax="1">
          0 1 1 0 0 1
          1 0 0 0 0 1
          0 0 0 0 1 1
          1 1 1 1 1 1
          1 0 1 1 1 1
          1 1 1 1 1 1
          1 1 0 1 1 1
          0 1 1 1 1 0
          1 1 1 1 0 1
          0 1 1 0 0 1
          1 1 1 1 1 1
          0 1 1 1 0 1
          0 1 1 0 0 0
          1 1 1 0 1 1
          1 1 1 0 1 0
          0 0 0 0 1 1
          1 1 1 1 0 1
          1 1 1 1 1 1
          0
        </DataArray>
      </CellData>
      <Points>
        <DataArray type="Float32" Name="Points" NumberOfComponents="3" format="ascii" RangeMin="0" RangeMax="1.346291201783626">
          0 0 1 0.25 0.25 1
          0 0 0.75 0.25 0 1
          0 0.25 1 0.25 0.25 0.75
          0.5 0.25 1 0 0 0.5
          0 0.25 0.75 0 0 0.25
          0 0.25 0.5 0.25 0 0.5
          0.25 0 0.75 0.25 0.25 0.25
          0.5 0.25 0.5 0.5 0.25 0.75
          0.25 0 0.25 0.5 0 0.75
          0.25 0 0 0.5 0 1
          0 0 0 0.75 0.5 0.5
          0.75 0.25 0.5 0.5 0 0.5
          0.5 0 0 0.5 0.25 0.25
          0.5 0 0.25 0.5 0.25 0
          0.5 0.5 1 0.25 0.5 1
          0.5 0.5 0.75 0.25 0.5 0.75
          0.5 0.5 0.5 0.25 0.25 0.5
          0.25 0.5 0.5 0 0.5 0.5
          0 0.5 1 0 0.5 0.75
          0 0.25 0 0.25 0.25 0
          0.25 0.5 0.25 0 0.25 0.25
          0.75 0.5 1 0.75 0.5 0.75
          0.75 0 0.75 0.75 0.25 0.75
          0.75 0 1 0.75 0.25 1
          0.5 0.5 0.25
          <InformationKey name="L2_NORM_RANGE" location="vtkDataArray" length="2">
            <Value index="0">
              0
            </Value>
            <Value index="1">
              1.3462912018
            </Value>
          </InformationKey>
        </DataArray>
      </Points>
      <Cells>
        <DataArray type="Int64" Name="connectivity" format="ascii" RangeMin="0" RangeMax="48">
          0 4 1 2 36 29
          4 8 28 1 29 5
          7 5 8 2 1 2
          4 8 29 1 4 8
          1 29 5 8 2 1
          5 8 0 3 2 1
          19 12 3 6 7 2
          12 5 28 5 6 1
          2 1 3 12 12 1
          3 6 2 12 5 1
          1 12 5 6 32 21
          43 14 23 14 45 22
          21 43 14 22 22 43
          14 45 32 25 21 14
          23 14 22 26 25 21
          14 22 26 25 14 22
          28 5 29 31 7 8
          5 10 36 29 8 37
          35 37 10 31 29 31
          5 8 8 31 5 10
          29 8 37 31 31 8
          37 10 7 5 33 10
          28 30 5 31 35 34
          31 10 33 10 5 31
          30 33 5 31 10 33
          34 31 19 15 12 6
          32 33 15 30 7 12
          33 5 28 5 30 6
          12 6 15 5 33 5
          15 30 12 33 5 15
          6 15 5 30 32 15
          43 30 19 47 15 6
          28 42 6 30 43 30
          15 47 47 30 15 6
          30 47 42 6 20 41
          13 39 32 13 34 48
          13 39 41 40 34 13
          41 40 13 34 48 40
          39 13 48 40 20 13
          41 9 32 34 13 33
          35 41 34 10 7 10
          33 9 41 9 13 33
          34 41 13 33 41 34
          10 33 9 41 10 33
          20 9 16 13 7 11
          9 33 23 16 11 14
          32 14 33 13 16 13
          9 11 11 13 9 33
          16 11 14 13 13 11
          14 33 23 17 44 45
          19 46 17 47 17 46
          44 45 46 17 47 45
          23 14 11 17 32 33
          14 15 7 11 33 12
          19 12 15 17 11 17
          14 33 33 17 14 15
          11 33 12 17 17 33
          12 15 23 17 45 14
          19 47 17 15 32 43
          15 14 45 14 17 15
          47 45 17 15 45 47
          43 15 14 45 43 15
          20 18 39 13 24 27
          18 25 32 48 25 13
          39 13 18 27 27 13
          18 25 39 27 48 13
          13 27 48 25 20 13
          16 18 32 14 13 25
          23 16 14 26 24 26
          25 18 16 18 13 25
          14 16 13 25 16 14
          26 25 18 16 26 25
          20 38 41 39
        </DataArray>
        <DataArray type="Int64" Name="offsets" format="ascii" RangeMin="4" RangeMax="436">
          4 8 12 16 20 24
          28 32 36 40 44 48
          52 56 60 64 68 72
          76 80 84 88 92 96
          100 104 108 112 116 120
          124 128 132 136 140 144
          148 152 156 160 164 168
          172 176 180 184 188 192
          196 200 204 208 212 216
          220 224 228 232 236 240
          244 248 252 256 260 264
          268 272 276 280 284 288
          292 296 300 304 308 312
          316 320 324 328 332 336
          340 344 348 352 356 360
          364 368 372 376 380 384
          388 392 396 400 404 408
          412 416 420 424 428 432
          436
        </DataArray>
        <DataArray type="UInt8" Name="types" format="ascii" RangeMin="10" RangeMax="10">
          10 10 10 10 10 10
          10 10 10 10 10 10
          10 10 10 10 10 10
          10 10 10 10 10 10
          10 10 10 10 10 10
          10 10 10 10 10 10
          10 10 10 10 10 10
          10 10 10 10 10 10
          10 10 10 10 10 10
          10 10 10 10 10 10
          10 10 10 10 10 10
          10 10 10 10 10 10
          10 10 10 10 10 10
          10 10 10 10 10 10
          10 10 10 10 10 10
          10 10 10 10 10 10
          10 10 10 10 10 10
          10 10 10 10 10 10
          10
        </DataArray>
      </Cells>
    </Piece>
  </UnstructuredGrid>
</VTKFile>
