<?xml version="1.0"?>
<VTKFile type="UnstructuredGrid" version="0.1" byte_order="LittleEndian" header_type="UInt32" compressor="vtkZLibDataCompressor">
  <UnstructuredGrid>
    <Piece NumberOfPoints="47" NumberOfCells="96">
      <PointData>
        <DataArray type="Float64" Name="Temperature" format="ascii" RangeMin="0" RangeMax="0.5169847973110193">
          0.5169847973110193 0.5107055807878015 0.5043097270723385 0.47052029654369326 0.47372664414671534 0.5101364294779261
          0.4727535818293114 0.473104534052323 0.4756735416035578 0.37508264750729037 0.3760788541450696 0
          0.21908031814908696 0 0.378242938585203 0 0 0.22028269132414957
          0.22053966402306444 0.2214216879359129 0 0.37848333839409165 0.37510975078087194 0.37716902151954
          0.2189470500365973 0.3791854840574628 0.22018194079061187 0 0 0
          0 0.5067844521202921 0.37371336073537154 0.5022990101993325 0.4713518106741474 0.4697834654247159
          0.3756780973391934 0.37643048551785413 0.21811383214070038 0.21918635236710812 0.2170373393734488 0
          0 0.5073389144635441 0.5030901585753846 0.47039464849313334 0.47011789073424487
        </DataArray>
      </PointData>
      <CellData>
        <DataArray type="UInt8" Name="vtkGhostType" format="ascii" RangeMin="0" RangeMax="1">
          0 1 0 1 0 1
          0 1 1 0 1 1
          0 1 1 1 1 1
          1 1 0 0 1 1
          0 0 1 1 0 0
          1 1 0 0 1 1
          0 1 1 1 1 0
          1 1 1 1 1 1
          1 1 1 1 1 1
          1 1 1 1 1 1
          1 1 1 1 1 1
          0 1 1 1 1 1
          0 1 1 0 0 1
          1 0 1 1 0 1
          1 1 1 1 0 0
          1 1 0 0 1 1
        </DataArray>
      </CellData>
      <Points>
        <DataArray type="Float32" Name="Points" NumberOfComponents="3" format="ascii" RangeMin="0.7071067811865476" RangeMax="1.7320508075688772">
          1 1 1 1 1 0.75
          0.75 1 0.75 1 0.75 0.5
          1 0.75 0.75 0.75 1 1
          0.75 0.75 1 0.75 0.75 0.75
          1 0.75 1 0.75 0.5 1
          0.75 0.5 0.75 0.75 0 0.75
          0.75 0.25 0.75 1 0 1
          1 0.5 1 1 0 0.5
          0.75 0 1 0.75 0.25 1
          1 0.25 1 1 0.25 0.75
          1 0 0.75 1 0.5 0.5
          1 0.5 0.25 0.75 0.5 0.5
          1 0.25 0.5 1 0.5 0.75
          0.75 0.25 0.5 0.5 0 0.5
          0.75 0 0.5 0.75 0 0.25
          1 0 0.25 0.5 1 1
          0.5 0.5 1 0.5 1 0.75
          0.5 0.75 0.75 0.5 0.75 1
          0.5 0.5 0.75 0.5 0.5 0.5
          0.5 0.25 1 0.5 0.25 0.5
          0.5 0.25 0.75 0.5 0 0.75
          0.5 0 1 1 1 0.5
          0.75 1 0.5 0.75 0.75 0.5
          1 0.75 0.25
          <InformationKey name="L2_NORM_RANGE" location="vtkDataArray" length="2">
            <Value index="0">
              0.70710678119
            </Value>
            <Value index="1">
              1.7320508076
            </Value>
          </InformationKey>
        </DataArray>
      </Points>
      <Cells>
        <DataArray type="Int64" Name="connectivity" format="ascii" RangeMin="0" RangeMax="46">
          0 5 1 7 31 2
          5 34 43 1 2 45
          37 45 34 7 1 7
          5 2 2 7 5 34
          1 2 45 7 7 2
          45 34 31 33 2 34
          43 2 44 45 2 34
          33 44 2 44 45 34
          0 6 5 7 32 35
          6 36 31 5 35 34
          37 34 36 7 5 7
          6 35 35 7 6 36
          5 35 34 7 7 35
          34 36 0 8 6 7
          14 9 8 10 32 6
          9 36 37 36 10 7
          6 7 8 9 9 7
          8 10 6 9 36 7
          7 9 36 10 0 1
          4 7 43 3 1 45
          21 4 3 23 37 23
          45 7 4 7 1 3
          3 7 1 45 4 3
          23 7 7 3 23 45
          43 45 46 3 21 3
          22 23 45 46 3 23
          23 46 3 22 15 24
          30 29 0 4 8 7
          21 25 4 23 14 8
          25 10 37 10 23 7
          8 7 4 25 25 7
          4 23 8 25 10 7
          7 25 10 23 15 24
          29 28 14 25 19 12
          15 19 24 28 27 28
          26 12 19 12 25 24
          24 12 25 26 19 24
          28 12 12 24 28 26
          14 10 25 12 37 23
          10 39 27 39 12 26
          23 26 25 10 10 26
          25 12 23 10 39 26
          26 10 39 12 37 40
          10 36 42 17 40 38
          14 10 17 9 32 9
          38 36 10 36 40 17
          17 36 40 38 10 17
          9 36 36 17 9 38
          13 11 16 18 27 41
          11 12 42 16 41 17
          14 17 12 18 16 18
          11 12 41 16 11 12
          16 41 17 12 18 16
          17 12 27 41 12 39
          42 17 41 40 14 12
          17 10 37 10 40 39
          12 39 41 40 17 12
          41 40 12 17 10 40
          39 12 10 40 13 18
          20 11 14 19 18 12
          15 20 19 28 27 28
          12 11 20 11 18 19
          19 11 18 12 20 19
          28 11 11 19 28 12
        </DataArray>
        <DataArray type="Int64" Name="offsets" format="ascii" RangeMin="4" RangeMax="384">
          4 8 12 16 20 24
          28 32 36 40 44 48
          52 56 60 64 68 72
          76 80 84 88 92 96
          100 104 108 112 116 120
          124 128 132 136 140 144
          148 152 156 160 164 168
          172 176 180 184 188 192
          196 200 204 208 212 216
          220 224 228 232 236 240
          244 248 252 256 260 264
          268 272 276 280 284 288
          292 296 300 304 308 312
          316 320 324 328 332 336
          340 344 348 352 356 360
          364 368 372 376 380 384
        </DataArray>
        <DataArray type="UInt8" Name="types" format="ascii" RangeMin="10" RangeMax="10">
          10 10 10 10 10 10
          10 10 10 10 10 10
          10 10 10 10 10 10
          10 10 10 10 10 10
          10 10 10 10 10 10
          10 10 10 10 10 10
          10 10 10 10 10 10
          10 10 10 10 10 10
          10 10 10 10 10 10
          10 10 10 10 10 10
          10 10 10 10 10 10
          10 10 10 10 10 10
          10 10 10 10 10 10
          10 10 10 10 10 10
          10 10 10 10 10 10
          10 10 10 10 10 10
        </DataArray>
      </Cells>
    </Piece>
  </UnstructuredGrid>
</VTKFile>
