<?xml version="1.0"?>
<VTKFile type="UnstructuredGrid" version="0.1" byte_order="LittleEndian" header_type="UInt32" compressor="vtkZLibDataCompressor">
  <UnstructuredGrid>
    <Piece NumberOfPoints="14" NumberOfCells="15">
      <PointData>
        <DataArray type="Float64" Name="Temperature" format="ascii" RangeMin="0" RangeMax="0.3877798736516678">
          0 0 0 0 0 0
          0.3733356322021949 0.3788546194938773 0.3653273376445606 0.3700181974920545 0.3694456405842233 0
          0.3877798736516678 0.3744406049721041
        </DataArray>
      </PointData>
      <CellData>
        <DataArray type="UInt8" Name="vtkGhostType" format="ascii" RangeMin="1" RangeMax="1">
          1 1 1 1 1 1
          1 1 1 1 1 1
          1 1 1
        </DataArray>
      </CellData>
      <Points>
        <DataArray type="Float32" Name="Points" NumberOfComponents="3" format="ascii" RangeMin="0" RangeMax="1.5">
          0 0 1 0 0 0.5
          0.5 0 1 0 0 0
          0.5 0 0.5 0.5 0 0
          0.5 0.5 1 0.5 0.5 0.5
          0 0.5 0.5 0 0.5 1
          0 0.5 0 1 0 1
          1 0.5 1 0.5 0.5 0
          <InformationKey name="L2_NORM_RANGE" location="vtkDataArray" length="2">
            <Value index="0">
              0
            </Value>
            <Value index="1">
              1.5
            </Value>
          </InformationKey>
        </DataArray>
      </Points>
      <Cells>
        <DataArray type="Int64" Name="connectivity" format="ascii" RangeMin="0" RangeMax="13">
          0 9 6 1 0 2
          1 6 6 1 9 8
          1 6 7 8 2 7
          1 6 7 2 12 6
          3 8 7 13 3 7
          8 1 3 1 4 7
          11 4 2 12 4 7
          1 2 4 2 12 7
          3 5 13 7 3 7
          4 5 3 10 8 13
        </DataArray>
        <DataArray type="Int64" Name="offsets" format="ascii" RangeMin="4" RangeMax="60">
          4 8 12 16 20 24
          28 32 36 40 44 48
          52 56 60
        </DataArray>
        <DataArray type="UInt8" Name="types" format="ascii" RangeMin="10" RangeMax="10">
          10 10 10 10 10 10
          10 10 10 10 10 10
          10 10 10
        </DataArray>
      </Cells>
    </Piece>
  </UnstructuredGrid>
</VTKFile>
