<?xml version="1.0"?>
<VTKFile type="UnstructuredGrid" version="0.1" byte_order="LittleEndian" header_type="UInt32" compressor="vtkZLibDataCompressor">
  <UnstructuredGrid>
    <Piece NumberOfPoints="17" NumberOfCells="16">
      <PointData>
        <DataArray type="Float64" Name="Temperature" format="ascii" RangeMin="0" RangeMax="0.5468805680935956">
          0 0.5468805680935956 0 0.5205047138261764 0 0.36743473710878055
          0.37444060499207715 0.49840941117074594 0.3733356326834946 0 0 0
          0.3877798743450199 0.38617057422037926 0.5191482360446066 0.3788546197433462 0.49410718011390226
        </DataArray>
      </PointData>
      <CellData>
        <DataArray type="UInt8" Name="vtkGhostType" format="ascii" RangeMin="0" RangeMax="1">
          1 0 1 1 1 1
          1 1 1 1 0 1
          1 1 1 1
        </DataArray>
      </CellData>
      <Points>
        <DataArray type="Float32" Name="Points" NumberOfComponents="3" format="ascii" RangeMin="0.5" RangeMax="1.7320508075688772">
          1 0 0.5 1 1 1
          1 0 1 1 1 0.5
          1 0 0 1 0.5 0
          0.5 0.5 0 0.5 1 0.5
          0.5 0.5 1 0.5 0 1
          0.5 0 0 0.5 0 0.5
          1 0.5 1 1 0.5 0.5
          0.5 1 1 0.5 0.5 0.5
          1 1 0
          <InformationKey name="L2_NORM_RANGE" location="vtkDataArray" length="2">
            <Value index="0">
              0.5
            </Value>
            <Value index="1">
              1.7320508076
            </Value>
          </InformationKey>
        </DataArray>
      </Points>
      <Cells>
        <DataArray type="Int64" Name="connectivity" format="ascii" RangeMin="0" RangeMax="16">
          16 6 5 3 1 3
          13 15 6 5 3 15
          15 5 3 13 4 0
          13 10 2 12 0 11
          1 13 12 15 13 10
          0 11 12 13 0 11
          16 3 7 6 1 14
          3 15 7 6 3 15
          14 7 3 15 1 8
          14 15 2 11 9 12
          1 12 8 15
        </DataArray>
        <DataArray type="Int64" Name="offsets" format="ascii" RangeMin="4" RangeMax="64">
          4 8 12 16 20 24
          28 32 36 40 44 48
          52 56 60 64
        </DataArray>
        <DataArray type="UInt8" Name="types" format="ascii" RangeMin="10" RangeMax="10">
          10 10 10 10 10 10
          10 10 10 10 10 10
          10 10 10 10
        </DataArray>
      </Cells>
    </Piece>
  </UnstructuredGrid>
</VTKFile>
