<?xml version="1.0"?>
<VTKFile type="UnstructuredGrid" version="0.1" byte_order="LittleEndian" header_type="UInt32" compressor="vtkZLibDataCompressor">
  <UnstructuredGrid>
    <Piece NumberOfPoints="48" NumberOfCells="30">
      <PointData>
        <DataArray type="Float64" Name="sld_BC" NumberOfComponents="3" format="ascii" RangeMin="0" RangeMax="0">
          0 0 0 0 0 0
          0 0 0 0 0 0
          0 0 0 0 0 0
          0 0 0 0 0 0
          0 0 0 0 0 0
          0 0 0 0 0 0
          0 0 0 0 0 0
          0 0 0 0 0 0
          0 0 0 0 0 0
          0 0 0 0 0 0
          0 0 0 0 0 0
          0 0 0 0 0 0
          0 0 0 0 0 0
          0 0 0 0 0 0
          0 0 0 0 0 0
          0 0 0 0 0 0
          0 0 0 0 0 0
          0 0 0 0 0 0
          0 0 0 0 0 0
          0 0 0 0 0 0
          0 0 0 0 0 0
          0 0 0 0 0 0
          0 0 0 0 0 0
          0 0 0 0 0 0
          <InformationKey name="L2_NORM_RANGE" location="vtkDataArray" length="2">
            <Value index="0">
              0
            </Value>
            <Value index="1">
              0
            </Value>
          </InformationKey>
        </DataArray>
        <DataArray type="Float64" Name="sld_FIXNO" NumberOfComponents="3" format="ascii" RangeMin="1.4142135623730951" RangeMax="1.4142135623730951">
          -1 -1 0 -1 -1 0
          -1 -1 0 -1 -1 0
          -1 -1 0 -1 -1 0
          -1 -1 0 -1 -1 0
          -1 -1 0 -1 -1 0
          -1 -1 0 -1 -1 0
          -1 -1 0 -1 -1 0
          -1 -1 0 -1 -1 0
          -1 -1 0 -1 -1 0
          -1 -1 0 -1 -1 0
          -1 -1 0 -1 -1 0
          -1 -1 0 -1 -1 0
          -1 -1 0 -1 -1 0
          -1 -1 0 -1 -1 0
          -1 -1 0 -1 -1 0
          -1 -1 0 -1 -1 0
          -1 -1 0 -1 -1 0
          -1 -1 0 -1 -1 0
          -1 -1 0 -1 -1 0
          -1 -1 0 -1 -1 0
          -1 -1 0 -1 -1 0
          -1 -1 0 -1 -1 0
          -1 -1 0 1 1 0
          1 1 0 1 1 0
          <InformationKey name="L2_NORM_RANGE" location="vtkDataArray" length="2">
            <Value index="0">
              1.4142135624
            </Value>
            <Value index="1">
              1.4142135624
            </Value>
          </InformationKey>
        </DataArray>
        <DataArray type="Float64" Name="Disp" NumberOfComponents="3" format="ascii" RangeMin="0" RangeMax="0.0022857194810095246">
          0.0003773841951877834 -0.0022543501757910016 0 -0.00003130558661544125 -0.002246550950595318 0
          -0.00044436260121622466 -0.0022341428053651562 0 0.00038271363020410355 -0.0012673385691398874 0
          -0.000016752514736357153 -0.0012518161604873584 0 -0.00041686331140973996 -0.0012475381405780137 0
          0.00032054068869118385 -0.00032197147753451773 0 0.0000017053185501091336 -0.00030044878676330683 0
          -0.00031701736888959113 -0.00031700997675985316 0 0.0001579769772117544 0.00028239621949124297 0
          0.00001778923818421041 0.00031140467309681726 0 -0.00012508194787284811 0.00028347821369636566 0
          -0.00002677854935812872 0.0003418498961219688 0 0.000008163299223946195 0.000363041104363159 0
          0.00004306218746648297 0.00034861394413658066 0 -0.000080357867954781 0.00008602285827787184 0
          0.000004518017181768932 0.0000829729022706312 0 0.00009055370272003677 0.0000856287680589956 0
          -0.000020385418318525692 -0.00007911660166064732 0 0.000006959349587552846 -0.00008840284033110975 0
          0.00003320530715445716 -0.00007819950603934807 0 0.00001892883024835633 -0.00003638586838343588 0
          0.0000014723991460816423 -0.00003639903412603284 0 -0.000015884981138722173 -0.00003243344213538889 0
          0.000006078220504114076 0.000013329379433183594 0 -0.0000030396164869555806 0.000016315991311110136 0
          -0.000011507348703761172 0.000014280911934334066 0 -0.0000054897432718868885 0.000006072588083830986 0
          -0.0000026386326283233203 0.0000062016168405823006 0 3.4676416562340924e-7 0.000005164465465199377 0
          -0.0000025844808010482323 -0.000001856963898495705 0 -0.0000011057203939316677 -0.0000026897194320550635 0
          2.6779582425229066e-7 -0.000002542300364469383 0 1.2048721587412733e-7 -4.0918101526239047e-7 0
          -3.246637892215392e-7 -5.961641855761234e-7 0 -8.360358255416564e-7 -6.576177797890287e-7 0
          5.502121974146603e-8 3.1969973894486783e-7 0 -7.772471098964906e-8 3.5987854660754045e-7 0
          -2.3177152892160636e-7 2.531735376049061e-7 0 -8.495342065330581e-8 3.2502727512651186e-8 0
          -1.6085508967326963e-8 2.4621950057235777e-8 0 4.7483785966980904e-8 1.7570917498643378e-8 0
          -1.2456972715401267e-8 -2.7253367805885483e-8 0 -2.7204633545254098e-9 -3.5780915041284264e-8 0
          5.7940324179494165e-9 -3.0482661574003725e-8 0 0 0 0
          0 0 0 0 0 0
          <InformationKey name="L2_NORM_RANGE" location="vtkDataArray" length="2">
            <Value index="0">
              0
            </Value>
            <Value index="1">
              0.002285719481
            </Value>
          </InformationKey>
        </DataArray>
        <DataArray type="Float64" Name="Sld_traction" NumberOfComponents="3" format="ascii" RangeMin="0" RangeMax="7655.931123945255">
          -29.973058091792797 266.1096585493633 0 390.2633448868444 -662.7661758095179 0
          157.4165177257784 533.8632221641161 0 -1133.4183003693531 1852.7375989045493 0
          0 0 0 1183.1101220704006 2104.593565957395 0
          -1152.690239740572 5606.606207289823 0 0 0 0
          1490.6727261763347 5459.390380075903 0 116.5083988559728 7493.261535307342 0
          0 0 0 172.46025148174414 7653.988426712736 0
          1390.1118160304882 4687.139832864186 0 0 0 0
          -1427.742284491669 5017.460949209851 0 1141.5322873543794 -110.56645087024387 0
          0 0 0 -1188.0989650646804 -253.7813959804588 0
          -152.3225308250402 -2200.7076140191607 0 0 0 0
          197.26691641005706 -2206.9559590563804 0 -559.9263309916644 -809.8925291091277 0
          0 0 0 554.3445326027689 -711.649844875902 0
          -27.12723700884111 442.9552136762455 0 0 0 0
          -0.05626554181983169 430.65419535783644 0 130.7324885778287 236.64490515589526 0
          0 0 0 -139.5230957821345 201.4342251178517 0
          -0.0673740447663362 -70.24207416376389 0 0 0 0
          4.208508358080099 -76.05961379844437 0 -19.639162562949988 -35.77700788121203 0
          0 0 0 22.97773470101743 -31.603565778546027 0
          2.842038441824332 10.487441235417824 0 0 0 0
          -1.652518376192828 12.989259525051084 0 2.4360636945173515 2.8772086769624807 0
          0 0 0 -2.1243272945619633 3.671626665091931 0
          -0.551202316805302 -1.5308282806810718 0 0 0 0
          0.6258466431569492 -1.3220656927234609 0 -0.16810512850033416 0.044060005329449065 0
          0.37487751561320404 0.7152909029122585 0 0.44228460175199036 0.23055782822727502 0
          <InformationKey name="L2_NORM_RANGE" location="vtkDataArray" length="2">
            <Value index="0">
              0
            </Value>
            <Value index="1">
              7655.9311239
            </Value>
          </InformationKey>
        </DataArray>
        <DataArray type="Float64" Name="Velocity" NumberOfComponents="3" format="ascii" RangeMin="0" RangeMax="0.10554121521356455">
          0.000440028214238844 -0.08121771480694734 0 -0.0041420793035376584 -0.09680243043672976 0
          -0.016729358707795787 -0.10420689356267102 0 0.0072723734906859315 -0.10170559586794 0
          0.005284504945652007 -0.09770072311225086 0 -0.002970274783649232 -0.09534104016692381 0
          0.005057017167818794 -0.09879900972965848 0 -0.0091180277038064 -0.0977578313124701 0
          -0.02249499623606831 -0.09212575454724418 0 0.025369233561925206 -0.013745516675641507 0
          -0.0008732543998693412 -0.01885898806108996 0 -0.026117781039688294 -0.023251329825428078 0
          0.021885100623183888 0.05252466074903373 0 0.007912763127470879 0.057401312456868005 0
          -0.008696662100544011 0.05585579714818856 0 -0.012769619233332877 0.05494465650723382 0
          -0.0027884633428023027 0.05956094031171266 0 0.008877891785871932 0.058378745194779494 0
          -0.014857787911714378 -0.0032717464214184547 0 0.0010666924214084903 -0.006821241176649735 0
          0.017123166584780258 -0.0074887251608786645 0 0.004440509630393162 -0.022681579035981166 0
          0.004275868027773589 -0.024236678048724064 0 0.0031313452455831456 -0.021744572884208054 0
          0.006210218621966896 0.0002456211641384187 0 0.0007329245650925899 0.001680591192074424 0
          -0.004488588039677142 0.0022503041538361815 0 -0.0009786203452512795 0.004473037948508006 0
          -0.001018350184792812 0.005149965884164508 0 -0.000776607059946724 0.00460279096049226 0
          -0.0017278191971472111 -0.0004434403579441109 0 -0.0006547672641025446 -0.0007551575710114533 0
          0.0004165101521542516 -0.0007686802512504274 0 -0.00013705985572906847 -0.0004909988878754889 0
          -0.00022223797759841234 -0.0006709355377582131 0 -0.00034352601495109064 -0.000648911846070725 0
          0.00007705201926338339 0.0001628945860117629 0 -0.000057698032441354584 0.00017642321035389846 0
          -0.0002065648212228028 0.00011563741297730888 0 -0.000043931729052148645 0.0000503205305348491 0
          -0.000012609092233822926 0.00005300282989873475 0 0.000014841275061862117 0.00003889944289078456 0
          -0.00001522045731048341 -0.000017968677258057867 0 -0.0000022007085047443144 -0.000024467522832827415 0
          0.000009858824040503596 -0.00002055607805432302 0 0 0 0
          0 0 0 0 0 0
          <InformationKey name="L2_NORM_RANGE" location="vtkDataArray" length="2">
            <Value index="0">
              0
            </Value>
            <Value index="1">
              0.10554121521
            </Value>
          </InformationKey>
        </DataArray>
      </PointData>
      <CellData>
        <DataArray type="UInt8" Name="vtkGhostType" format="ascii" RangeMin="0" RangeMax="0">
          0 0 0 0 0 0
          0 0 0 0 0 0
          0 0 0 0 0 0
          0 0 0 0 0 0
          0 0 0 0 0 0
        </DataArray>
        <DataArray type="Float64" Name="Gauss Stress" NumberOfComponents="6" format="ascii" RangeMin="1.1191971355756927" RangeMax="7623.08729837411">
          -0.12013034904767506 0.6305421942053252 0 -0.9168355735055513 0 0
          -0.33280891439125004 -0.6633933312988551 0 -0.9207855852945901 0 0
          -3.8629235574903458 -1.2079191779356968 0 -0.6814040090329617 0 0
          1.990930898115836 1.4733544403189751 0 -0.6434057460332286 0 0
          1.7914762256689558 -1.4971477103064612 0 8.246933415094222 0 0
          -10.476254214521116 2.4954869715463777 0 8.36068673938662 0 0
          3.050180041235519 14.268072492142265 0 -3.5531692677053757 0 0
          -37.7442437040467 -11.148423412951763 0 -3.3082699891019773 0 0
          -121.49874903763288 3.975263675641038 0 -63.67390868773622 0 0
          12.086547595560187 0.8930507659013323 0 -64.05490848140582 0 0
          -213.95913584593617 -83.89877386535206 0 71.44159841471792 0 0
          -4.053395286169888 71.53672998093859 0 68.34074230239293 0 0
          403.9399004829984 9.53879213805456 0 342.2435947494071 0 0
          -478.65176463033947 -63.16261706715291 0 342.5141359674642 0 0
          822.0064330636164 303.89179901411967 0 -430.3636713143714 0 0
          -178.24062512210583 -276.25793575733906 0 -416.7279912786806 0 0
          -1241.5355500994506 -52.41166514843371 0 -1259.010830514152 0 0
          2077.3401385748343 204.59469682960824 0 -1267.217686448729 0 0
          -2674.2129622000434 -714.2176263126637 0 783.6384434807576 0 0
          2326.7979324629164 519.8448007423143 0 779.6625812338385 0 0
          2004.9400961954184 -77.81689983744172 0 2738.443362274401 0 0
          -1476.9759624937049 96.67090026077102 0 2771.8847938535373 0 0
          7448.109344630536 768.7866278075285 0 1430.4175159596944 0 0
          -5906.1840213597625 -420.28059857905714 0 1463.5492054854994 0 0
          5769.462775187435 181.4069782142128 0 -1585.9655271751474 0 0
          -7452.011544131697 -720.653630620702 0 -1331.4062319228178 0 0
          2648.00199409949 38.42892657094012 0 -2357.1323019327074 0 0
          -2821.7069217776425 478.9214243899569 0 -2073.497922702886 0 0
          632.6012140292703 -27.932024284070025 0 -982.4213609079504 0 0
          -93.36015148579105 40.30179208191714 0 -836.2817100816543 0 0
          <InformationKey name="L2_NORM_RANGE" location="vtkDataArray" length="2">
            <Value index="0">
              1.1191971356
            </Value>
            <Value index="1">
              7623.0872984
            </Value>
          </InformationKey>
        </DataArray>
        <DataArray type="Float64" Name="Gauss Strain" NumberOfComponents="6" format="ascii" RangeMin="0.000001424726564473356" RangeMax="0.005676290396398754">
          -3.24296235892918e-7 4.263761845535452e-7 0 -0.0000018336708780006744 0 0
          6.567095794940415e-8 -2.64913537190159e-7 0 -0.0000018415715819638884 0 0
          -0.000001834591469129787 8.20416134805768e-7 0 -0.0000013628094378688867 0 0
          6.052151116237028e-7 8.763934664091091e-8 0 -0.0000012868099304476613 0 0
          0.0000016736466554867489 -0.0000016149728259418075 0 0.000016493875409377887 0 0
          -0.00000728410482825348 0.0000056876559948182415 0 0.000016721378797724153 0 0
          -0.000003877170513172379 0.000007340654933699064 0 -0.000007106383863476781 0 0
          -0.000018187556096532772 0.000008408541989052276 0 -0.0000066165887466280715 0 0
          -0.00007450145123824581 0.00005097572708499809 0 -0.0001273495868540666 0 0
          0.000006888533807813955 -0.000004304429714177549 0 -0.00012810987290239073 0 0
          -0.000094830713023214 0.00003523691310149124 0 0.00014289040872532839 0 0
          -0.00003105398449584906 0.00004453434673125368 0 0.00013668152287903026 0 0
          0.00023829975675375425 -0.00015605379491756555 0 0.0006844643838606933 0 0
          -0.0002621832837324811 0.0001533700645782038 0 0.0006850913320568183 0 0
          0.000371275109965985 -0.0001467198398270586 0 -0.0008605583620523995 0 0
          0.000003337005086020979 -0.00009470717858686695 0 -0.0008334793950622197 0 0
          -0.0007270855023252532 0.00046258214434066747 0 -0.0025182693729317173 0 0
          0.0011605672034249864 -0.0007110697589837456 0 -0.0025335524603995155 0 0
          -0.0013224268231270542 0.0006393713303451537 0 0.001568003066756458 0 0
          0.0011847841003918 -0.0006206467553587502 0 0.0015589010304765624 0 0
          0.0012227448817051512 -0.000859332642431404 0 0.005476012694302711 0 0
          -0.0009358334921345245 0.0006384123118916285 0 0.00554448241322987 0 0
          0.004130262455241146 -0.002533551522551941 0 0.002857457604608765 0 0
          -0.0034011948281208455 0.0020963755429053987 0 0.0029284037307748616 0 0
          0.0033629332961528646 -0.0022137165917982538 0 -0.003170063762173976 0 0
          -0.0042143205705651166 0.0025327384423716043 0 -0.0026657673321388827 0 0
          0.0015618855199021622 -0.0010453327206688954 0 -0.004712406868835919 0 0
          -0.0018959200898640283 0.001406927408646716 0 -0.004147475654870193 0 0
          0.00038939648377389613 -0.00027109386391860335 0 -0.001964680323104823 0 0
          -0.00007302152663594967 0.00006061269947553459 0 -0.0016724846792695843 0 0
          <InformationKey name="L2_NORM_RANGE" location="vtkDataArray" length="2">
            <Value index="0">
              1.4247265645e-06
            </Value>
            <Value index="1">
              0.0056762903964
            </Value>
          </InformationKey>
        </DataArray>
        <DataArray type="Float64" Name="Btraction" NumberOfComponents="3" format="ascii" RangeMin="0" RangeMax="0">
          0 0 0 0 0 0
          0 0 0 0 0 0
          0 0 0 0 0 0
          0 0 0 0 0 0
          0 0 0 0 0 0
          0 0 0 0 0 0
          0 0 0 0 0 0
          0 0 0 0 0 0
          0 0 0 0 0 0
          0 0 0 0 0 0
          0 0 0 0 0 0
          0 0 0 0 0 0
          0 0 0 0 0 0
          0 0 0 0 0 0
          0 0 0 0 0 0
          <InformationKey name="L2_NORM_RANGE" location="vtkDataArray" length="2">
            <Value index="0">
              0
            </Value>
            <Value index="1">
              0
            </Value>
          </InformationKey>
        </DataArray>
      </CellData>
      <Points>
        <DataArray type="Float32" Name="Points" NumberOfComponents="3" format="ascii" RangeMin="0.31320268577451565" RangeMax="0.6356886233499035">
          0.6000000238418579 0.20999999344348907 0 0.6000000238418579 0.20000000298023224 0
          0.6000000238418579 0.1899999976158142 0 0.5765992999076843 0.20999999344348907 0
          0.5765992999076843 0.20000000298023224 0 0.5765992999076843 0.1899999976158142 0
          0.5531985759735107 0.20999999344348907 0 0.5531985759735107 0.20000000298023224 0
          0.5531985759735107 0.1899999976158142 0 0.5297979712486267 0.20999999344348907 0
          0.5297979712486267 0.20000000298023224 0 0.5297979712486267 0.1899999976158142 0
          0.5063973069190979 0.20999999344348907 0 0.5063973069190979 0.20000000298023224 0
          0.5063973069190979 0.1899999976158142 0 0.4829966127872467 0.20999999344348907 0
          0.4829966127872467 0.20000000298023224 0 0.4829966127872467 0.1899999976158142 0
          0.4595958888530731 0.20999999344348907 0 0.4595958888530731 0.20000000298023224 0
          0.4595958888530731 0.1899999976158142 0 0.4361951947212219 0.20999999344348907 0
          0.4361951947212219 0.20000000298023224 0 0.4361951947212219 0.1899999976158142 0
          0.4127945899963379 0.20999999344348907 0 0.4127945899963379 0.20000000298023224 0
          0.4127945899963379 0.1899999976158142 0 0.3893938958644867 0.20999999344348907 0
          0.3893938958644867 0.20000000298023224 0 0.3893938958644867 0.1899999976158142 0
          0.3659932017326355 0.20999999344348907 0 0.3659932017326355 0.20000000298023224 0
          0.3659932017326355 0.1899999976158142 0 0.3425925076007843 0.20999999344348907 0
          0.3425925076007843 0.20000000298023224 0 0.3425925076007843 0.1899999976158142 0
          0.3191918134689331 0.20999999344348907 0 0.3191918134689331 0.20000000298023224 0
          0.3191918134689331 0.1899999976158142 0 0.2957912087440491 0.20999999344348907 0
          0.2957912087440491 0.20000000298023224 0 0.2957912087440491 0.1899999976158142 0
          0.2723905146121979 0.20999999344348907 0 0.2723905146121979 0.20000000298023224 0
          0.2723905146121979 0.1899999976158142 0 0.24898980557918549 0.20999999344348907 0
          0.24898980557918549 0.20000000298023224 0 0.24898980557918549 0.1899999976158142 0
          <InformationKey name="L2_NORM_RANGE" location="vtkDataArray" length="2">
            <Value index="0">
              0.31320268577
            </Value>
            <Value index="1">
              0.63568862335
            </Value>
          </InformationKey>
        </DataArray>
      </Points>
      <Cells>
        <DataArray type="Int64" Name="connectivity" format="ascii" RangeMin="0" RangeMax="47">
          46 43 42 45 47 44
          43 46 43 40 39 42
          44 41 40 43 40 37
          36 39 41 38 37 40
          37 34 33 36 38 35
          34 37 34 31 30 33
          35 32 31 34 31 28
          27 30 32 29 28 31
          28 25 24 27 29 26
          25 28 25 22 21 24
          26 23 22 25 22 19
          18 21 23 20 19 22
          19 16 15 18 20 17
          16 19 16 13 12 15
          17 14 13 16 13 10
          9 12 14 11 10 13
          10 7 6 9 11 8
          7 10 7 4 3 6
          8 5 4 7 4 1
          0 3 5 2 1 4
        </DataArray>
        <DataArray type="Int64" Name="offsets" format="ascii" RangeMin="4" RangeMax="120">
          4 8 12 16 20 24
          28 32 36 40 44 48
          52 56 60 64 68 72
          76 80 84 88 92 96
          100 104 108 112 116 120
        </DataArray>
        <DataArray type="UInt8" Name="types" format="ascii" RangeMin="9" RangeMax="9">
          9 9 9 9 9 9
          9 9 9 9 9 9
          9 9 9 9 9 9
          9 9 9 9 9 9
          9 9 9 9 9 9
        </DataArray>
      </Cells>
    </Piece>
  </UnstructuredGrid>
</VTKFile>
