<?xml version="1.0"?>
<VTKFile type="UnstructuredGrid" version="0.1" byte_order="LittleEndian" header_type="UInt32" compressor="vtkZLibDataCompressor">
  <UnstructuredGrid>
    <Piece NumberOfPoints="38" NumberOfCells="54">
      <PointData>
        <DataArray type="Float64" Name="ale_BC" NumberOfComponents="3" format="ascii" RangeMin="0" RangeMax="1">
          0 0 0 0 0 0
          0 0 0 0 0 0
          0 0 0 0 0 0
          0 0 0 0 0 0
          0 0 0 1 0 0
          0 0 0 0 0 0
          0 0 0 0 0 0
          1 0 0 0 0 0
          0 0 0 1 0 0
          0 0 0 0 0 0
          1 0 0 0 0 0
          0 0 0 0 0 0
          0 0 0 0 0 0
          0 0 0 0 0 0
          0 0 0 0 0 0
          0 0 0 0 0 0
          0 0 0 0 0 0
          0 0 0 0 0 0
          0 0 0 0 0 0
          <InformationKey name="L2_NORM_RANGE" location="vtkDataArray" length="2">
            <Value index="0">
              0
            </Value>
            <Value index="1">
              1
            </Value>
          </InformationKey>
        </DataArray>
        <DataArray type="Float64" Name="ale_FIXNO" NumberOfComponents="3" format="ascii" RangeMin="1.4142135623730951" RangeMax="3.1622776601683795">
          1 1 0 1 1 0
          1 1 0 -1 -1 0
          -1 -1 0 1 1 0
          1 1 0 -1 -1 0
          -1 -1 0 1 1 0
          -1 -1 0 1 1 0
          1 1 0 -1 -1 0
          1 1 0 -1 -1 0
          -1 -1 0 1 1 0
          -1 -1 0 1 1 0
          1 1 0 -1 -1 0
          1 1 0 1 3 0
          -1 -1 0 -1 -1 0
          1 3 0 -1 -1 0
          -1 -1 0 -1 -1 0
          1 1 0 1 1 0
          1 3 0 1 1 0
          -1 -1 0 1 3 0
          1 1 0 1 1 0
          <InformationKey name="L2_NORM_RANGE" location="vtkDataArray" length="2">
            <Value index="0">
              1.4142135624
            </Value>
            <Value index="1">
              3.1622776602
            </Value>
          </InformationKey>
        </DataArray>
        <DataArray type="Float64" Name="nsi_BC" NumberOfComponents="3" format="ascii" RangeMin="0" RangeMax="1">
          0 0 0 0 0 0
          0 0 0 0 0 0
          0 0 0 0 0 0
          0 0 0 0 0 0
          0 0 0 0 0 0
          0 0 0 0 0 0
          0 0 0 0 0 0
          0 0 0 0 0 0
          0 0 0 0 0 0
          0 0 0 0 0 0
          0 0 0 0 0 0
          0 0 0 0 0 0
          0 0 0 0 0 0
          0 0 0 0 0 0
          0 0 0 0 0 0
          0 0 0 1 0 0
          0 0 0 1 0 0
          0 0 0 0 0 0
          1 0 0 0 0 0
          <InformationKey name="L2_NORM_RANGE" location="vtkDataArray" length="2">
            <Value index="0">
              0
            </Value>
            <Value index="1">
              1
            </Value>
          </InformationKey>
        </DataArray>
        <DataArray type="Float64" Name="nsi_FIXNO" NumberOfComponents="3" format="ascii" RangeMin="1.4142135623730951" RangeMax="1.4142135623730951">
          1 1 0 1 1 0
          -1 -1 0 -1 -1 0
          -1 -1 0 1 1 0
          -1 -1 0 -1 -1 0
          -1 -1 0 1 1 0
          -1 -1 0 1 1 0
          -1 -1 0 -1 -1 0
          1 1 0 -1 -1 0
          -1 -1 0 1 1 0
          -1 -1 0 1 1 0
          1 1 0 -1 -1 0
          1 1 0 1 1 0
          -1 -1 0 -1 -1 0
          1 1 0 -1 -1 0
          -1 -1 0 -1 -1 0
          1 1 0 1 1 0
          1 1 0 1 1 0
          -1 -1 0 1 1 0
          1 1 0 1 1 0
          <InformationKey name="L2_NORM_RANGE" location="vtkDataArray" length="2">
            <Value index="0">
              1.4142135624
            </Value>
            <Value index="1">
              1.4142135624
            </Value>
          </InformationKey>
        </DataArray>
        <DataArray type="Float64" Name="Velocity" NumberOfComponents="3" format="ascii" RangeMin="0" RangeMax="1.0641815760449274">
          0 0 0 0 0 0
          0.8212151719583307 0.08490166257884475 0 0.8138928385940835 0.300616095814525 0
          0.8275631846099852 0.21819667969397538 0 0 0 0
          1.0626327344696245 0.05739423688031852 0 0.8686626564590105 0.07213737684468896 0
          0.3540150932672971 -0.004891934370282287 0 0.009996833507240985 0 0
          0.8658637386181879 -0.07925063443820067 0 0 0 0
          0.9404724284406988 -0.010674808388067078 0 0.8673591190761686 -0.08342813540582361 0
          0.009996833507240989 0 0 0.7324124874181164 -0.04561263471387834 0
          0.8877922682648508 -0.19513361375942065 0 0.00999683350724098 0 0
          0.8681114076125374 -0.2859989502579031 0 0 0 0
          0.009996833507240987 0 0 0.8654665552986032 -0.0009149621211498628 0
          0 0 0 0 0 0
          0.43171008801542626 -0.040543344619233715 0 0.641226105170835 -0.11239978020051819 0
          0 0 0 0.9761252792937061 -0.12237505521663486 0
          0.8709063357700019 0.17989706019855042 0 0.7412128013968093 0.2319474218722502 0
          0 0 0 0.9999999999931752 0 0
          0 0 0 0.9999999999931752 0 0
          0.6915529225377808 0.16925092083350257 0 0 0 0
          0.9999999999931752 0 0 0 0 0
          <InformationKey name="L2_NORM_RANGE" location="vtkDataArray" length="2">
            <Value index="0">
              0
            </Value>
            <Value index="1">
              1.064181576
            </Value>
          </InformationKey>
        </DataArray>
        <DataArray type="Float64" Name="Pressure" format="ascii" RangeMin="1.0571673389672644" RangeMax="10.270443031545216">
          1.8355828695243506 2.2710937826169335 1.4585109141160733 2.2127984696693628 1.5087447801909675 4.111102686253705
          1.0571673389672644 4.1062055778790745 2.161552915892 3.815901620270457 1.4941216299739413 6.9044675009587735
          1.3146224432688909 6.955578784700874 3.731170945657862 1.8200109508345288 2.852653470446045 7.881173843270021
          8.938071756361591 9.275301057438188 7.783134866520567 5.365786215781624 1.6420823612759028 2.214816152063608
          9.63066296733447 10.010596771827322 4.086337481630255 10.108322911840503 7.806866131845745 9.613835619794314
          10.144806737706762 10.270443031545216 6.571578493517895 10.238085121661527 9.05455922352226 8.636649696461504
          9.669124915932263 9.144425307544184
        </DataArray>
        <DataArray type="Float64" Name="ALEdispl" NumberOfComponents="3" format="ascii" RangeMin="0" RangeMax="0.00299955001969346">
          0 0 0 0 0 0
          0 0 0 0.0009670747846240547 0 0
          0.0006056153634891718 0 0 0 0 0
          0 0 0 0.0011491200559061083 0 0
          0.0016896263395866796 0 0 0.00299955001969346 0 0
          0.0006327859694948228 0 0 0 0 0
          0 0 0 0.0013422636079863399 0 0
          0.0029995500196934597 0 0 0.0003790020706885839 0 0
          0.0010898847365266408 0 0 0.0029995500196934592 0 0
          0.001284762621856116 0 0 0 0 0
          0.0029995500196934597 0 0 0.0013552943460487274 0 0
          0 0 0 0 0 0
          0.0016300909270801783 0 0 0.00035167524097692095 0 0
          0 0 0 0.000616295907830212 0 0
          0.0009787791171655296 0 0 0.0010207552209746445 0 0
          0 0 0 0 0 0
          0 0 0 0 0 0
          0.00041134213622345795 0 0 0 0 0
          0 0 0 0 0 0
          <InformationKey name="L2_NORM_RANGE" location="vtkDataArray" length="2">
            <Value index="0">
              0
            </Value>
            <Value index="1">
              0.0029995500197
            </Value>
          </InformationKey>
        </DataArray>
        <DataArray type="Float64" Name="ALEveloc" NumberOfComponents="3" format="ascii" RangeMin="0" RangeMax="0.009996833507309212">
          0 0 0 0 0 0
          0 0 0 0.003223045305972786 0 0
          0.0020183813967164692 0 0 0 0 0
          0 0 0 0.0038297617320537892 0 0
          0.005631149037527473 0 0 0.009996833507309212 0 0
          0.002108934987337688 0 0 0 0 0
          0 0 0 0.004473466261226371 0 0
          0.009996833507309212 0 0 0.0012631296610237574 0 0
          0.0036323435787638057 0 0 0.009996833507309202 0 0
          0.004281828255166823 0 0 0 0 0
          0.009996833507309212 0 0 0.004516894814853343 0 0
          0 0 0 0 0 0
          0.005432730740546614 0 0 0.00117205541151416 0 0
          0 0 0 0.0020539772770464563 0 0
          0.0032620532448179827 0 0 0.0034019502688083115 0 0
          0 0 0 0 0 0
          0 0 0 0 0 0
          0.0013709119112429577 0 0 0 0 0
          0 0 0 0 0 0
          <InformationKey name="L2_NORM_RANGE" location="vtkDataArray" length="2">
            <Value index="0">
              0
            </Value>
            <Value index="1">
              0.0099968335073
            </Value>
          </InformationKey>
        </DataArray>
      </PointData>
      <CellData>
        <DataArray type="UInt8" Name="vtkGhostType" format="ascii" RangeMin="0" RangeMax="0">
          0 0 0 0 0 0
          0 0 0 0 0 0
          0 0 0 0 0 0
          0 0 0 0 0 0
          0 0 0 0 0 0
          0 0 0 0 0 0
          0 0 0 0 0 0
          0 0 0 0 0 0
          0 0 0 0 0 0
        </DataArray>
      </CellData>
      <Points>
        <DataArray type="Float32" Name="Points" NumberOfComponents="3" format="ascii" RangeMin="0.27486616442409084" RangeMax="4.3142984182665565">
          3.42372989654541 -1.1242899894714355 0 2.454237937927246 -1.1288100481033325 0
          3.361582040786743 -0.11299250274896622 0 2.235898971557617 0.03558244928717613 0
          2.7337710857391357 0.5622639060020447 0 1.484745979309082 -1.13332998752594 0
          3.2994349002838135 0.8983049988746643 0 1.4636809825897217 -0.3740426003932953 0
          2.0009939670562744 0.8546469211578369 0 1.401129961013794 0.41242900490760803 0
          2.639246940612793 1.318418025970459 0 0.515254020690918 -1.137850046157837 0
          3.2372870445251465 1.9096020460128784 0 0.4851810038089752 -0.291694700717926 0
          1.31072998046875 1.1355899572372437 0 2.5410780906677246 2.125011920928955 0
          1.834494948387146 1.8600540161132812 0 0.2598870098590851 0.4802260100841522 0
          -0.27462801337242126 0.011439519934356213 0 -0.45423799753189087 -1.1423699855804443 0
          0.1468929946422577 1.1468900442123413 0 0.7959300875663757 1.9558650255203247 0
          3.175139904022217 2.9209001064300537 0 2.228247880935669 2.8711841106414795 0
          -0.39127838611602783 0.712766706943512 0 -0.9148772954940796 -0.4425585865974426 0
          1.2813559770584106 2.8214681148529053 0 -0.9641628861427307 0.2571151852607727 0
          -0.13235770165920258 1.9994369745254517 0 -0.6724379062652588 1.3821619749069214 0
          -1.4237300157546997 -1.1468900442123413 0 -1.4576270580291748 -0.19208750128746033 0
          0.33446401357650757 2.771752119064331 0 -1.4915250539779663 0.7627149820327759 0
          -0.8304513096809387 2.0797200202941895 0 -0.6124280095100403 2.7220358848571777 0
          -1.5254219770431519 1.7175179719924927 0 -1.5593199729919434 2.6723198890686035 0
          <InformationKey name="L2_NORM_RANGE" location="vtkDataArray" length="2">
            <Value index="0">
              0.27486616442
            </Value>
            <Value index="1">
              4.3142984183
            </Value>
          </InformationKey>
        </DataArray>
      </Points>
      <Cells>
        <DataArray type="Int64" Name="connectivity" format="ascii" RangeMin="0" RangeMax="37">
          17 20 24 24 20 29
          17 24 18 29 20 28
          24 29 33 18 24 27
          17 18 13 14 9 8
          28 20 21 27 24 33
          27 33 31 27 31 25
          13 18 19 29 28 34
          18 27 25 18 25 19
          19 25 30 17 13 9
          8 9 3 14 8 16
          21 20 14 21 14 16
          28 21 32 34 28 35
          29 34 36 3 9 7
          8 3 4 16 8 10
          25 31 30 7 9 13
          4 3 2 10 8 4
          10 4 6 6 4 2
          10 6 12 3 7 1
          16 10 15 10 12 15
          15 12 22 16 23 26
          22 23 15 15 23 16
          26 32 21 35 37 34
          35 28 32 37 36 34
          36 33 29 11 5 7
          7 5 1 1 0 2
          19 11 13 13 11 7
          21 16 26 2 3 1
        </DataArray>
        <DataArray type="Int64" Name="offsets" format="ascii" RangeMin="3" RangeMax="162">
          3 6 9 12 15 18
          21 24 27 30 33 36
          39 42 45 48 51 54
          57 60 63 66 69 72
          75 78 81 84 87 90
          93 96 99 102 105 108
          111 114 117 120 123 126
          129 132 135 138 141 144
          147 150 153 156 159 162
        </DataArray>
        <DataArray type="UInt8" Name="types" format="ascii" RangeMin="5" RangeMax="5">
          5 5 5 5 5 5
          5 5 5 5 5 5
          5 5 5 5 5 5
          5 5 5 5 5 5
          5 5 5 5 5 5
          5 5 5 5 5 5
          5 5 5 5 5 5
          5 5 5 5 5 5
          5 5 5 5 5 5
        </DataArray>
      </Cells>
    </Piece>
  </UnstructuredGrid>
</VTKFile>
