<?xml version="1.0"?>
<VTKFile type="UnstructuredGrid" version="0.1" byte_order="LittleEndian" header_type="UInt32" compressor="vtkZLibDataCompressor">
  <UnstructuredGrid>
    <Piece NumberOfPoints="24" NumberOfCells="15">
      <PointData>
        <DataArray type="Float64" Name="Disp" NumberOfComponents="3" format="ascii" RangeMin="0" RangeMax="2.1837518811775882">
          0 0 0 0.0015258601163542001 -0.3249965458878265 0
          0 0 0 0.04075137209029258 -0.3300304823224272 0
          0.05187672498241222 -0.7298420914246827 0 0 0 0
          0.2607441628408326 -0.7569684742694125 0 0.09603026390642846 -0.5179725619008119 0
          0.27929038818564283 -1.1780994882426792 0 0.5228990633928662 -0.8668404765377713 0
          0.48967830520452343 -1.2226469037593435 0 0.6342640236766502 -1.2437763039507026 0
          0.49066530885474824 -1.6166817846948578 0 0.6853117329645477 -1.6079515901550052 0
          0.8145603901767996 -1.6379938706715513 0 0.6919383048210281 -1.9861853028011374 0
          0.8332926488095448 -1.9898976508777035 0 0.8995307356179849 -1.9898785727338297 0
          0 0 0 -0.002924547228287505 -0.3128614186755253 0
          0.006954223228417655 -0.6818471044846534 0 0.14811889649888182 -1.1349109699594193 0
          0.3733412717882679 -1.5824265287022208 0 0.601621196207363 -1.9754032437180606 0
          <InformationKey name="L2_NORM_RANGE" location="vtkDataArray" length="2">
            <Value index="0">
              0
            </Value>
            <Value index="1">
              2.1837518812
            </Value>
          </InformationKey>
        </DataArray>
        <DataArray type="Float64" Name="Nodal Stress" NumberOfComponents="6" format="ascii" RangeMin="6285171583.142489" RangeMax="7527515170.250148">
          5321933063.082339 5321920550.445714 0 -2178355.370248759 0 0
          -5016687371.612071 -5016999380.348418 0 -2135296.963971533 0 0
          -5288585984.465617 -5289503955.623606 0 -2291079.68685768 0 0
          5054539632.951541 5052035728.813707 0 -1819465.4391710183 0 0
          5036599944.027297 5035391338.764928 0 -1574157.0974633088 0 0
          5294578905.858418 5292761382.7971 0 -2863453.1210840293 0 0
          -5048420752.387302 -5050950087.245778 0 -747452.6252520484 0 0
          -5089993705.676661 -5094781662.678553 0 -1816053.3950698692 0 0
          -5055749220.362229 -5057352050.9622135 0 -891823.518403436 0 0
          5076836801.020158 5072629000.93524 0 -281883.6002726073 0 0
          5055479539.584988 5053970262.254697 0 -498725.31692634744 0 0
          -5044070303.4176855 -5045745614.145945 0 -606264.7358669294 0 0
          5114717150.79249 5113904578.341137 0 -412296.1938383374 0 0
          -5037676463.87491 -5038281552.174682 0 -191965.07820194826 0 0
          4964002628.627741 4962658872.408273 0 -546148.0316680821 0 0
          -4444311441.803008 -4444794320.85863 0 -146080.02048321944 0 0
          4563032442.3064995 4562864485.486309 0 -258722.32414647262 0 0
          -4648345088.205312 -4648939843.819982 0 -785954.9865905573 0 0
          -5322883680.374474 -5322629886.0684395 0 -2249328.8536455967 0 0
          5024621972.10293 5025060967.335651 0 -2331080.2687935764 0 0
          -5050150242.907641 -5050329988.150378 0 -2127870.0743164523 0 0
          5054735200.457405 5053733359.238754 0 -1438000.1409604677 0 0
          -5111200400.956892 -5111974024.574704 0 -771553.1012136366 0 0
          4444539340.457361 4444035519.217211 0 -429656.29722495674 0 0
          <InformationKey name="L2_NORM_RANGE" location="vtkDataArray" length="2">
            <Value index="0">
              6285171583.1
            </Value>
            <Value index="1">
              7527515170.3
            </Value>
          </InformationKey>
        </DataArray>
        <DataArray type="Float64" Name="Nodal Strain" NumberOfComponents="6" format="ascii" RangeMin="0" RangeMax="0">
          0 0 0 0 0 0
          0 0 0 0 0 0
          0 0 0 0 0 0
          0 0 0 0 0 0
          0 0 0 0 0 0
          0 0 0 0 0 0
          0 0 0 0 0 0
          0 0 0 0 0 0
          0 0 0 0 0 0
          0 0 0 0 0 0
          0 0 0 0 0 0
          0 0 0 0 0 0
          0 0 0 0 0 0
          0 0 0 0 0 0
          0 0 0 0 0 0
          0 0 0 0 0 0
          0 0 0 0 0 0
          0 0 0 0 0 0
          0 0 0 0 0 0
          0 0 0 0 0 0
          0 0 0 0 0 0
          0 0 0 0 0 0
          0 0 0 0 0 0
          0 0 0 0 0 0
          <InformationKey name="L2_NORM_RANGE" location="vtkDataArray" length="2">
            <Value index="0">
              0
            </Value>
            <Value index="1">
              0
            </Value>
          </InformationKey>
        </DataArray>
        <DataArray type="Float64" Name="Sigma" NumberOfComponents="6" format="ascii" RangeMin="284678.7447913971" RangeMax="3841915.6757715456">
          6256.318313184863 -6256.318313176259 0 -2178355.370248759 0 0
          156004.36817383516 -156004.3681738335 0 -2135296.963971533 0 0
          458985.57899507973 -458985.57899508096 0 -2291079.68685768 0 0
          1251952.0689160018 -1251952.0689159983 0 -1819465.4391710183 0 0
          604302.6311843722 -604302.63118437 0 -1574157.0974633088 0 0
          908761.5306595166 -908761.5306595179 0 -2863453.1210840293 0 0
          1264667.4292380835 -1264667.4292380814 0 -747452.6252520484 0 0
          2393978.500947152 -2393978.500947149 0 -1816053.3950698692 0 0
          801415.2999923348 -801415.2999923322 0 -891823.518403436 0 0
          2103900.0424590134 -2103900.0424590134 0 -281883.6002726073 0 0
          754638.6651462273 -754638.6651462247 0 -498725.31692634744 0 0
          837655.3641300421 -837655.3641300411 0 -606264.7358669294 0 0
          406286.22567633266 -406286.2256763313 0 -412296.1938383374 0 0
          302544.1498853248 -302544.14988532383 0 -191965.07820194826 0 0
          671878.1097338777 -671878.1097338775 0 -546148.0316680821 0 0
          241439.52781139314 -241439.52781138604 0 -146080.02048321944 0 0
          83978.41009525192 -83978.41009525389 0 -258722.32414647262 0 0
          297377.80733523745 -297377.8073352489 0 -785954.9865905573 0 0
          -126897.15301680967 126897.15301681015 0 -2249328.8536455967 0 0
          -219497.6163602749 219497.6163602761 0 -2331080.2687935764 0 0
          89872.6213696547 -89872.6213696508 0 -2127870.0743164523 0 0
          500920.60932511854 -500920.6093251148 0 -1438000.1409604677 0 0
          386811.80890610605 -386811.80890610086 0 -771553.1012136366 0 0
          251910.62007518244 -251910.6200751744 0 -429656.29722495674 0 0
          <InformationKey name="L2_NORM_RANGE" location="vtkDataArray" length="2">
            <Value index="0">
              284678.74479
            </Value>
            <Value index="1">
              3841915.6758
            </Value>
          </InformationKey>
        </DataArray>
        <DataArray type="Float64" Name="Press" format="ascii" RangeMin="-45499296150.248146" RangeMax="45526897368.227234">
          45492753581.23703 -45468179914.59647 -45499296150.248146 45470989843.69481 45496418526.784805 45526897368.227234
          -45497295498.644775 -45472376720.793304 -45471946649.41902 45502880149.23559 45472499420.666466 -45473012637.32354
          45493897517.7577 -45495486089.99629 45496755510.41511 -45484409611.609726 45484865063.13994 -45484982673.78468
          -45496327022.42608 45468057972.03576 -45497381318.76677 45471438256.43828 -45494196705.89803 45484854812.62722
        </DataArray>
      </PointData>
      <CellData>
        <DataArray type="UInt8" Name="vtkGhostType" format="ascii" RangeMin="0" RangeMax="1">
          0 0 1 0 0 1
          0 1 1 0 0 0
          0 0 1
        </DataArray>
        <DataArray type="Float64" Name="Gauss Stress" NumberOfComponents="6" format="ascii" RangeMin="491705.7700600536" RangeMax="9715752.945667796">
          7656420.675790787 5450749.764507294 0 -2462601.2144274344 0 0
          -883740.4519138336 -982579.5044765472 0 -2100417.6608409067 0 0
          -924824.973526001 -922866.9013519287 0 -2165452.175822484 0 0
          4032672.9274082184 -1933786.1812496185 0 -756195.8356790013 0 0
          906891.4499797821 59587.16920661926 0 -1616628.5107583469 0 0
          34169.19511795044 -576536.466463089 0 -2271255.440570989 0 0
          645709.2057056427 -807809.5119724274 0 -655327.0289452468 0 0
          745559.3798294067 -1481151.8611774445 0 -1850583.4033835987 0 0
          762933.1770439148 -1166723.7375831604 0 -1156093.0680793808 0 0
          2240178.9590797424 295538.00779151917 0 -429160.750232945 0 0
          1062331.715063095 -684229.834186554 0 -634050.5452978418 0 0
          -28059.38422012329 -489841.1113510132 0 -32294.28584041045 0 0
          668674.9229640961 -92770.0359210968 0 -679752.0386834982 0 0
          -526048.8176021576 -40511.536586761475 0 311969.83961614245 0 0
          770293.3517818451 -697286.9132003784 0 -649526.3813688679 0 0
          <InformationKey name="L2_NORM_RANGE" location="vtkDataArray" length="2">
            <Value index="0">
              491705.77006
            </Value>
            <Value index="1">
              9715752.9457
            </Value>
          </InformationKey>
        </DataArray>
        <DataArray type="Float64" Name="Gauss Strain" NumberOfComponents="6" format="ascii" RangeMin="0" RangeMax="0">
          0 0 0 0 0 0
          0 0 0 0 0 0
          0 0 0 0 0 0
          0 0 0 0 0 0
          0 0 0 0 0 0
          0 0 0 0 0 0
          0 0 0 0 0 0
          0 0 0 0 0 0
          0 0 0 0 0 0
          0 0 0 0 0 0
          0 0 0 0 0 0
          0 0 0 0 0 0
          0 0 0 0 0 0
          0 0 0 0 0 0
          0 0 0 0 0 0
          <InformationKey name="L2_NORM_RANGE" location="vtkDataArray" length="2">
            <Value index="0">
              0
            </Value>
            <Value index="1">
              0
            </Value>
          </InformationKey>
        </DataArray>
        <DataArray type="Float64" Name="Gauss Sigma" NumberOfComponents="6" format="ascii" RangeMin="328122.08498305007" RangeMax="4286157.870345184">
          1102835.4556425372 -1102835.455642539 0 -2462601.2144274344 0 0
          49419.52628108902 -49419.52628108532 0 -2100417.6608409067 0 0
          -979.0360866448973 979.0360866448918 0 -2165452.175822484 0 0
          2983229.5543273 -2983229.5543272956 0 -756195.8356790013 0 0
          423652.14038464474 -423652.140384643 0 -1616628.5107583469 0 0
          305352.8307919091 -305352.83079190535 0 -2271255.440570989 0 0
          726759.3588383329 -726759.3588383275 0 -655327.0289452468 0 0
          1113355.6205043376 -1113355.6205043339 0 -1850583.4033835987 0 0
          964828.4573149667 -964828.4573149648 0 -1156093.0680793808 0 0
          972320.4756458013 -972320.4756458051 0 -429160.750232945 0 0
          873280.7746247038 -873280.7746246964 0 -634050.5452978418 0 0
          230890.8635651071 -230890.8635651071 0 -32294.28584041045 0 0
          380722.4794453257 -380722.47944533307 0 -679752.0386834982 0 0
          -242768.64050850325 242768.64050850325 0 311969.83961614245 0 0
          733790.1324907492 -733790.1324907364 0 -649526.3813688679 0 0
          <InformationKey name="L2_NORM_RANGE" location="vtkDataArray" length="2">
            <Value index="0">
              328122.08498
            </Value>
            <Value index="1">
              4286157.8703
            </Value>
          </InformationKey>
        </DataArray>
      </CellData>
      <Points>
        <DataArray type="Float32" Name="Points" NumberOfComponents="3" format="ascii" RangeMin="0" RangeMax="50.59644256269407">
          0 -17.600000381469727 0 9.600000381469727 -12.289024353027344 0
          0 -8.800000190734863 0 9.600000381469727 -4.738048076629639 0
          19.200000762939453 -6.784512042999268 0 0 0 0
          19.200000762939453 -0.2890239953994751 0 9.600000381469727 3.200000047683716 0
          28.799999237060547 -1.2154879570007324 0 19.200000762939453 6.400000095367432 0
          28.799999237060547 4.2890238761901855 0 28.799999237060547 9.600000381469727 0
          38.400001525878906 4.2890238761901855 0 38.400001525878906 8.73804759979248 0
          38.400001525878906 12.800000190734863 0 48 9.600000381469727 0
          48 12.800000190734863 0 48 16 0
          0 -26.399999618530273 0 9.600000381469727 -19.710975646972656 0
          19.200000762939453 -13.21548843383789 0 28.799999237060547 -6.784512042999268 0
          38.400001525878906 -0.2890239953994751 0 48 6.400000095367432 0
          <InformationKey name="L2_NORM_RANGE" location="vtkDataArray" length="2">
            <Value index="0">
              0
            </Value>
            <Value index="1">
              50.596442563
            </Value>
          </InformationKey>
        </DataArray>
      </Points>
      <Cells>
        <DataArray type="Int64" Name="connectivity" format="ascii" RangeMin="0" RangeMax="23">
          2 3 7 5 0 1
          3 2 18 19 1 0
          3 6 9 7 1 4
          6 3 19 20 4 1
          4 8 10 6 20 21
          8 4 21 22 12 8
          6 10 11 9 10 13
          14 11 8 12 13 10
          13 16 17 14 12 15
          16 13 22 23 15 12
        </DataArray>
        <DataArray type="Int64" Name="offsets" format="ascii" RangeMin="4" RangeMax="60">
          4 8 12 16 20 24
          28 32 36 40 44 48
          52 56 60
        </DataArray>
        <DataArray type="UInt8" Name="types" format="ascii" RangeMin="9" RangeMax="9">
          9 9 9 9 9 9
          9 9 9 9 9 9
          9 9 9
        </DataArray>
      </Cells>
    </Piece>
  </UnstructuredGrid>
</VTKFile>
