<?xml version="1.0"?>
<VTKFile type="UnstructuredGrid" version="0.1" byte_order="LittleEndian" header_type="UInt32" compressor="vtkZLibDataCompressor">
  <UnstructuredGrid>
    <Piece NumberOfPoints="10" NumberOfCells="7">
      <PointData>
        <DataArray type="Float64" Name="Velocity" NumberOfComponents="3" format="ascii" RangeMin="0" RangeMax="0.16107935152935887">
          0.058008997866514866 0.05090849708697456 0 0 0 0
          0 0 0 0.12534650541705084 0.04444537130191206 0
          0.10023990062514987 -0.028090153585776503 0 0.15896150065855685 -0.026034569278142468 0
          0.1526644570789839 0.014992740805316873 0 0.09772611531134051 -0.01986630708743347 0
          0.10188678437271903 0.010234294345986883 0 0.05342288520544797 -0.06822759605869577 0
          <InformationKey name="L2_NORM_RANGE" location="vtkDataArray" length="2">
            <Value index="0">
              0
            </Value>
            <Value index="1">
              0.16107935153
            </Value>
          </InformationKey>
        </DataArray>
        <DataArray type="Float64" Name="Pressure" format="ascii" RangeMin="-3.4627129383667037" RangeMax="-2.427279720100615">
          -2.7424520034848254 -2.7181181997614767 -2.427279720100615 -3.042171921199074 -2.8536966499461585 -3.1641964228315973
          -3.320217154035774 -3.4627129383667037 -2.999156833375909 -3.128862428051869
        </DataArray>
        <DataArray type="Float64" Name="Temperature" format="ascii" RangeMin="562.3067072426448" RangeMax="959.9999999740503">
          661.4103605082007 959.9999999740503 959.9999999740501 659.9297384212775 586.3515882500552 585.4865651529432
          600.7257079620326 568.9837466787582 599.0317821021877 562.3067072426448
        </DataArray>
        <DataArray type="Float64" Name="Density" format="ascii" RangeMin="0.36532085704754985" RangeMax="0.6236952507216519">
          0.5302427111766108 0.36532085704754985 0.36532085704754996 0.5314323667170268 0.5981189951285766 0.5990026819224358
          0.5838072486458887 0.6163761703270124 0.585458122982098 0.6236952507216519
        </DataArray>
        <DataArray type="Float64" Name="stream" format="ascii" RangeMin="-0.027317801463918958" RangeMax="0.009866034472891302">
          -0.021694899849279192 -0.017568607744213288 -0.027317801463918958 0.0003087106322771545 -0.01848193608099641 0.004700020908818065
          0.009866034472891302 0.00818772780041416 -0.012401467198457528 -0.007434692041893058
        </DataArray>
      </PointData>
      <CellData>
        <DataArray type="UInt8" Name="vtkGhostType" format="ascii" RangeMin="1" RangeMax="1">
          1 1 1 1 1 1
          1
        </DataArray>
        <DataArray type="Float64" Name="blocks" format="ascii" RangeMin="0" RangeMax="0.3333333333333334">
          0.3333333333333333 0 0.3333333333333334 0 0.3333333333333333 0.3333333333333333
          0.3333333333333333
        </DataArray>
      </CellData>
      <Points>
        <DataArray type="Float32" Name="Points" NumberOfComponents="3" format="ascii" RangeMin="0.4000000059604645" RangeMax="1.1313708667572155">
          0.20000000298023224 0.6000000238418579 0 0 0.6000000238418579 0
          0 0.4000000059604645 0 0.20000000298023224 0.800000011920929 0
          0.4000000059604645 0.6000000238418579 0 0.4000000059604645 0.800000011920929 0
          0.6000000238418579 0.800000011920929 0 0.800000011920929 0.800000011920929 0
          0.6000000238418579 0.6000000238418579 0 0.800000011920929 0.6000000238418579 0
          <InformationKey name="L2_NORM_RANGE" location="vtkDataArray" length="2">
            <Value index="0">
              0.40000000596
            </Value>
            <Value index="1">
              1.1313708668
            </Value>
          </InformationKey>
        </DataArray>
      </Points>
      <Cells>
        <DataArray type="Int64" Name="connectivity" format="ascii" RangeMin="0" RangeMax="9">
          0 1 2 0 3 1
          4 5 0 5 3 0
          6 5 4 7 6 8
          9 7 8
        </DataArray>
        <DataArray type="Int64" Name="offsets" format="ascii" RangeMin="3" RangeMax="21">
          3 6 9 12 15 18
          21
        </DataArray>
        <DataArray type="UInt8" Name="types" format="ascii" RangeMin="5" RangeMax="5">
          5 5 5 5 5 5
          5
        </DataArray>
      </Cells>
    </Piece>
  </UnstructuredGrid>
</VTKFile>
