<?xml version="1.0"?>
<VTKFile type="UnstructuredGrid" version="0.1" byte_order="LittleEndian" header_type="UInt32" compressor="vtkZLibDataCompressor">
  <UnstructuredGrid>
    <Piece NumberOfPoints="8" NumberOfCells="4">
      <PointData>
        <DataArray type="Float64" Name="Velocity" NumberOfComponents="3" format="ascii" RangeMin="0" RangeMax="0.08665454129832452">
          0 0 0 0.05342288520544797 -0.06822759605869577 0
          0.04308583143860399 -0.0745994069301156 0 0 0 0
          0 0 0 0.07076209570898695 0.010781009118923324 0
          0 0 0 0.026557599513444663 -0.06920057035168761 0
          <InformationKey name="L2_NORM_RANGE" location="vtkDataArray" length="2">
            <Value index="0">
              0
            </Value>
            <Value index="1">
              0.086654541298
            </Value>
          </InformationKey>
        </DataArray>
        <DataArray type="Float64" Name="Pressure" format="ascii" RangeMin="-3.508757586325384" RangeMax="-1.9552907418732535">
          -3.1615578796801067 -3.128862428051869 -2.7869672825139764 -3.508757586325384 -2.0430293569324354 -2.348015165840394
          -1.9552907418732535 -2.431887515802919
        </DataArray>
        <DataArray type="Float64" Name="Temperature" format="ascii" RangeMin="239.99999999351255" RangeMax="602.9612533951048">
          239.99999999351255 562.3067072426448 559.5864796605346 239.99999999351255 601.1818187026897 597.3627917888825
          602.9612533951048 555.4679994167593
        </DataArray>
        <DataArray type="Float64" Name="Density" format="ascii" RangeMin="0.5816427188006359" RangeMax="1.4612834281901996">
          1.4612834281901996 0.6236952507216519 0.6267271199420689 1.4612834281901996 0.5833643198208696 0.5870938524743498
          0.5816427188006359 0.631373946157854
        </DataArray>
        <DataArray type="Float64" Name="stream" format="ascii" RangeMin="-0.037789669664772686" RangeMax="0.0063039248587428015">
          -0.0014432558141620772 -0.0020063588301611115 -0.014195933601092812 0.0063039248587428015 -0.03626127747546142 -0.030567976248196106
          -0.037789669664772686 -0.02889901690751085
        </DataArray>
      </PointData>
      <CellData>
        <DataArray type="UInt8" Name="vtkGhostType" format="ascii" RangeMin="0" RangeMax="0">
          0 0 0 0
        </DataArray>
        <DataArray type="Float64" Name="blocks" format="ascii" RangeMin="2.3333333333333335" RangeMax="2.3333333333333335">
          2.3333333333333335 2.3333333333333335 2.3333333333333335 2.3333333333333335
        </DataArray>
      </CellData>
      <Points>
        <DataArray type="Float32" Name="Points" NumberOfComponents="3" format="ascii" RangeMin="0.4000000059604645" RangeMax="1.280624854933515">
          1 0.6000000238418579 0 0.800000011920929 0.6000000238418579 0
          0.800000011920929 0.4000000059604645 0 1 0.800000011920929 0
          0.6000000238418579 0 0 0.6000000238418579 0.20000000298023224 0
          0.4000000059604645 0 0 0.800000011920929 0.20000000298023224 0
          <InformationKey name="L2_NORM_RANGE" location="vtkDataArray" length="2">
            <Value index="0">
              0.40000000596
            </Value>
            <Value index="1">
              1.2806248549
            </Value>
          </InformationKey>
        </DataArray>
      </Points>
      <Cells>
        <DataArray type="Int64" Name="connectivity" format="ascii" RangeMin="0" RangeMax="7">
          0 1 2 0 3 1
          4 5 6 7 2 5
        </DataArray>
        <DataArray type="Int64" Name="offsets" format="ascii" RangeMin="3" RangeMax="12">
          3 6 9 12
        </DataArray>
        <DataArray type="UInt8" Name="types" format="ascii" RangeMin="5" RangeMax="5">
          5 5 5 5
        </DataArray>
      </Cells>
    </Piece>
  </UnstructuredGrid>
</VTKFile>
