<?xml version="1.0"?>
<VTKFile type="UnstructuredGrid" version="0.1" byte_order="LittleEndian" header_type="UInt32" compressor="vtkZLibDataCompressor">
  <UnstructuredGrid>
    <Piece NumberOfPoints="9" NumberOfCells="7">
      <PointData>
        <DataArray type="Float64" Name="Velocity" NumberOfComponents="3" format="ascii" RangeMin="0" RangeMax="0.08614789832074127">
          0 0 0 0.026557599513444663 -0.06920057035168761 0
          0 0 0 0.07076209570898695 0.010781009118923324 0
          0 0 0 0 0 0
          0 0 0 0.04308583143860399 -0.0745994069301156 0
          0 0 0
          <InformationKey name="L2_NORM_RANGE" location="vtkDataArray" length="2">
            <Value index="0">
              0
            </Value>
            <Value index="1">
              0.086147898321
            </Value>
          </InformationKey>
        </DataArray>
        <DataArray type="Float64" Name="Pressure" format="ascii" RangeMin="-3.1615578796801067" RangeMax="-2.028234302286891">
          -2.0868732694289958 -2.431887515802919 -2.0430293569324354 -2.348015165840394 -2.028234302286891 -2.409400238113709
          -2.810538496041894 -2.7869672825139764 -3.1615578796801067
        </DataArray>
        <DataArray type="Float64" Name="Temperature" format="ascii" RangeMin="239.99999999351255" RangeMax="601.1818187026897">
          546.3939668292907 555.4679994167593 601.1818187026897 597.3627917888825 239.9999999935126 239.99999999351257
          239.99999999351255 559.5864796605346 239.99999999351255
        </DataArray>
        <DataArray type="Float64" Name="Density" format="ascii" RangeMin="0.5833643198208696" RangeMax="1.4612834281901996">
          0.6418592518349298 0.631373946157854 0.5833643198208696 0.5870938524743498 1.4612834281901994 1.4612834281901994
          1.4612834281901996 0.6267271199420689 1.4612834281901996
        </DataArray>
        <DataArray type="Float64" Name="stream" format="ascii" RangeMin="-0.03626127747546142" RangeMax="-0.0014432558141620772">
          -0.030983636765847283 -0.02889901690751085 -0.03626127747546142 -0.030567976248196106 -0.030983636765847283 -0.028582389594245895
          -0.0175052278296718 -0.014195933601092812 -0.0014432558141620772
        </DataArray>
      </PointData>
      <CellData>
        <DataArray type="UInt8" Name="vtkGhostType" format="ascii" RangeMin="0" RangeMax="0">
          0 0 0 0 0 0
          0
        </DataArray>
        <DataArray type="Float64" Name="blocks" format="ascii" RangeMin="2.6666666666666665" RangeMax="3">
          3 2.666666666666667 3 3 3 2.666666666666667
          2.6666666666666665
        </DataArray>
      </CellData>
      <Points>
        <DataArray type="Float32" Name="Points" NumberOfComponents="3" format="ascii" RangeMin="0.6000000238418579" RangeMax="1.1661903912355949">
          0.800000011920929 0 0 0.800000011920929 0.20000000298023224 0
          0.6000000238418579 0 0 0.6000000238418579 0.20000000298023224 0
          1 0 0 1 0.20000000298023224 0
          1 0.4000000059604645 0 0.800000011920929 0.4000000059604645 0
          1 0.6000000238418579 0
          <InformationKey name="L2_NORM_RANGE" location="vtkDataArray" length="2">
            <Value index="0">
              0.60000002384
            </Value>
            <Value index="1">
              1.1661903912
            </Value>
          </InformationKey>
        </DataArray>
      </Points>
      <Cells>
        <DataArray type="Int64" Name="connectivity" format="ascii" RangeMin="0" RangeMax="8">
          0 1 2 1 3 2
          4 5 0 5 1 0
          5 6 1 6 7 1
          6 8 7
        </DataArray>
        <DataArray type="Int64" Name="offsets" format="ascii" RangeMin="3" RangeMax="21">
          3 6 9 12 15 18
          21
        </DataArray>
        <DataArray type="UInt8" Name="types" format="ascii" RangeMin="5" RangeMax="5">
          5 5 5 5 5 5
          5
        </DataArray>
      </Cells>
    </Piece>
  </UnstructuredGrid>
</VTKFile>
