<?xml version="1.0"?>
<VTKFile type="UnstructuredGrid" version="0.1" byte_order="LittleEndian" header_type="UInt32" compressor="vtkZLibDataCompressor">
  <UnstructuredGrid>
    <Piece NumberOfPoints="10" NumberOfCells="8">
      <PointData>
        <DataArray type="Float64" Name="Velocity" NumberOfComponents="3" format="ascii" RangeMin="0" RangeMax="0.16107935152935887">
          0.1526644570789839 0.014992740805316873 0 0.15896150065855685 -0.026034569278142468 0
          0.10023990062514987 -0.028090153585776503 0 0.09772611531134051 -0.01986630708743347 0
          0.10188678437271903 0.010234294345986883 0 0 0 0
          0 0 0 0 0 0
          0 0 0 0 0 0
          <InformationKey name="L2_NORM_RANGE" location="vtkDataArray" length="2">
            <Value index="0">
              0
            </Value>
            <Value index="1">
              0.16107935153
            </Value>
          </InformationKey>
        </DataArray>
        <DataArray type="Float64" Name="Pressure" format="ascii" RangeMin="-3.9035046301330554" RangeMax="-2.8536966499461585">
          -3.320217154035774 -3.1641964228315973 -2.8536966499461585 -3.4627129383667037 -2.999156833375909 -3.6238302378653513
          -3.4567452866300306 -3.7978272941849727 -3.508757586325384 -3.9035046301330554
        </DataArray>
        <DataArray type="Float64" Name="Temperature" format="ascii" RangeMin="239.99999999351255" RangeMax="600.7257079620326">
          600.7257079620326 585.4865651529432 586.3515882500552 568.9837466787582 599.0317821021877 600.1881212412553
          569.479369686678 556.297555298342 239.99999999351255 239.99999999351257
        </DataArray>
        <DataArray type="Float64" Name="Density" format="ascii" RangeMin="0.5838072486458887" RangeMax="1.4612834281901996">
          0.5838072486458887 0.5990026819224358 0.5981189951285766 0.6163761703270124 0.585458122982098 0.5843301630676478
          0.6158397326124809 0.6304324356918726 1.4612834281901996 1.4612834281901994
        </DataArray>
        <DataArray type="Float64" Name="stream" format="ascii" RangeMin="-0.019833725515160515" RangeMax="0.020272101292395834">
          0.004702290956738734 0.003275267876211786 -0.019833725515160515 0.0019312601006259093 -0.017946923345329192 0.020272101292395834
          0.01381747309467477 0.01589783473841339 0.0022480459141523985 0.008400036490322702
        </DataArray>
      </PointData>
      <CellData>
        <DataArray type="UInt8" Name="vtkGhostType" format="ascii" RangeMin="0" RangeMax="0">
          0 0 0 0 0 0
          0 0
        </DataArray>
        <DataArray type="Float64" Name="blocks" format="ascii" RangeMin="0.6666666666666667" RangeMax="1.3333333333333335">
          0.6666666666666667 0.6666666666666667 1 0.6666666666666667 1 1
          1 1.3333333333333335
        </DataArray>
      </CellData>
      <Points>
        <DataArray type="Float32" Name="Points" NumberOfComponents="3" format="ascii" RangeMin="0.7211102782366936" RangeMax="1.4142135623730951">
          0.6000000238418579 0.800000011920929 0 0.4000000059604645 0.800000011920929 0
          0.4000000059604645 0.6000000238418579 0 0.800000011920929 0.800000011920929 0
          0.6000000238418579 0.6000000238418579 0 0.6000000238418579 1 0
          0.4000000059604645 1 0 0.800000011920929 1 0
          1 0.800000011920929 0 1 1 0
          <InformationKey name="L2_NORM_RANGE" location="vtkDataArray" length="2">
            <Value index="0">
              0.72111027824
            </Value>
            <Value index="1">
              1.4142135624
            </Value>
          </InformationKey>
        </DataArray>
      </Points>
      <Cells>
        <DataArray type="Int64" Name="connectivity" format="ascii" RangeMin="0" RangeMax="9">
          0 1 2 3 0 4
          0 5 1 5 6 1
          3 7 0 7 5 0
          8 9 3 9 7 3
        </DataArray>
        <DataArray type="Int64" Name="offsets" format="ascii" RangeMin="3" RangeMax="24">
          3 6 9 12 15 18
          21 24
        </DataArray>
        <DataArray type="UInt8" Name="types" format="ascii" RangeMin="5" RangeMax="5">
          5 5 5 5 5 5
          5 5
        </DataArray>
      </Cells>
    </Piece>
  </UnstructuredGrid>
</VTKFile>
