<?xml version="1.0"?>
<VTKFile type="UnstructuredGrid" version="0.1" byte_order="LittleEndian" header_type="UInt32" compressor="vtkZLibDataCompressor">
  <UnstructuredGrid>
    <Piece NumberOfPoints="11" NumberOfCells="9">
      <PointData>
        <DataArray type="Float64" Name="Velocity" NumberOfComponents="3" format="ascii" RangeMin="0" RangeMax="0.1023995000504067">
          0 0 0 0.05411681793046008 -0.01666426488333328 0
          0 0 0 0.07076209570898695 0.010781009118923324 0
          0.08539768088312383 0.009897797253344623 0 0.04308583143860399 -0.0745994069301156 0
          0.05342288520544797 -0.06822759605869577 0 0.10188678437271903 0.010234294345986883 0
          0.09772611531134051 -0.01986630708743347 0 0 0 0
          0 0 0
          <InformationKey name="L2_NORM_RANGE" location="vtkDataArray" length="2">
            <Value index="0">
              0
            </Value>
            <Value index="1">
              0.10239950005
            </Value>
          </InformationKey>
        </DataArray>
        <DataArray type="Float64" Name="Pressure" format="ascii" RangeMin="-3.9035046301330554" RangeMax="-1.8969999546828615">
          -1.9552907418732535 -2.239392044070398 -1.8969999546828615 -2.348015165840394 -2.6727727188234156 -2.7869672825139764
          -3.128862428051869 -2.999156833375909 -3.4627129383667037 -3.508757586325384 -3.9035046301330554
        </DataArray>
        <DataArray type="Float64" Name="Temperature" format="ascii" RangeMin="239.99999999351255" RangeMax="655.6223423991003">
          602.9612533951048 593.133252294384 655.6223423991003 597.3627917888825 598.740777537013 559.5864796605346
          562.3067072426448 599.0317821021877 568.9837466787582 239.99999999351255 239.99999999351257
        </DataArray>
        <DataArray type="Float64" Name="Density" format="ascii" RangeMin="0.5349238427001007" RangeMax="1.4612834281901996">
          0.5816427188006359 0.5912803259630847 0.5349238427001007 0.5870938524743498 0.5857426718100687 0.6267271199420689
          0.6236952507216519 0.585458122982098 0.6163761703270124 1.4612834281901996 1.4612834281901994
        </DataArray>
        <DataArray type="Float64" Name="stream" format="ascii" RangeMin="-0.03890995636946296" RangeMax="0.006593847276536448">
          -0.037789669664772686 -0.03183184808808363 -0.03890995636946296 -0.030567976248196106 -0.017264868792405096 -0.014195933601092812
          -0.0020063588301611115 -0.0046636437417030005 0.0037374493144121637 0.0063039248587428015 0.006593847276536448
        </DataArray>
      </PointData>
      <CellData>
        <DataArray type="UInt8" Name="vtkGhostType" format="ascii" RangeMin="1" RangeMax="1">
          1 1 1 1 1 1
          1 1 1
        </DataArray>
        <DataArray type="Float64" Name="blocks" format="ascii" RangeMin="0.6666666666666669" RangeMax="1.3333333333333335">
          0.6666666666666669 1.3333333333333335 0.6666666666666669 1.3333333333333335 1.3333333333333335 0.6666666666666669
          0.6666666666666669 1.3333333333333335 0.6666666666666669
        </DataArray>
      </CellData>
      <Points>
        <DataArray type="Float32" Name="Points" NumberOfComponents="3" format="ascii" RangeMin="0.20000000298023224" RangeMax="1.4142135623730951">
          0.4000000059604645 0 0 0.4000000059604645 0.20000000298023224 0
          0.20000000298023224 0 0 0.6000000238418579 0.20000000298023224 0
          0.6000000238418579 0.4000000059604645 0 0.800000011920929 0.4000000059604645 0
          0.800000011920929 0.6000000238418579 0 0.6000000238418579 0.6000000238418579 0
          0.800000011920929 0.800000011920929 0 1 0.800000011920929 0
          1 1 0
          <InformationKey name="L2_NORM_RANGE" location="vtkDataArray" length="2">
            <Value index="0">
              0.20000000298
            </Value>
            <Value index="1">
              1.4142135624
            </Value>
          </InformationKey>
        </DataArray>
      </Points>
      <Cells>
        <DataArray type="Int64" Name="connectivity" format="ascii" RangeMin="0" RangeMax="10">
          0 1 2 3 1 0
          3 4 1 5 4 3
          5 6 4 6 7 4
          6 8 7 9 8 6
          9 10 8
        </DataArray>
        <DataArray type="Int64" Name="offsets" format="ascii" RangeMin="3" RangeMax="27">
          3 6 9 12 15 18
          21 24 27
        </DataArray>
        <DataArray type="UInt8" Name="types" format="ascii" RangeMin="5" RangeMax="5">
          5 5 5 5 5 5
          5 5 5
        </DataArray>
      </Cells>
    </Piece>
  </UnstructuredGrid>
</VTKFile>
