<?xml version="1.0"?>
<VTKFile type="UnstructuredGrid" version="0.1" byte_order="LittleEndian" header_type="UInt32" compressor="vtkZLibDataCompressor">
  <UnstructuredGrid>
    <Piece NumberOfPoints="36" NumberOfCells="50">
      <PointData>
        <DataArray type="Float64" Name="Velocity" NumberOfComponents="3" format="ascii" RangeMin="0" RangeMax="9.82766799382814">
          0 0 0 0 0 0
          0 0 0 6.3320089175025345 -7.515897901487379 0
          0 0 0 0 0 0
          -0.13221534552826178 -2.4133930424362426 0 -0.04877198983444113 -1.2436479834798615 0
          0.3158076035393189 -1.7315981123372608 0 0 0 0
          0 0 0 -0.884689315213644 -1.5369231158812722 0
          -0.46742065018148354 -2.4725491378189264 0 -0.04715726845831328 -1.7257927947918699 0
          0.3408818767604802 -2.1866480693792134 0 0 0 0
          0 0 0 -0.538836171223658 -2.277664752671341 0
          -0.4795747094739679 -2.3342786846238717 0 0.49027681911855386 -2.02838317865061 0
          0.6259990127667511 -2.0566137950474355 0 0.13579980106698405 -2.6976000591304032 0
          0 0 0 0 0 0
          0.7695612170754329 -2.1486749348314205 0 0.4499630032465424 -3.2130131410434504 0
          0 0 0 0 0 0
          0 0 0 0 0 0
          1.5606581583693022 -3.523341191805951 0 0 0 0
          0 0 0 0 0 0
          0 0 0 0 0 0
          <InformationKey name="L2_NORM_RANGE" location="vtkDataArray" length="2">
            <Value index="0">
              0
            </Value>
            <Value index="1">
              9.8276679938
            </Value>
          </InformationKey>
        </DataArray>
        <DataArray type="Float64" Name="Pressure" format="ascii" RangeMin="-19.474276985208743" RangeMax="117.68698912670695">
          117.68698912670695 10.294260468903238 16.18245824860688 -9.591960825372922 -1.276271695731688 -2.692772475772202
          0.40836658673302617 -1.7201158991326524 0.6129536193280998 -0.12472129331639081 0.33940071435401964 -0.3908092922092262
          2.595222557993356 0.7241620393596039 2.502108842438478 0.576156571679338 2.698518848368642 3.947216907353396
          0.19311056197492893 2.500263155523662 4.0617455925437795 0.8297286133359631 2.688855589063786 0.8886013217803287
          3.9602523913977876 2.7850107516649385 2.648434071159746 0.4776307519596953 1.9047622376256805 0.8702181139480765
          2.644509215321352 0.7549214967203587 1.7756625748273327 -2.6885502238242713 -2.6587136989611975 -19.474276985208743
        </DataArray>
        <DataArray type="Float64" Name="Temperature" format="ascii" RangeMin="66.99992463756374" RangeMax="10008.71346967824">
          960 10008.71346967824 959.9999999999998 4547.469515825228 9194.333942130545 959.9999999999999
          2597.8435146812258 4309.080633869695 2388.9068458857473 6701.139249866876 960 3684.5795150617832
          1715.7939489921703 1956.0807459675655 1692.5105225563889 8282.479655182557 960 1484.0432634293372
          3675.054709007796 1106.2133091970225 1664.0221996442092 2101.7932919452073 960 240
          1127.809452182116 1398.63818515743 91.09548411396743 240.00000000000003 180.12481687364584 240.00000000000003
          1616.387955464885 66.99992463756374 240 91.94042922961593 239.99999999999994 239.99999999999997
        </DataArray>
        <DataArray type="Float64" Name="Density" format="ascii" RangeMin="0.0711403336520805" RangeMax="10.627224127678854">
          0.7416908496468565 0.0711403336520805 0.7416908496468567 0.15657569845892008 0.07744152215293473 0.7416908496468566
          0.27408241167611386 0.16523784912828662 0.2980539893747852 0.10625405458857272 0.7416908496468565 0.19324409006519785
          0.4149817733529211 0.36400502235340165 0.4206905695248107 0.08596739687920046 0.7416908496468565 0.479786023229292
          0.19374492954234598 0.6436581532162412 0.4278928585287039 0.3387693825028843 0.7416908496468565 2.966763398587426
          0.6313329031631546 0.5090832090937353 7.816229559416872 2.9667633985874255 3.952943453430146 2.9667633985874255
          0.4405026734167907 10.627224127678854 2.966763398587426 7.74439734105162 2.966763398587427 2.9667633985874264
        </DataArray>
        <DataArray type="Float64" Name="stream" format="ascii" RangeMin="-0.3739649729593723" RangeMax="1.497971830352899">
          0 1.0583244944906576 -0.1153992234915826 0.26346242131092396 0.998182393162935 -0.3739649729593723
          -0.03181453545511668 0.6539637452341045 0.4686835583908142 0.8300046181119551 -0.34182806798456494 0.8357244576344792
          -0.08991840626091163 0.8238098777595377 0.33284389344401805 1.1353284169686837 -0.30904800661022813 -0.17332470099443306
          1.2171339512182173 0.6427711135559862 0.07322394526860909 1.2257423928299553 -0.2832236811241461 1.4441184541927206
          0.3066246735433552 1.0517382958213917 -0.15137325225325093 1.497971830352899 0.012197225788721852 1.4342717068773203
          0.5386625024024644 0.18663683505465026 1.0106403452600823 0.44519877028455657 0.5640781972974906 0.44519877028455657
        </DataArray>
      </PointData>
      <CellData>
        <DataArray type="UInt8" Name="vtkGhostType" format="ascii" RangeMin="0" RangeMax="0">
          0 0 0 0 0 0
          0 0 0 0 0 0
          0 0 0 0 0 0
          0 0 0 0 0 0
          0 0 0 0 0 0
          0 0 0 0 0 0
          0 0 0 0 0 0
          0 0 0 0 0 0
          0 0
        </DataArray>
      </CellData>
      <Points>
        <DataArray type="Float32" Name="Points" NumberOfComponents="3" format="ascii" RangeMin="0" RangeMax="1.4142135623730951">
          0 1 0 0.20000000298023224 1 0
          0 0.800000011920929 0 0.20000000298023224 0.800000011920929 0
          0.4000000059604645 1 0 0 0.6000000238418579 0
          0.20000000298023224 0.6000000238418579 0 0.4000000059604645 0.800000011920929 0
          0.4000000059604645 0.6000000238418579 0 0.6000000238418579 1 0
          0 0.4000000059604645 0 0.6000000238418579 0.800000011920929 0
          0.20000000298023224 0.4000000059604645 0 0.6000000238418579 0.6000000238418579 0
          0.4000000059604645 0.4000000059604645 0 0.800000011920929 1 0
          0 0.20000000298023224 0 0.20000000298023224 0.20000000298023224 0
          0.800000011920929 0.800000011920929 0 0.6000000238418579 0.4000000059604645 0
          0.4000000059604645 0.20000000298023224 0 0.800000011920929 0.6000000238418579 0
          0 0 0 1 1 0
          0.6000000238418579 0.20000000298023224 0 0.800000011920929 0.4000000059604645 0
          0.20000000298023224 0 0 1 0.800000011920929 0
          0.4000000059604645 0 0 1 0.6000000238418579 0
          0.800000011920929 0.20000000298023224 0 0.6000000238418579 0 0
          1 0.4000000059604645 0 0.800000011920929 0 0
          1 0.20000000298023224 0 1 0 0
          <InformationKey name="L2_NORM_RANGE" location="vtkDataArray" length="2">
            <Value index="0">
              0
            </Value>
            <Value index="1">
              1.4142135624
            </Value>
          </InformationKey>
        </DataArray>
      </Points>
      <Cells>
        <DataArray type="Int64" Name="connectivity" format="ascii" RangeMin="0" RangeMax="35">
          26 17 22 17 16 22
          28 20 26 20 17 26
          31 24 28 24 20 28
          33 30 31 30 24 31
          35 34 33 34 30 33
          17 12 16 12 10 16
          20 14 17 14 12 17
          24 19 20 19 14 20
          30 25 24 25 19 24
          34 32 30 32 25 30
          12 6 10 6 5 10
          14 8 12 8 6 12
          19 13 14 13 8 14
          25 21 19 21 13 19
          32 29 25 29 21 25
          6 3 5 3 2 5
          8 7 6 7 3 6
          13 11 8 11 7 8
          21 18 13 18 11 13
          29 27 21 27 18 21
          3 1 2 1 0 2
          7 4 3 4 1 3
          11 9 7 9 4 7
          18 15 11 15 9 11
          27 23 18 23 15 18
        </DataArray>
        <DataArray type="Int64" Name="offsets" format="ascii" RangeMin="3" RangeMax="150">
          3 6 9 12 15 18
          21 24 27 30 33 36
          39 42 45 48 51 54
          57 60 63 66 69 72
          75 78 81 84 87 90
          93 96 99 102 105 108
          111 114 117 120 123 126
          129 132 135 138 141 144
          147 150
        </DataArray>
        <DataArray type="UInt8" Name="types" format="ascii" RangeMin="5" RangeMax="5">
          5 5 5 5 5 5
          5 5 5 5 5 5
          5 5 5 5 5 5
          5 5 5 5 5 5
          5 5 5 5 5 5
          5 5 5 5 5 5
          5 5 5 5 5 5
          5 5 5 5 5 5
          5 5
        </DataArray>
      </Cells>
    </Piece>
  </UnstructuredGrid>
</VTKFile>
