<?xml version="1.0"?>
<VTKFile type="UnstructuredGrid" version="0.1" byte_order="LittleEndian" header_type="UInt32" compressor="vtkZLibDataCompressor">
  <UnstructuredGrid>
    <Piece NumberOfPoints="36" NumberOfCells="50">
      <PointData>
        <DataArray type="Float64" Name="Velocity" NumberOfComponents="3" format="ascii" RangeMin="0" RangeMax="1.1889354331013153">
          0 0 0 0 0 0
          0 0 0 0.027215244045732168 -0.8011432643308645 0
          0 0 0 0 0 0
          0.09082877131975443 -0.7377945937605531 0 0.21617439317995094 -0.6965976446592587 0
          0.23618714699635743 -0.6197127663829657 0 0 0 0
          0 0 0 0.14912702620813456 -0.7161673105390983 0
          0.11853310907174758 -0.6605393095623961 0 0.18557975939966925 -0.6585269020365396 0
          0.2774000452594526 -0.5627153064733771 0 0 0 0
          0 0 0 0.16288978818668193 -0.5907946302674445 0
          0.061305770303781405 -0.8900360058225706 0 0.2711724252461985 -0.551834244399814 0
          0.43078983743360877 -0.6431115498958974 0 0.09187088616160709 -1.001053138027612 0
          0 0 0 0 0 0
          0.5098758552833352 -0.6024686543357908 0 0.10827765039424651 -0.9352257967180453 0
          0 0 0 0 0 0
          0 0 0 0 0 0
          0.3243098388573302 -1.143849025223235 0 0 0 0
          0 0 0 0 0 0
          0 0 0 0 0 0
          <InformationKey name="L2_NORM_RANGE" location="vtkDataArray" length="2">
            <Value index="0">
              0
            </Value>
            <Value index="1">
              1.1889354331
            </Value>
          </InformationKey>
        </DataArray>
        <DataArray type="Float64" Name="Pressure" format="ascii" RangeMin="-3.27978235412331" RangeMax="2.136934976586396">
          1.9694846715476921 2.1316400860883884 1.591762669234271 1.6008853143062014 2.136934976586396 1.0887623075286328
          1.0346329005789834 1.423485422462646 0.7671681826372571 1.9768087935413445 0.5275755043419985 1.2013877650541218
          0.4540689851177124 0.40999130966073893 0.11632043964626265 1.7602448266133437 0.09000685085242141 -0.026015351327860342
          1.0915504555253994 -0.3853835851884866 -0.4765365926133255 0.16334575875659407 -0.12440603579891994 1.6477132058359518
          -1.1473002788622797 -0.7436711694054139 -0.36449534673527356 1.0566187033210572 -0.9841735594287435 0.10252398557120662
          -1.7284411394920878 -1.869442292522567 -0.8635027078395541 -2.6629408423107304 -1.9613593101796492 -3.27978235412331
        </DataArray>
        <DataArray type="Float64" Name="Temperature" format="ascii" RangeMin="239.99999999999997" RangeMax="1130.6695339691257">
          960 950.6039510543641 960 775.9982309593216 1002.0261868806087 960.0000000000001
          655.3826490581403 703.9345469317304 597.1028030433506 930.474411700105 960.0000000000001 657.2129093960339
          658.7849886623463 554.4933952815918 628.3586621470042 1130.6695339691257 960.0000000000001 658.2042465685167
          730.4139302824898 557.8964485521566 659.3924257021273 591.5701749961752 960 240
          591.1534005365196 575.3895104029551 390.0152717299652 240 424.7191835101345 240.00000000000003
          578.8870845418074 369.6434562202258 240 305.5347634251941 239.99999999999997 240.00000000000003
        </DataArray>
        <DataArray type="Float64" Name="Density" format="ascii" RangeMin="0.31774417432233737" RangeMax="1.4969319062601745">
          0.37423297656504356 0.37793200533614857 0.37423297656504356 0.4629696862302186 0.3585371941434581 0.37423297656504356
          0.5481738920289464 0.5103651455499374 0.6016780622554853 0.3861080465888553 0.37423297656504356 0.5466472924772556
          0.5453428109100082 0.6479133215283741 0.5717493513575409 0.31774417432233737 0.37423297656504356 0.5458239739038873
          0.49186309653691235 0.6439611838985475 0.544840437194732 0.6073052237712367 0.37423297656504356 1.4969319062601742
          0.6077333855753532 0.624383397693231 0.9211527946300142 1.4969319062601742 0.8458851670726788 1.4969319062601742
          0.6206109396736691 0.9719194306212744 1.4969319062601742 1.1758519831750749 1.4969319062601745 1.4969319062601742
        </DataArray>
        <DataArray type="Float64" Name="stream" format="ascii" RangeMin="-0.031074693637622837" RangeMax="0.5995762150986246">
          0 0.07502568846633029 -0.006902987569804973 0.0776417148816302 0.23322023178029058 -0.013444301158241696
          0.06301778754142855 0.2281127738663508 0.20510370215629337 0.3756974155171305 -0.01814046319893412 0.3646759352443139
          0.05461975844616579 0.3320042427886556 0.17477533449236973 0.5202887449436432 -0.024485097360942242 0.014000771771371823
          0.5047409691608538 0.26882446221094797 0.07723538178724589 0.4617310945249573 -0.031074693637622837 0.5995762150986246
          0.13718555107748695 0.3774315903505549 -0.0061661657366286204 0.5725701688290125 0.036325273735827335 0.5071592975992817
          0.20636621898074847 0.09369684823195117 0.3535668160901673 0.18224507063102832 0.21918001753023997 0.18224507063102832
        </DataArray>
      </PointData>
      <CellData>
        <DataArray type="UInt8" Name="vtkGhostType" format="ascii" RangeMin="0" RangeMax="0">
          0 0 0 0 0 0
          0 0 0 0 0 0
          0 0 0 0 0 0
          0 0 0 0 0 0
          0 0 0 0 0 0
          0 0 0 0 0 0
          0 0 0 0 0 0
          0 0 0 0 0 0
          0 0
        </DataArray>
      </CellData>
      <Points>
        <DataArray type="Float32" Name="Points" NumberOfComponents="3" format="ascii" RangeMin="0" RangeMax="1.4142135623730951">
          0 1 0 0.20000000298023224 1 0
          0 0.800000011920929 0 0.20000000298023224 0.800000011920929 0
          0.4000000059604645 1 0 0 0.6000000238418579 0
          0.20000000298023224 0.6000000238418579 0 0.4000000059604645 0.800000011920929 0
          0.4000000059604645 0.6000000238418579 0 0.6000000238418579 1 0
          0 0.4000000059604645 0 0.6000000238418579 0.800000011920929 0
          0.20000000298023224 0.4000000059604645 0 0.6000000238418579 0.6000000238418579 0
          0.4000000059604645 0.4000000059604645 0 0.800000011920929 1 0
          0 0.20000000298023224 0 0.20000000298023224 0.20000000298023224 0
          0.800000011920929 0.800000011920929 0 0.6000000238418579 0.4000000059604645 0
          0.4000000059604645 0.20000000298023224 0 0.800000011920929 0.6000000238418579 0
          0 0 0 1 1 0
          0.6000000238418579 0.20000000298023224 0 0.800000011920929 0.4000000059604645 0
          0.20000000298023224 0 0 1 0.800000011920929 0
          0.4000000059604645 0 0 1 0.6000000238418579 0
          0.800000011920929 0.20000000298023224 0 0.6000000238418579 0 0
          1 0.4000000059604645 0 0.800000011920929 0 0
          1 0.20000000298023224 0 1 0 0
          <InformationKey name="L2_NORM_RANGE" location="vtkDataArray" length="2">
            <Value index="0">
              0
            </Value>
            <Value index="1">
              1.4142135624
            </Value>
          </InformationKey>
        </DataArray>
      </Points>
      <Cells>
        <DataArray type="Int64" Name="connectivity" format="ascii" RangeMin="0" RangeMax="35">
          26 17 22 17 16 22
          28 20 26 20 17 26
          31 24 28 24 20 28
          33 30 31 30 24 31
          35 34 33 34 30 33
          17 12 16 12 10 16
          20 14 17 14 12 17
          24 19 20 19 14 20
          30 25 24 25 19 24
          34 32 30 32 25 30
          12 6 10 6 5 10
          14 8 12 8 6 12
          19 13 14 13 8 14
          25 21 19 21 13 19
          32 29 25 29 21 25
          6 3 5 3 2 5
          8 7 6 7 3 6
          13 11 8 11 7 8
          21 18 13 18 11 13
          29 27 21 27 18 21
          3 1 2 1 0 2
          7 4 3 4 1 3
          11 9 7 9 4 7
          18 15 11 15 9 11
          27 23 18 23 15 18
        </DataArray>
        <DataArray type="Int64" Name="offsets" format="ascii" RangeMin="3" RangeMax="150">
          3 6 9 12 15 18
          21 24 27 30 33 36
          39 42 45 48 51 54
          57 60 63 66 69 72
          75 78 81 84 87 90
          93 96 99 102 105 108
          111 114 117 120 123 126
          129 132 135 138 141 144
          147 150
        </DataArray>
        <DataArray type="UInt8" Name="types" format="ascii" RangeMin="5" RangeMax="5">
          5 5 5 5 5 5
          5 5 5 5 5 5
          5 5 5 5 5 5
          5 5 5 5 5 5
          5 5 5 5 5 5
          5 5 5 5 5 5
          5 5 5 5 5 5
          5 5 5 5 5 5
          5 5
        </DataArray>
      </Cells>
    </Piece>
  </UnstructuredGrid>
</VTKFile>
