<?xml version="1.0"?>
<VTKFile type="UnstructuredGrid" version="0.1" byte_order="LittleEndian" header_type="UInt32" compressor="vtkZLibDataCompressor">
  <UnstructuredGrid>
    <Piece NumberOfPoints="36" NumberOfCells="50">
      <PointData>
        <DataArray type="Float64" Name="Velocity" NumberOfComponents="3" format="ascii" RangeMin="0" RangeMax="0.1627714258409748">
          0 0 0 0 0 0
          0 0 0 0.04733422997259523 -0.057212192866633274 0
          0 0 0 0 0 0
          0.013113193375729939 -0.02634370138153585 0 0.04102923447713647 -0.0538929919810014 0
          0.025553738071106075 -0.04423683953388171 0 0 0 0
          0 0 0 0.01813557650543228 -0.04092867057426061 0
          0.010291327235865008 -0.031115492171941796 0 0.027792582633760457 -0.022834619911210798 0
          0.025692839131360744 -0.046960063717239875 0 0 0 0
          0 0 0 -0.006189575006470646 -0.040157498451747015 0
          0.005486617949211459 -0.11950955218643546 0 0.030454806091824715 -0.023295092132375586 0
          0.013302168546703234 -0.052529674048707495 0 0.011034596450781448 -0.11111771046886836 0
          0 0 0 0 0 0
          0.0490689339847971 -0.02521630667436623 0 0.015489502406142868 -0.10278633767605815 0
          0 0 0 0 0 0
          0 0 0 0 0 0
          0.04529183668052951 -0.15634316934362114 0 0 0 0
          0 0 0 0 0 0
          0 0 0 0 0 0
          <InformationKey name="L2_NORM_RANGE" location="vtkDataArray" length="2">
            <Value index="0">
              0
            </Value>
            <Value index="1">
              0.16277142584
            </Value>
          </InformationKey>
        </DataArray>
        <DataArray type="Float64" Name="Pressure" format="ascii" RangeMin="-0.5944961672278294" RangeMax="0.6266261105854581">
          -0.4222949915527242 -0.48503630981600165 -0.2675805730360428 -0.2901409829460014 -0.5556389617527583 -0.055132087616347095
          -0.061605287868148104 -0.3295942057189395 -0.08953599524675532 -0.5944961672278294 0.16664685191886697 -0.3592393829095605
          0.16582492952011155 -0.12071618478489882 0.14429859699055284 -0.5881639274644735 0.3855093924826169 0.3909226056130416
          -0.37715041962628987 0.11130878623314387 0.38122530688444783 -0.1486901362444732 0.5943082400723835 -0.5944529777847577
          0.35095127154795924 0.0764893359166053 0.6189044910095666 -0.37339131590653385 0.6266261105854581 -0.1508421501782943
          0.3050760696282703 0.5776732390572351 0.06690376032782462 0.4783044791755442 0.2823476425816754 0.385726886764327
        </DataArray>
        <DataArray type="Float64" Name="Temperature" format="ascii" RangeMin="239.99999999999997" RangeMax="960">
          960 626.7985794024487 960 619.6637287719251 615.3138664271913 959.9999999999999
          602.3627796472125 597.629436024179 597.7841635732271 611.695904379195 960 599.8822230149407
          611.5487195703749 593.7238524257841 606.62079037281 636.0087381323046 960 601.8618820261908
          606.2562902153154 599.4519260254931 600.733688647014 589.7426716552661 960 240
          606.8330406485243 600.5974668514365 585.72120468429 240 587.9756509870531 240
          587.8700546954918 579.6382301845185 240.00000000000003 555.1112511595334 239.99999999999997 240
        </DataArray>
        <DataArray type="Float64" Name="Density" format="ascii" RangeMin="0.36759625957139525" RangeMax="1.4703850382855812">
          0.36759625957139525 0.5630076722971603 0.36759625957139525 0.5694901812115355 0.5735161003889002 0.3675962595713953
          0.5858469698197802 0.5904869939744101 0.5903341551892934 0.5769082425795984 0.36759625957139525 0.5882694896590565
          0.5770470902734508 0.5943712851466604 0.581734775314349 0.5548546553382881 0.36759625957139525 0.5863345390814813
          0.5820845323736067 0.588691759701731 0.5874356904859651 0.5983837123368657 0.36759625957139525 1.470385038285581
          0.5815313035878901 0.5875689270528188 0.6024921180354947 1.470385038285581 0.6001820119525832 1.470385038285581
          0.600289819782252 0.608814931127303 1.4703850382855808 0.6357147480823113 1.4703850382855812 1.470385038285581
        </DataArray>
        <DataArray type="Float64" Name="stream" format="ascii" RangeMin="-0.004400444792335814" RangeMax="0.046513135074643115">
          0 0.008005614427842771 -0.0008712201903269042 0.004677230781168264 0.017781549663604172 -0.0030777277306773113
          0.0008766105417295124 0.013631191078529573 0.010567370530986034 0.0245654862571706 -0.003793676268380042 0.022705986660100663
          -0.00009887350066642756 0.01909345707336866 0.007896810112158016 0.037395091098520246 -0.004400444792335814 -0.0025755202425931305
          0.03462743873814711 0.01499143705342196 0.002639243825865585 0.031577697906673634 -0.004260200562585995 0.046513135074643115
          0.006997709894844518 0.029187587989629078 -0.002404416088208895 0.04391075943118435 0.0001365306232278896 0.04192893980311655
          0.012893584958384033 0.001801713678788072 0.030173448563399517 0.011428353904959757 0.01598823336836946 0.011428353904959757
        </DataArray>
      </PointData>
      <CellData>
        <DataArray type="UInt8" Name="vtkGhostType" format="ascii" RangeMin="0" RangeMax="0">
          0 0 0 0 0 0
          0 0 0 0 0 0
          0 0 0 0 0 0
          0 0 0 0 0 0
          0 0 0 0 0 0
          0 0 0 0 0 0
          0 0 0 0 0 0
          0 0 0 0 0 0
          0 0
        </DataArray>
      </CellData>
      <Points>
        <DataArray type="Float32" Name="Points" NumberOfComponents="3" format="ascii" RangeMin="0" RangeMax="1.4142135623730951">
          0 1 0 0.20000000298023224 1 0
          0 0.800000011920929 0 0.20000000298023224 0.800000011920929 0
          0.4000000059604645 1 0 0 0.6000000238418579 0
          0.20000000298023224 0.6000000238418579 0 0.4000000059604645 0.800000011920929 0
          0.4000000059604645 0.6000000238418579 0 0.6000000238418579 1 0
          0 0.4000000059604645 0 0.6000000238418579 0.800000011920929 0
          0.20000000298023224 0.4000000059604645 0 0.6000000238418579 0.6000000238418579 0
          0.4000000059604645 0.4000000059604645 0 0.800000011920929 1 0
          0 0.20000000298023224 0 0.20000000298023224 0.20000000298023224 0
          0.800000011920929 0.800000011920929 0 0.6000000238418579 0.4000000059604645 0
          0.4000000059604645 0.20000000298023224 0 0.800000011920929 0.6000000238418579 0
          0 0 0 1 1 0
          0.6000000238418579 0.20000000298023224 0 0.800000011920929 0.4000000059604645 0
          0.20000000298023224 0 0 1 0.800000011920929 0
          0.4000000059604645 0 0 1 0.6000000238418579 0
          0.800000011920929 0.20000000298023224 0 0.6000000238418579 0 0
          1 0.4000000059604645 0 0.800000011920929 0 0
          1 0.20000000298023224 0 1 0 0
          <InformationKey name="L2_NORM_RANGE" location="vtkDataArray" length="2">
            <Value index="0">
              0
            </Value>
            <Value index="1">
              1.4142135624
            </Value>
          </InformationKey>
        </DataArray>
      </Points>
      <Cells>
        <DataArray type="Int64" Name="connectivity" format="ascii" RangeMin="0" RangeMax="35">
          26 17 22 17 16 22
          28 20 26 20 17 26
          31 24 28 24 20 28
          33 30 31 30 24 31
          35 34 33 34 30 33
          17 12 16 12 10 16
          20 14 17 14 12 17
          24 19 20 19 14 20
          30 25 24 25 19 24
          34 32 30 32 25 30
          12 6 10 6 5 10
          14 8 12 8 6 12
          19 13 14 13 8 14
          25 21 19 21 13 19
          32 29 25 29 21 25
          6 3 5 3 2 5
          8 7 6 7 3 6
          13 11 8 11 7 8
          21 18 13 18 11 13
          29 27 21 27 18 21
          3 1 2 1 0 2
          7 4 3 4 1 3
          11 9 7 9 4 7
          18 15 11 15 9 11
          27 23 18 23 15 18
        </DataArray>
        <DataArray type="Int64" Name="offsets" format="ascii" RangeMin="3" RangeMax="150">
          3 6 9 12 15 18
          21 24 27 30 33 36
          39 42 45 48 51 54
          57 60 63 66 69 72
          75 78 81 84 87 90
          93 96 99 102 105 108
          111 114 117 120 123 126
          129 132 135 138 141 144
          147 150
        </DataArray>
        <DataArray type="UInt8" Name="types" format="ascii" RangeMin="5" RangeMax="5">
          5 5 5 5 5 5
          5 5 5 5 5 5
          5 5 5 5 5 5
          5 5 5 5 5 5
          5 5 5 5 5 5
          5 5 5 5 5 5
          5 5 5 5 5 5
          5 5 5 5 5 5
          5 5
        </DataArray>
      </Cells>
    </Piece>
  </UnstructuredGrid>
</VTKFile>
