<?xml version="1.0"?>
<VTKFile type="UnstructuredGrid" version="0.1" byte_order="LittleEndian" header_type="UInt32" compressor="vtkZLibDataCompressor">
  <UnstructuredGrid>
    <Piece NumberOfPoints="36" NumberOfCells="50">
      <PointData>
        <DataArray type="Float64" Name="Velocity" NumberOfComponents="3" format="ascii" RangeMin="0" RangeMax="3.6168351744577767">
          0 0 0 0 0 0
          0 0 0 -0.38417079048028957 -3.2366666716241395 0
          0 0 0 0 0 0
          -0.3740335727021159 -3.2098245462058665 0 0.2076064822239773 -2.2874009673097877 0
          0.4045473844924652 -2.6943981516745517 0 0 0 0
          0 0 0 0.6118094506618937 -1.9379741390294813 0
          -0.04757602431637609 -2.840040715607279 0 0.4941291903471332 -2.4041578254946474 0
          0.5427729484485607 -2.546041656967552 0 0 0 0
          0 0 0 0.06652303483974994 -2.072671487468581 0
          0.259648282267835 -2.1420909789551104 0 0.6532469692340818 -2.213944046332569 0
          0.9379293817197717 -2.1910491468701845 0 0.3627860576874822 -2.962895051632997 0
          0 0 0 0 0 0
          0.9410106668534252 -1.9999651845862072 0 0.3697244766484218 -2.9954499501406664 0
          0 0 0 0 0 0
          0 0 0 0 0 0
          0.9649625220268367 -3.4857343573885005 0 0 0 0
          0 0 0 0 0 0
          0 0 0 0 0 0
          <InformationKey name="L2_NORM_RANGE" location="vtkDataArray" length="2">
            <Value index="0">
              0
            </Value>
            <Value index="1">
              3.6168351745
            </Value>
          </InformationKey>
        </DataArray>
        <DataArray type="Float64" Name="Pressure" format="ascii" RangeMin="-17.301531623610018" RangeMax="11.308820001214832">
          11.308820001214832 8.629678593919273 5.713558114457657 5.211234863258687 7.819890520607536 4.103424749437715
          3.9907634696321432 5.502945780711819 3.631705282348735 7.387305027958672 2.7583415065896175 5.293163861093565
          2.6257531236331295 3.1848780430835424 2.2699576152139387 6.547502238363572 1.7920188413838116 1.6462917757521036
          5.15500120908165 1.6178843102623928 0.6318328265867474 3.020549626166243 0.8874326962636702 6.50728742935396
          -0.6033581676376829 1.541088099241811 0.4145478270194008 5.263660133212214 -1.384037404728423 3.1896773579569193
          -2.0923094228814954 -4.001594971104891 1.3729127768399154 -7.197782074298871 -3.6427962836279892 -17.301531623610018
        </DataArray>
        <DataArray type="Float64" Name="Temperature" format="ascii" RangeMin="90.21764119329383" RangeMax="3641.7551852903675">
          960.0000000000001 3104.9765143407712 960 1855.6420255145385 3641.7551852903675 960
          1260.302409100289 1879.382109372417 1232.192155500676 3052.678316171343 960 1466.5723381048085
          954.105310055611 919.513206901572 934.8268619051477 3322.3573210706822 960.0000000000001 876.8358533323194
          1574.7882132511224 642.8365786894666 992.1553033222121 1038.79058213133 959.9999999999999 240.00000000000006
          714.2506780642351 725.4470832272643 163.2463110892387 239.99999999999997 224.1872548098258 240.00000000000003
          900.8145808628211 143.3863070079583 239.99999999999997 90.21764119329383 239.99999999999997 240
        </DataArray>
        <DataArray type="Float64" Name="Density" format="ascii" RangeMin="0.12860612732188853" RangeMax="5.191357530963854">
          0.48786669899437574 0.15083915413577234 0.4878666989943758 0.2523935245025153 0.12860612732188853 0.4878666989943758
          0.37161876994978554 0.24920532588819724 0.38009658553969244 0.15342331635585044 0.4878666989943758 0.31935146931779235
          0.4908808557069056 0.5093478022058849 0.5010040362769573 0.14096979517051672 0.48786669899437574 0.5341387778050815
          0.2974063604830368 0.7285709098717085 0.47205516058457114 0.45086280054028155 0.48786669899437585 1.9514667959775027
          0.6557250072256567 0.6456046786363298 2.8689899815168003 1.9514667959775034 2.089110870427919 1.951466795977503
          0.519920570763855 3.266365113989623 1.9514667959775034 5.191357530963854 1.9514667959775034 1.9514667959775032
        </DataArray>
        <DataArray type="Float64" Name="stream" format="ascii" RangeMin="-0.02377079900953209" RangeMax="2.062499086766015">
          0 0.2742844821208626 -0.02377079900953209 0.28129605694467347 0.8112067082688426 -0.022181547397165432
          0.283833894881762 0.881562958628364 0.8383645306155479 1.3526137513711662 0.0005347782176347583 1.3806810856213776
          0.2630389836023665 1.283014664739776 0.7041457654042471 1.8151233123068442 0.01645048247126042 0.15449033056227504
          1.8144670940104746 1.0193420945415455 0.3937890520900971 1.6662718357577733 0.02060344231612212 2.062499086766015
          0.6241312194254426 1.3767686779497534 0.13624957235942856 1.9959173895520852 0.31456422092561614 1.787448297547803
          0.8567590617832922 0.5141562304909373 1.3086840289640163 0.783865914269351 0.8962570031367619 0.783865914269351
        </DataArray>
      </PointData>
      <CellData>
        <DataArray type="UInt8" Name="vtkGhostType" format="ascii" RangeMin="0" RangeMax="0">
          0 0 0 0 0 0
          0 0 0 0 0 0
          0 0 0 0 0 0
          0 0 0 0 0 0
          0 0 0 0 0 0
          0 0 0 0 0 0
          0 0 0 0 0 0
          0 0 0 0 0 0
          0 0
        </DataArray>
      </CellData>
      <Points>
        <DataArray type="Float32" Name="Points" NumberOfComponents="3" format="ascii" RangeMin="0" RangeMax="1.4142135623730951">
          0 1 0 0.20000000298023224 1 0
          0 0.800000011920929 0 0.20000000298023224 0.800000011920929 0
          0.4000000059604645 1 0 0 0.6000000238418579 0
          0.20000000298023224 0.6000000238418579 0 0.4000000059604645 0.800000011920929 0
          0.4000000059604645 0.6000000238418579 0 0.6000000238418579 1 0
          0 0.4000000059604645 0 0.6000000238418579 0.800000011920929 0
          0.20000000298023224 0.4000000059604645 0 0.6000000238418579 0.6000000238418579 0
          0.4000000059604645 0.4000000059604645 0 0.800000011920929 1 0
          0 0.20000000298023224 0 0.20000000298023224 0.20000000298023224 0
          0.800000011920929 0.800000011920929 0 0.6000000238418579 0.4000000059604645 0
          0.4000000059604645 0.20000000298023224 0 0.800000011920929 0.6000000238418579 0
          0 0 0 1 1 0
          0.6000000238418579 0.20000000298023224 0 0.800000011920929 0.4000000059604645 0
          0.20000000298023224 0 0 1 0.800000011920929 0
          0.4000000059604645 0 0 1 0.6000000238418579 0
          0.800000011920929 0.20000000298023224 0 0.6000000238418579 0 0
          1 0.4000000059604645 0 0.800000011920929 0 0
          1 0.20000000298023224 0 1 0 0
          <InformationKey name="L2_NORM_RANGE" location="vtkDataArray" length="2">
            <Value index="0">
              0
            </Value>
            <Value index="1">
              1.4142135624
            </Value>
          </InformationKey>
        </DataArray>
      </Points>
      <Cells>
        <DataArray type="Int64" Name="connectivity" format="ascii" RangeMin="0" RangeMax="35">
          26 17 22 17 16 22
          28 20 26 20 17 26
          31 24 28 24 20 28
          33 30 31 30 24 31
          35 34 33 34 30 33
          17 12 16 12 10 16
          20 14 17 14 12 17
          24 19 20 19 14 20
          30 25 24 25 19 24
          34 32 30 32 25 30
          12 6 10 6 5 10
          14 8 12 8 6 12
          19 13 14 13 8 14
          25 21 19 21 13 19
          32 29 25 29 21 25
          6 3 5 3 2 5
          8 7 6 7 3 6
          13 11 8 11 7 8
          21 18 13 18 11 13
          29 27 21 27 18 21
          3 1 2 1 0 2
          7 4 3 4 1 3
          11 9 7 9 4 7
          18 15 11 15 9 11
          27 23 18 23 15 18
        </DataArray>
        <DataArray type="Int64" Name="offsets" format="ascii" RangeMin="3" RangeMax="150">
          3 6 9 12 15 18
          21 24 27 30 33 36
          39 42 45 48 51 54
          57 60 63 66 69 72
          75 78 81 84 87 90
          93 96 99 102 105 108
          111 114 117 120 123 126
          129 132 135 138 141 144
          147 150
        </DataArray>
        <DataArray type="UInt8" Name="types" format="ascii" RangeMin="5" RangeMax="5">
          5 5 5 5 5 5
          5 5 5 5 5 5
          5 5 5 5 5 5
          5 5 5 5 5 5
          5 5 5 5 5 5
          5 5 5 5 5 5
          5 5 5 5 5 5
          5 5 5 5 5 5
          5 5
        </DataArray>
      </Cells>
    </Piece>
  </UnstructuredGrid>
</VTKFile>
