<?xml version="1.0"?>
<VTKFile type="UnstructuredGrid" version="0.1" byte_order="LittleEndian" header_type="UInt32" compressor="vtkZLibDataCompressor">
  <UnstructuredGrid>
    <Piece NumberOfPoints="44" NumberOfCells="60">
      <PointData>
      </PointData>
      <CellData>
        <DataArray type="UInt8" Name="vtkGhostType" format="ascii" RangeMin="0" RangeMax="0">
          0 0 0 0 0 0
          0 0 0 0 0 0
          0 0 0 0 0 0
          0 0 0 0 0 0
          0 0 0 0 0 0
          0 0 0 0 0 0
          0 0 0 0 0 0
          0 0 0 0 0 0
          0 0 0 0 0 0
          0 0 0 0 0 0
        </DataArray>
        <DataArray type="Float64" Name="sgvis" format="ascii" RangeMin="0.37544407287852427" RangeMax="0.4787831559852517">
          0.47878315598525156 0.47415957149805543 0.47878315598525156 0.47415957149805543 0.47878315598525156 0.47415957149805543
          0.47878315598525156 0.47415957149805543 0.47878315598525156 0.47415957149805543 0.4787831559852517 0.47415957149805554
          0.4787831559852517 0.47415957149805554 0.4787831559852511 0.4741595714980549 0.4787831559852517 0.47415957149805554
          0.4787831559852511 0.4741595714980549 0.47596337070155326 0.465174968152675 0.47596337070155326 0.4563551358421567
          0.47596337070155326 0.4563551358421567 0.47596337070155315 0.4563551358421567 0.47596337070155315 0.4563551358421566
          0.4759633707015535 0.4563551358421567 0.4759633707015535 0.4563551358421568 0.4759633707015528 0.45635513584215626
          0.4759633707015535 0.4563551358421568 0.47614739621330504 0.45546576875220535 0.45790315391120595 0.4263150941975802
          0.4548885166327197 0.37544407287852455 0.4548885166327197 0.3754440728785245 0.4548885166327197 0.3754440728785245
          0.4548885166327197 0.3754440728785245 0.4548885166327198 0.37544407287852477 0.4548885166327198 0.37544407287852477
          0.45488851663271934 0.37544407287852427 0.4548885166327198 0.37544407287852477 0.4550375355031576 0.37544407287852427
        </DataArray>
        <DataArray type="Float64" Name="sgtco" format="ascii" RangeMin="0.3815865678806424" RangeMax="0.48689606422733267">
          0.48689606422733245 0.48689606422733245 0.48689606422733245 0.48689606422733245 0.48689606422733245 0.48689606422733245
          0.48689606422733245 0.48689606422733245 0.48689606422733245 0.48689606422733245 0.48689606422733267 0.48689606422733267
          0.48689606422733267 0.48689606422733267 0.486896064227332 0.486896064227332 0.48689606422733267 0.48689606422733267
          0.486896064227332 0.486896064227332 0.4837343812858663 0.4770477247267285 0.4837343812858663 0.4674024709999651
          0.48373438128586643 0.46740247099996524 0.4837343812858662 0.4674024709999651 0.4837343812858662 0.4674024709999651
          0.48373438128586665 0.46740247099996535 0.48373438128586665 0.46740247099996535 0.483734381285866 0.4674024709999648
          0.48373438128586665 0.46740247099996535 0.48383205700613985 0.46633193148865704 0.46443420320218165 0.4357051818964428
          0.461073222912345 0.38158656788064266 0.4610732229123451 0.3815865678806425 0.4610732229123451 0.38158656788064255
          0.461073222912345 0.38158656788064255 0.4610732229123453 0.3815865678806428 0.4610732229123453 0.3815865678806428
          0.46107322291234476 0.3815865678806424 0.4610732229123453 0.3815865678806428 0.46113529485589766 0.3815865678806424
        </DataArray>
      </CellData>
      <Points>
        <DataArray type="Float32" Name="Points" NumberOfComponents="3" format="ascii" RangeMin="0" RangeMax="4.2201894765504395">
          4.099999904632568 1 0 4.099999904632568 0.6666666865348816 0
          3.690000057220459 1 0 3.690000057220459 0.6666666865348816 0
          4.099999904632568 0.3333333134651184 0 3.690000057220459 0.3333333134651184 0
          3.2799999713897705 1 0 3.2799999713897705 0.6666666865348816 0
          4.099999904632568 0 0 3.2799999713897705 0.3333333134651184 0
          3.690000057220459 0 0 2.869999885559082 1 0
          2.869999885559082 0.6666666865348816 0 3.2799999713897705 0 0
          2.869999885559082 0.3333333134651184 0 2.869999885559082 0 0
          2.4600000381469727 1 0 2.4600000381469727 0.6666666865348816 0
          2.4600000381469727 0.3333333134651184 0 2.4600000381469727 0 0
          2.049999952316284 1 0 2.049999952316284 0.6666666865348816 0
          2.049999952316284 0.3333333134651184 0 2.049999952316284 0 0
          1.6399999856948853 1 0 1.6399999856948853 0.6666666865348816 0
          1.6399999856948853 0.3333333134651184 0 1.6399999856948853 0 0
          1.2300000190734863 1 0 1.2300000190734863 0.6666666865348816 0
          1.2300000190734863 0.3333333134651184 0 1.2300000190734863 0 0
          0.8199999928474426 1 0 0.8199999928474426 0.6666666865348816 0
          0.8199999928474426 0.3333333134651184 0 0.8199999928474426 0 0
          0.4099999964237213 1 0 0.4099999964237213 0.6666666865348816 0
          0.4099999964237213 0.3333333134651184 0 0.4099999964237213 0 0
          0 1 0 0 0.6666666865348816 0
          0 0.3333333134651184 0 0 0 0
          <InformationKey name="L2_NORM_RANGE" location="vtkDataArray" length="2">
            <Value index="0">
              0
            </Value>
            <Value index="1">
              4.2201894766
            </Value>
          </InformationKey>
        </DataArray>
      </Points>
      <Cells>
        <DataArray type="Int64" Name="connectivity" format="ascii" RangeMin="0" RangeMax="43">
          39 38 43 38 42 43
          35 34 39 34 38 39
          31 30 35 30 34 35
          27 26 31 26 30 31
          23 22 27 22 26 27
          19 18 23 18 22 23
          15 14 19 14 18 19
          13 9 15 9 14 15
          10 5 13 5 9 13
          8 4 10 4 5 10
          38 37 42 37 41 42
          34 33 38 33 37 38
          30 29 34 29 33 34
          26 25 30 25 29 30
          22 21 26 21 25 26
          18 17 22 17 21 22
          14 12 18 12 17 18
          9 7 14 7 12 14
          5 3 9 3 7 9
          4 1 5 1 3 5
          37 36 41 36 40 41
          33 32 37 32 36 37
          29 28 33 28 32 33
          25 24 29 24 28 29
          21 20 25 20 24 25
          17 16 21 16 20 21
          12 11 17 11 16 17
          7 6 12 6 11 12
          3 2 7 2 6 7
          1 0 3 0 2 3
        </DataArray>
        <DataArray type="Int64" Name="offsets" format="ascii" RangeMin="3" RangeMax="180">
          3 6 9 12 15 18
          21 24 27 30 33 36
          39 42 45 48 51 54
          57 60 63 66 69 72
          75 78 81 84 87 90
          93 96 99 102 105 108
          111 114 117 120 123 126
          129 132 135 138 141 144
          147 150 153 156 159 162
          165 168 171 174 177 180
        </DataArray>
        <DataArray type="UInt8" Name="types" format="ascii" RangeMin="5" RangeMax="5">
          5 5 5 5 5 5
          5 5 5 5 5 5
          5 5 5 5 5 5
          5 5 5 5 5 5
          5 5 5 5 5 5
          5 5 5 5 5 5
          5 5 5 5 5 5
          5 5 5 5 5 5
          5 5 5 5 5 5
          5 5 5 5 5 5
        </DataArray>
      </Cells>
    </Piece>
  </UnstructuredGrid>
</VTKFile>
