<?xml version="1.0"?>
<VTKFile type="UnstructuredGrid" version="0.1" byte_order="LittleEndian" header_type="UInt32" compressor="vtkZLibDataCompressor">
  <UnstructuredGrid>
    <Piece NumberOfPoints="51" NumberOfCells="75">
      <PointData>
        <DataArray type="Float64" Name="nsi_BC" NumberOfComponents="3" format="ascii" RangeMin="0" RangeMax="100">
          0 0 0 0 0 0
          0 0 0 0 0 0
          0 0 0 0 0 0
          0 0 0 0 0 0
          0 0 0 0 0 0
          0 0 0 0 0 0
          0 0 0 0 0 0
          0 0 0 0 0 0
          0 0 0 0 0 0
          0 0 0 0 0 0
          0 0 0 0 0 0
          0 0 0 0 0 0
          0 0 0 0 0 0
          0 0 0 0 0 0
          0 0 0 0 0 0
          0 0 0 0 0 0
          0 0 0 0 0 0
          0 0 0 0 0 0
          0 0 0 0 0 0
          0 0 0 0 0 0
          0 0 0 0 0 0
          0 0 0 0 0 0
          0 0 0 100 0 0
          0 0 0 100 0 0
          100 0 0 100 0 0
          100 0 0
          <InformationKey name="L2_NORM_RANGE" location="vtkDataArray" length="2">
            <Value index="0">
              0
            </Value>
            <Value index="1">
              100
            </Value>
          </InformationKey>
        </DataArray>
        <DataArray type="Float64" Name="nsi_FIXNO" NumberOfComponents="3" format="ascii" RangeMin="1" RangeMax="1.4142135623730951">
          0 1 0 -1 -1 0
          0 1 0 -1 -1 0
          -1 -1 0 0 1 0
          -1 -1 0 -1 -1 0
          -1 -1 0 0 1 0
          -1 -1 0 -1 -1 0
          -1 -1 0 -1 -1 0
          0 1 0 0 1 0
          -1 -1 0 0 1 0
          0 1 0 -1 -1 0
          -1 -1 0 -1 -1 0
          0 1 0 0 1 0
          -1 -1 0 -1 -1 0
          -1 -1 0 0 1 0
          -1 -1 0 0 1 0
          1 1 0 -1 -1 0
          -1 -1 0 1 1 0
          0 1 0 -1 -1 0
          1 1 0 -1 -1 0
          -1 -1 0 -1 -1 0
          0 1 0 -1 -1 0
          0 1 0 -1 -1 0
          -1 -1 0 1 1 0
          0 1 0 1 1 0
          1 1 0 1 1 0
          1 1 0
          <InformationKey name="L2_NORM_RANGE" location="vtkDataArray" length="2">
            <Value index="0">
              1
            </Value>
            <Value index="1">
              1.4142135624
            </Value>
          </InformationKey>
        </DataArray>
        <DataArray type="Float64" Name="Velocity" NumberOfComponents="3" format="ascii" RangeMin="0" RangeMax="100.00000000000273">
          49.99480543747155 0 0 49.997030839154505 -0.0000745365220424259 0
          49.997754137478935 0 0 49.993446103994394 0.0010586150568754032 0
          49.99997814842454 0.0010894735443707781 0 49.99100212933913 0 0
          49.99974527308533 0.004254646634354235 0 49.99326243433338 0.009208175168241397 0
          50.00522459569286 0.001087771574774525 0 50.01754499623262 0 0
          50.00710699312547 0.014320334643488133 0 50.00403625600073 0.0037365407283370166 0
          49.90935764428916 -0.033857668188527895 0 49.95126849373798 0.004680565032065901 0
          50.007812861662714 0 0 50.16359642557121 0 0
          49.996020007038105 0.03294069682559857 0 50.00289895365399 0 0
          50.04551696823316 0 0 49.99635152381498 0.3091578805360385 0
          49.93771637211644 -0.25882779703122255 0 50.25051644669379 0.025444016820992312 0
          49.93493635074597 0 0 51.74768749783954 0 0
          49.041534705157254 -0.380068087870256 0 49.724209170187 -0.2712259886271896 0
          48.73576335319677 0.3566373389442075 0 50.43043087297062 0 0
          62.746365780600875 -2.5377930947730722 0 51.14412944921313 0 0
          0 0 0 48.394064573986796 0.027376537035895415 0
          62.474601060165064 3.0543506648931387 0 0 0 0
          51.37358186334977 0 0 49.61951462070887 0.7544954545628246 0
          0 0 0 49.932421884709356 1.658053715457338 0
          51.44609864628537 -0.4092457386948352 0 54.93173766389268 -1.0703442179424558 0
          48.033874368195924 0 0 53.9039259423755 1.3054722469116515 0
          50.943403711150694 0 0 49.96352855197658 -0.6617224238576336 0
          48.709600543546436 2.0785239181872086 0 100.00000000000271 0 0
          51.10848907255411 0 0 100.00000000000273 0 0
          100.00000000000271 0 0 100.00000000000273 0 0
          100.00000000000271 0 0
          <InformationKey name="L2_NORM_RANGE" location="vtkDataArray" length="2">
            <Value index="0">
              0
            </Value>
            <Value index="1">
              100
            </Value>
          </InformationKey>
        </DataArray>
        <DataArray type="Float64" Name="Pressure" format="ascii" RangeMin="0" RangeMax="7543926.175332769">
          0 0 999921.9790872859 1214208.4329632435 0 1999828.3586151027
          1000016.0783164917 2449106.6606789376 0 2999776.5511307954 2000003.055786174 1416796.9115183807
          3472794.219798269 2999921.3150668135 0 4000738.356946875 2500352.784851404 1000118.7463074363
          2000344.8862667999 3999229.776575199 4389833.53796727 3567932.7279036366 3001003.560092905 5002147.855460096
          5066342.05200448 5181721.656385309 4904476.321570535 4002933.7980238353 5711622.605070007 6015602.466241792
          5688962.042019099 6115453.110514688 5631848.535191619 6168382.392092313 5008477.894915542 5562587.510417446
          6170372.967081646 6527393.221029319 6253737.247645488 6604692.138803789 7007721.703619723 7136471.771353818
          6027363.727126381 7207168.268256031 7157771.538197062 7543926.175332769 7032772.9973664805 7504361.871354891
          7509001.624987277 7510696.633508384 7410219.803201429
        </DataArray>
        <DataArray type="Float64" Name="Timom" format="ascii" RangeMin="0.0007245290377010126" RangeMax="0.0013190752851787104">
          0.0011797035066413832 0.0013190752851787104 0.0012421136123600734 0.0012253878053053015 0.0012665648057732987 0.001149665781917551
          0.0011347936488178944 0.001056575364267971 0.0011404115274873102 0.0010337328798989554 0.0010609966854417958 0.0010982021204137698
          0.0009643834934874748 0.0009839025616252578 0.0010963603979389253 0.001006269608009971 0.001016463159403403 0.0011198699286198795
          0.000981906334663349 0.00100327298180897 0.0009510573200568071 0.0010026253227892578 0.0009781692435423203 0.0010867220349305067
          0.0010006876711428777 0.0009520252014533247 0.0009714819966546523 0.0009869410233956466 0.0008167741181188648 0.0010443112180099298
          0.0007780157609995308 0.000985801785140493 0.000791223067439666 0.0007245290377010126 0.0008727769221624957 0.0007882507494718896
          0.0007699595975593658 0.000820662399890483 0.0009015631124168528 0.0007816083764429999 0.0009806417290820833 0.0008920523567363305
          0.0008816357751412749 0.0008138263798102523 0.0009570418118755781 0.000882483386244145 0.0010022093099793328 0.0007902941646910266
          0.0008555342380752207 0.0009702880889892899 0.0009718561482445458
        </DataArray>
        <DataArray type="Float64" Name="Tidiv" format="ascii" RangeMin="1732.9588555991972" RangeMax="4270.901527977207">
          3681.770559733799 3344.1610679831083 3801.6752418626284 3629.537209484946 3011.3486239555637 4240.305577849416
          3276.4796281130143 4151.976138493233 3554.4544869733313 4263.501046134602 3523.710148588266 3410.410798937578
          4105.923832725064 3657.280061817922 3762.0862836755086 3863.9218778473655 3270.2705750133537 3626.960433216101
          3463.4363095508143 3381.1092099392545 3768.376276090177 3557.20399526859 3454.449787745498 2667.9455928109433
          3091.24881803831 2839.5155699851593 3575.1857499736175 4077.024170187491 2575.4927054025916 2653.9417715850686
          1765.0535343284437 2729.9989258170863 2650.818851880333 1732.9588555991972 4011.3187637567576 3517.9657359230864
          1893.7469767602558 2536.042124503654 3441.8924235644176 2590.0801374648086 3022.78498049356 3161.9792667380175
          3754.2255655879308 3090.616672894062 3560.056854150331 3586.9586690796646 3996.186188565455 3650.888101470547
          3469.6851522960415 4088.627578421568 4270.901527977207
        </DataArray>
        <DataArray type="Float64" Name="DISSI_NS" format="ascii" RangeMin="-743908.4609857029" RangeMax="3961879.778052731">
          -0.6796622118338904 55.91648153488214 45.336201206653605 56.006870522378726 36.94594212051484 201.2233060547955
          86.51918827435463 -1294.8899602029812 -137.8783821034958 4239.285377516992 0.35954682986814795 -102.60490081521004
          1432.8300558696403 3442.754229306167 24.886410561570337 -14420.241422690495 553.5682478908685 77.61691864496247
          -482.92025984119203 -2841.1420999648117 -19782.453638387535 -5505.934175721711 4745.24479184895 67068.73432627622
          119055.08418282539 322266.77896590234 92475.45659083058 -5819.064927621465 628878.5892926137 410775.9407115231
          1280430.28626761 735307.3174337771 1116367.885653845 2905471.1199831176 3153.1244471955124 200449.62525328773
          3961879.778052731 1833003.0384116275 2068131.287417449 3259199.645887823 951039.9387662741 902037.9748323371
          816173.5850052015 980837.360716742 1263264.5704036225 -743908.4609857029 1376049.318759684 -689905.9516809266
          -538145.6884495773 -664189.9522181185 -731135.4762876392
        </DataArray>
        <DataArray type="Float64" Name="Proj_residual_U" NumberOfComponents="3" format="ascii" RangeMin="220719.4936133035" RangeMax="536693.8286379476">
          -499962.3994373784 -6.944616161504416e-9 0 -499965.25567559456 -2.709168017604369 0
          -499959.6032177218 -5.414781542727651 0 -499954.6945405384 -26.870599730314314 0
          -499988.1917290128 -15.643283874441654 0 -499946.0736631338 15.148322426732575 0
          -500008.9178661057 -43.85880705144379 0 -499850.545803773 -29.862684499677414 0
          -500038.5372170058 -17.213021461512554 0 -500067.8470967137 234.2878366243815 0
          -499974.7514883815 -118.75974495417454 0 -500066.5586263368 -64.32669549821486 0
          -499627.49864193966 166.5606988991686 0 -499857.08607605996 -344.82674227191444 0
          -500057.0231812967 0.0000014790580144018076 0 -500399.32237400615 1067.691426496599 0
          -500170.67022131087 -207.57863228512937 0 -500073.32979586604 -18.797579980977243 0
          -500166.53631662164 -97.89270511533103 0 -498464.289891584 -1455.9337897442751 0
          -498436.6287274287 1775.8133965211173 0 -500213.0489589156 -792.8253638396 0
          -500597.3607991199 -398.39641606390546 0 -505297.1393301284 430.64892203983726 0
          -504548.24632546207 4073.05302591099 0 -491431.75439027336 670.3738793988513 0
          -501844.3085833463 -3964.1854698644356 0 -501425.8319869125 -1566.4142482939344 0
          -511763.8096497957 11531.283385739616 0 -500505.81792299193 -2367.725823386555 0
          -493608.5321571252 757.3664546733223 0 -502232.60740739194 -663.9873461599141 0
          -501374.10013893613 -15901.026489922335 0 -536251.1244912931 240.7708909136415 0
          -505361.9260646171 -3653.580259998037 0 -511000.4264211577 -5878.569744690044 0
          -536651.2031138692 -6764.014672910949 0 -492463.74181802006 -7228.267235098914 0
          -499466.73580120085 -930.741821522737 0 -487839.7507051045 2463.9468112704985 0
          -423595.328636931 -11978.00300406454 0 -364454.25914699276 -5851.7549851037875 0
          -508752.5854910144 -1431.6970508148959 0 -327436.37838254066 -1152.1379083607912 0
          -348974.26819141675 4369.157441063503 0 -269918.11072195147 -6021.419370747833 0
          -367580.47928590735 11770.345134603238 0 -237464.49666902766 832.0286067015312 0
          -235542.23143649238 3894.3959677612975 0 -237035.6716837492 24072.408352900075 0
          -214926.02565482832 50238.41515347782 0
          <InformationKey name="L2_NORM_RANGE" location="vtkDataArray" length="2">
            <Value index="0">
              220719.49361
            </Value>
            <Value index="1">
              536693.82864
            </Value>
          </InformationKey>
        </DataArray>
        <DataArray type="Float64" Name="Proj_residual_P" format="ascii" RangeMin="-32.1174831093267" RangeMax="36.90818102947456">
          -0.001437081742672346 0.00033125967040578626 0.0009329028081999371 -0.0011684722084548832 0.00040945303144856337 -0.0051357114585237
          -0.0011073166768880685 0.012492470069223882 0.0018052041312818159 -0.009700465589487247 0.005058060673119519 0.0002533248016198296
          -0.04393472229229679 -0.017850278417119274 0.0030008397917494515 0.04671165190469889 -0.02299193497599798 -0.0036017102013752244
          0.02287834291126152 0.06590439059584147 0.13069519581114503 0.18246498350974572 -0.08924696477988063 0.18174801389005274
          -0.9666840849639962 2.255897790309066 -1.2810406005282955 0.040676281350575376 5.584470458773274 0.9086959879323198
          36.90818102947456 0.34586965912088385 11.82871215646728 -20.108612957218302 0.1131018412076696 0.011327600482559298
          -13.649644031315987 -2.969760477130111 -0.6356809307990581 -18.751592285831205 -9.909127319570718 -15.202977387404507
          -0.27938875832048116 -16.85622491463618 -15.095743578162514 -26.737642293370847 -12.012519181935621 -28.523244031734187
          -32.1174831093267 -27.5955323325288 -24.44575546372431
        </DataArray>
      </PointData>
      <CellData>
        <DataArray type="UInt8" Name="vtkGhostType" format="ascii" RangeMin="0" RangeMax="0">
          0 0 0 0 0 0
          0 0 0 0 0 0
          0 0 0 0 0 0
          0 0 0 0 0 0
          0 0 0 0 0 0
          0 0 0 0 0 0
          0 0 0 0 0 0
          0 0 0 0 0 0
          0 0 0 0 0 0
          0 0 0 0 0 0
          0 0 0 0 0 0
          0 0 0 0 0 0
          0 0 0
        </DataArray>
        <DataArray type="Float64" Name="Velocity_SGS" NumberOfComponents="3" format="ascii" RangeMin="0" RangeMax="51.45495060339155">
          6.9002354047913e-310 6.9002354047913e-310 4.66212355149505e-310 48.82886384701128 6.838208065233449 0
          46.12985464268067 0.13242044489169003 0 51.114523625033215 -5.909096054675837 0
          45.89841561753556 -1.9769086854398785 0 44.553132737007914 0.42628392588826014 0
          39.93045011490133 -5.098474014168152 0 34.99766523293363 3.8612034319620907 0
          46.212595113791735 -0.9406085707999863 0 44.291660576561036 3.871024506274673 0
          44.303824739767265 1.003601938618042 0 40.059940567735026 0.6256530719304179 0
          45.66404550427237 -0.8701837685933426 0 46.2247112193651 0.06726447439941763 0
          41.24071669064417 -0.7373134016510479 0 43.29735781632086 -0.5736575003698045 0
          43.82432427920433 1.0448708182595483 0 41.16545712427642 0.2252451884518838 0
          44.95534287290283 -0.8145763997490996 0 45.30705554693303 1.3772295593632058 0
          43.48045942390341 0.2542236821519104 0 47.31287605458162 -0.13075606397244366 0
          44.71436187558619 -0.11945582424263582 0 20.142091051493562 -1.344038713779962 0
          19.97190232321814 0.2424396768980412 0 20.587696062004916 1.5755598950714425 0
          21.843271091279988 -1.8292560591600617 0 45.478313039899064 0.7250980603722526 0
          45.29102281264588 -0.0041924902041718184 0 46.17193530656501 -0.15359931589127473 0
          41.57143701479152 -1.327158415156312 0 44.86222906039487 0.5095774610044728 0
          22.400601837622077 -0.0429271349845263 0 22.315040690684075 -1.6862560286846215 0
          19.390688001093416 -4.554361369531186 0 45.63999463222219 -1.7999067573211223e-10 0
          45.73959573197554 -0.08864150232513163 0 45.73259132407749 0.06740303242934897 0
          45.76125276501865 0.02387295984308331 0 45.16574131358222 0.09894718266795566 0
          44.14927734317749 0.016377123518907105 0 45.98074269053555 0.0061431163453181375 0
          44.13591398431815 0.004026173618100067 0 45.89665859651296 0.014468527467468503 0
          46.88727772781303 0.0014009447674232115 0 45.634233838670355 0.006998031729857633 0
          45.74466652488415 0.004433011779692399 0 45.635226439575426 0.004576650199956718 0
          47.08143345293799 0.000030525437722446766 0 45.13412421957261 0.00961154584105943 0
          46.460118231541855 -0.0013268667645036372 0 45.62964328046942 0.010424513376985176 0
          44.21181827544956 0.020405397591814943 0 45.63052947307594 0.02016313032629981 0
          45.659158944779065 -0.017032261688913232 0 45.60552648220289 0.03440307095556394 0
          45.76890078487088 0.03295410997381241 0 43.40090074913525 0.045819696717240316 0
          44.78118499255912 -0.10038633912633574 0 46.717862455714595 0.5559672700819078 0
          44.096012019173855 0.07839330198029326 0 45.95863958453438 0.11700670230526453 0
          45.632054796030054 8.451224087102087e-13 0 46.67946156943164 0.004376052832679384 0
          45.192677712521146 0.28409647136850186 0 46.18117037306293 0.14830214724661306 0
          45.63415430947927 -0.003821327613828907 0 45.82565001083065 -0.09557168174045196 0
          44.74591176146184 0.0001342069853905044 0 45.63115025861197 0.0007689882838217247 0
          45.9116096587943 0.24750915728832662 0 26.737163736893795 3.1627232540359795 0
          43.971178590584934 -0.24038998650664284 0 45.68196699454645 -0.04299430142988074 0
          44.02183007299084 1.3403126031092722 0 46.839931568391954 0.0006059875193191942 0
          <InformationKey name="L2_NORM_RANGE" location="vtkDataArray" length="2">
            <Value index="0">
              0
            </Value>
            <Value index="1">
              51.454950603
            </Value>
          </InformationKey>
        </DataArray>
        <DataArray type="Float64" Name="Residual_U" NumberOfComponents="3" format="ascii" RangeMin="219745.24287060884" RangeMax="582896.6509640397">
          -575660.4956419346 -80628.49690918246 0 -530958.4042212783 -1519.8619680434267 0
          -579039.3958287775 66946.87284211161 0 -510508.11341155146 21997.120822375433 0
          -540193.6946631854 -5167.293333023781 0 -464680.3710128382 59341.703149706955 0
          -395308.95760609047 -43627.79152339899 0 -545279.7671312649 11098.02926853571 0
          -508261.78565082373 -44431.21785995721 0 -519924.4260349467 -11777.46671513062 0
          -460933.9771773976 -7198.829654730582 0 -517788.5114307697 9867.285210243983 0
          -518239.77990484354 -754.1218791447827 0 -469158.8388078903 8387.771092581726 0
          -496573.0076691477 6579.219730423256 0 -504903.701227286 -12038.148348855064 0
          -454588.1400397377 -2487.3816807066723 0 -508683.6116056257 9217.168047152138 0
          -491893.5530798915 -14952.43092554533 0 -504767.15212155296 -2951.2991484875433 0
          -508135.0710555598 1404.3052141717287 0 -494765.50399604 1321.7815946364115 0
          -228020.88138851765 15211.606578648483 0 -227471.97651325757 -2761.3496871538673 0
          -233358.7471657996 -17854.292882354075 0 -245851.08545552194 20586.85479533041 0
          -507499.1535252343 -8091.694707590943 0 -513064.7076087423 47.19683588847356 0
          -500617.2515115051 1665.3941387666118 0 -471902.93155174004 15065.373367039127 0
          -509244.7641090492 -5784.368634473305 0 -244558.44755684794 470.08495519580174 0
          -246623.41912449576 18634.324078378148 0 -213925.3921513986 50238.41515347781 0
          -500057.02319721587 0.000001972077352535379 0 -501468.8769972833 971.826645110438 0
          -501202.7883165473 -738.6983071479376 0 -500299.99425711366 -260.999009890503 0
          -499956.3594525355 -1095.2832688755707 0 -500277.2849078736 -185.57728193042817 0
          -500096.7715658193 -66.81389800794456 0 -500133.1336272716 -45.623227126729475 0
          -500095.4930890268 -157.6508094355984 0 -500045.1158553099 -14.940845843082514 0
          -499997.0091353939 -76.67478207554623 0 -500042.19616280345 -48.45795399399941 0
          -499997.00937923207 -50.14353146700032 0 -499966.7133010697 -0.32415543986316686 0
          -499921.1550026125 -106.46080280354695 0 -499910.7986291058 14.277084285727124 0
          -499932.43404153746 -114.21418120593196 0 -499658.9987259614 -230.61120136355197 0
          -499932.43820021383 -220.90918124661823 0 -499669.7506379341 186.39208764018917 0
          -499675.80882401404 -376.93638674118887 0 -500316.575192268 -360.23341514131664 0
          -498667.5618430049 -526.4590423834115 0 -499266.0450207937 1119.2086746272366 0
          -497427.60896213166 -5919.651531812243 0 -499675.7818175703 -888.3169488502439 0
          -499887.2987733843 -1272.669720229981 0 -499962.39944341197 -9.259488215339309e-9 0
          -499994.87702755595 -46.872948495522216 0 -494586.6512479901 -3109.139163341407 0
          -506432.69887722575 -1626.313413525381 0 -499986.78839196626 41.86805584438714 0
          -502785.14600228076 1048.5835465818636 0 -500007.2629248813 -1.4996781781847912 0
          -499949.96144009684 -8.425289756354326 0 -503228.9782769887 -2712.903850804445 0
          -292512.1412356735 -34597.32036369415 0 -493387.84286525927 2697.332557370046 0
          -500550.8374479386 471.1012901577966 0 -479117.928053817 -14587.490471991077 0
          -499965.9841659778 -6.468266206717598 0
          <InformationKey name="L2_NORM_RANGE" location="vtkDataArray" length="2">
            <Value index="0">
              219745.24287
            </Value>
            <Value index="1">
              582896.65096
            </Value>
          </InformationKey>
        </DataArray>
        <DataArray type="Float64" Name="Residual_P" format="ascii" RangeMin="-71.40437167893835" RangeMax="61.05421768504398">
          31.24201493742502 -62.01349246264991 32.438735938766996 38.446922878860775 -62.12734413257185 19.066212436401983
          61.05421768504398 -71.40437167893835 16.241993894020453 5.916318766597419 3.5193238318863544 -12.154322998413466
          -1.4037073770905288 0.05266740168929274 0.22532764407139427 -4.654080106870246 2.707761670028991 -0.10827424146609774
          -3.521145252948818 0.22396856985709584 0.841028501833069 -0.18281406590359184 -33.36389340258882 -32.317936523475204
          -26.76178748643364 -26.685311731032698 -11.403829084948136 7.997441156375658 0.646868015376837 0.9729791769262628
          0.6907249345078628 -30.875715801426743 -27.941112028279328 -24.4457554637243 0.0030008397917494507 -0.5841122861396357
          -0.2340244627392794 -0.09702314057994935 0.5569114668010299 0.07430862681020864 0.015342556141576171 -0.019205938791402193
          0.0006066153141317011 0.0019610700435593806 -0.0008883121071977043 0.0014447858929572317 -0.006381325672484251 0.00123002558822871
          -0.00428762632872824 -0.0025794857865558073 0.02756229484220981 0.03236184195657491 0.014386018288999582 0.04607693659805063
          -0.10821908694385668 -0.13961194878892763 -0.2656586919076415 0.016001917833689323 0.07582612706089431 0.07183182310293654
          0.7300850645469981 -0.0014370817426723457 -0.00093254774558624 1.535370246030019 0.2820217298346205 -0.017188779014138823
          -0.2534388493700829 0.0008201788039529625 0.0029614563958850707 -0.326871551773116 -26.79377918453203 -3.017142208065813
          -0.05893420000660321 1.8942207186145308 0.0007852707691727316
        </DataArray>
      </CellData>
      <Points>
        <DataArray type="Float32" Name="Points" NumberOfComponents="3" format="ascii" RangeMin="0" RangeMax="17.88854381999832">
          16 8 0 16 6 0
          14 8 0 13.571430206298828 5.4463372230529785 0
          16 4 0 12 8 0
          14 3.464102029800415 0 11.101200103759766 5.649384021759033 0
          16 2 0 10 8 0
          12 3.464102029800415 0 13.166669845581055 1.776708960533142 0
          9.0526123046875 5.597301006317139 0 10 3.464102029800415 0
          16 0 0 8 8 0
          11 1.7320510149002075 0 14 0 0
          12 0 0 8 3.464102029800415 0
          7.214476108551025 5.006220817565918 0 8.865592002868652 1.8541419506072998 0
          10 0 0 6 8 0
          5.868243217468262 6.172163009643555 0 5.61288595199585 4.4169921875 0
          6.193554878234863 2.464600086212158 0 8 0 0
          4.574699878692627 4.995409965515137 0 4 8 0
          4.5 4 0 3.80739688873291 6.614357948303223 0
          4.723260879516602 3.0721371173858643 0 3.75 4.433012962341309 0
          6 0 0 4.8942999839782715 1.5862879753112793 0
          3.75 3.5669870376586914 0 3.0087170600891113 5.149643898010254 0
          3.5546820163726807 2.3947041034698486 0 2.864197015762329 3.831125020980835 0
          2 8 0 1.7273950576782227 6.389729976654053 0
          4 0 0 1.5482569932937622 4.574378967285156 0
          1.6611889600753784 2.800034999847412 0 0 8 0
          2 0 0 0 6 0
          0 4 0 0 2 0
          0 0 0
          <InformationKey name="L2_NORM_RANGE" location="vtkDataArray" length="2">
            <Value index="0">
              0
            </Value>
            <Value index="1">
              17.88854382
            </Value>
          </InformationKey>
        </DataArray>
      </Points>
      <Cells>
        <DataArray type="Int64" Name="connectivity" format="ascii" RangeMin="0" RangeMax="50">
          30 36 32 36 33 39
          33 30 28 32 36 38
          39 33 37 28 30 25
          30 32 25 36 39 38
          33 28 37 32 38 35
          39 37 43 28 25 24
          35 38 42 43 37 41
          24 25 20 32 35 26
          39 43 44 28 24 31
          41 37 31 26 35 34
          31 24 23 20 25 19
          44 43 48 48 43 47
          43 41 47 47 41 45
          32 26 25 28 31 37
          24 20 15 39 44 38
          35 42 34 44 48 49
          44 49 46 50 46 49
          14 8 17 15 23 24
          27 22 21 21 22 16
          27 21 26 16 22 18
          16 18 11 11 18 17
          16 11 10 11 17 8
          10 11 6 6 11 8
          10 6 3 3 4 1
          10 3 7 7 3 5
          10 7 13 13 7 12
          10 13 16 12 7 9
          13 12 19 16 13 21
          19 12 20 20 12 15
          19 25 26 21 13 19
          21 19 26 0 2 1
          4 3 6 29 40 31
          29 31 23 5 9 7
          46 42 38 8 4 6
          2 5 3 34 27 26
          40 45 41 40 41 31
          9 15 12 38 44 46
          1 2 3
        </DataArray>
        <DataArray type="Int64" Name="offsets" format="ascii" RangeMin="3" RangeMax="225">
          3 6 9 12 15 18
          21 24 27 30 33 36
          39 42 45 48 51 54
          57 60 63 66 69 72
          75 78 81 84 87 90
          93 96 99 102 105 108
          111 114 117 120 123 126
          129 132 135 138 141 144
          147 150 153 156 159 162
          165 168 171 174 177 180
          183 186 189 192 195 198
          201 204 207 210 213 216
          219 222 225
        </DataArray>
        <DataArray type="UInt8" Name="types" format="ascii" RangeMin="5" RangeMax="5">
          5 5 5 5 5 5
          5 5 5 5 5 5
          5 5 5 5 5 5
          5 5 5 5 5 5
          5 5 5 5 5 5
          5 5 5 5 5 5
          5 5 5 5 5 5
          5 5 5 5 5 5
          5 5 5 5 5 5
          5 5 5 5 5 5
          5 5 5 5 5 5
          5 5 5 5 5 5
          5 5 5
        </DataArray>
      </Cells>
    </Piece>
  </UnstructuredGrid>
</VTKFile>
