<?xml version="1.0"?>
<VTKFile type="UnstructuredGrid" version="0.1" byte_order="LittleEndian" header_type="UInt32" compressor="vtkZLibDataCompressor">
  <UnstructuredGrid>
    <Piece NumberOfPoints="51" NumberOfCells="75">
      <PointData>
        <DataArray type="Float64" Name="nsi_BC" NumberOfComponents="3" format="ascii" RangeMin="0" RangeMax="100">
          0 0 0 0 0 0
          0 0 0 0 0 0
          0 0 0 0 0 0
          0 0 0 0 0 0
          0 0 0 0 0 0
          0 0 0 0 0 0
          0 0 0 0 0 0
          0 0 0 0 0 0
          0 0 0 0 0 0
          0 0 0 0 0 0
          0 0 0 0 0 0
          0 0 0 0 0 0
          0 0 0 0 0 0
          0 0 0 0 0 0
          0 0 0 0 0 0
          0 0 0 0 0 0
          0 0 0 0 0 0
          0 0 0 0 0 0
          0 0 0 0 0 0
          0 0 0 0 0 0
          0 0 0 0 0 0
          0 0 0 0 0 0
          0 0 0 100 0 0
          0 0 0 100 0 0
          100 0 0 100 0 0
          100 0 0
          <InformationKey name="L2_NORM_RANGE" location="vtkDataArray" length="2">
            <Value index="0">
              0
            </Value>
            <Value index="1">
              100
            </Value>
          </InformationKey>
        </DataArray>
        <DataArray type="Float64" Name="nsi_FIXNO" NumberOfComponents="3" format="ascii" RangeMin="1" RangeMax="1.4142135623730951">
          0 1 0 -1 -1 0
          0 1 0 -1 -1 0
          -1 -1 0 0 1 0
          -1 -1 0 -1 -1 0
          -1 -1 0 0 1 0
          -1 -1 0 -1 -1 0
          -1 -1 0 -1 -1 0
          0 1 0 0 1 0
          -1 -1 0 0 1 0
          0 1 0 -1 -1 0
          -1 -1 0 -1 -1 0
          0 1 0 0 1 0
          -1 -1 0 -1 -1 0
          -1 -1 0 0 1 0
          -1 -1 0 0 1 0
          1 1 0 -1 -1 0
          -1 -1 0 1 1 0
          0 1 0 -1 -1 0
          1 1 0 -1 -1 0
          -1 -1 0 -1 -1 0
          0 1 0 -1 -1 0
          0 1 0 -1 -1 0
          -1 -1 0 1 1 0
          0 1 0 1 1 0
          1 1 0 1 1 0
          1 1 0
          <InformationKey name="L2_NORM_RANGE" location="vtkDataArray" length="2">
            <Value index="0">
              1
            </Value>
            <Value index="1">
              1.4142135624
            </Value>
          </InformationKey>
        </DataArray>
        <DataArray type="Float64" Name="Velocity" NumberOfComponents="3" format="ascii" RangeMin="0" RangeMax="111.59096612503212">
          100.58787415984882 0 0 96.5111844093776 1.0812542348236447 0
          89.89372581343986 0 0 90.68831066076349 -0.1069956709593242 0
          98.04236871188874 -0.4279828415384052 0 93.35839188605638 0 0
          90.2367780409898 0.87020344348613 0 92.45635201412769 -0.1370996057566624 0
          96.4895553845571 -0.8348448329609568 0 93.95095786091116 0 0
          92.74359073473128 0.13689608677376883 0 91.99901927817058 0.2247182455126859 0
          92.5475983770064 -0.46604296303247666 0 92.95905388420663 0.15075367417375576 0
          100.03634980844173 0 0 94.77510999335578 0 0
          92.79473901394816 0.3895673110337184 0 89.29533914076175 0 0
          93.20824625942427 0 0 92.59190457090843 2.113557806391779 0
          90.85888267162109 -3.7818202455687495 0 92.3407425187475 0.4596354545901046 0
          93.8209350819409 0 0 98.51118616510227 0 0
          98.77710402116219 -3.536064346455377 0 83.34876600962174 -7.101453365420307 0
          94.92893291412108 3.4210710184494046 0 93.38424003632825 0 0
          110.54860375028778 -15.216764754044315 0 94.11856147246844 0 0
          0 0 0 101.34221991929242 1.1851319282350528 0
          86.19101707763164 30.14168005997414 0 0 0 0
          96.91789619385415 0 0 109.6287293276855 8.143735585655634 0
          0 0 0 98.5697814952863 19.63799271225573 0
          107.43128952114081 -14.361898143281552 0 47.88845364142105 -10.372269980811714 0
          90.27960593357646 0 0 92.88168983412542 3.23189736256862 0
          96.02713862625068 0 0 92.80992502256181 5.709454474870936 0
          92.95193015428772 -6.006391168700333 0 99.99999999997466 0 0
          89.21979222292836 0 0 99.99999999997468 0 0
          99.99999999997466 0 0 99.99999999997468 0 0
          99.99999999997466 0 0
          <InformationKey name="L2_NORM_RANGE" location="vtkDataArray" length="2">
            <Value index="0">
              0
            </Value>
            <Value index="1">
              111.59096613
            </Value>
          </InformationKey>
        </DataArray>
        <DataArray type="Float64" Name="Pressure" format="ascii" RangeMin="0" RangeMax="2478903.026548185">
          0 0 257242.42301969673 317735.02105385007 0 551977.4978137503
          262480.84050221223 677440.2930597421 0 844935.8796441089 551304.9173602301 379886.79311642575
          975021.7810213716 838810.9929499798 0 1144783.149537167 695770.6140944263 257591.04257357534
          552273.4895376229 1130937.5364688907 1237187.436327666 1006117.3979843521 846769.1760216999 1449992.4193168667
          1452853.8533610876 1437921.5132875242 1385399.3795445329 1142462.4447062507 1629526.0350030249 1791080.2653470174
          1634548.1246887522 1826830.5235073522 1558960.375739352 1895422.4834025681 1443437.3823925338 1611583.2658888095
          1904627.0008948396 2025944.2182671523 1902318.7028892317 2124671.0053588315 2130151.311191079 2194728.633221683
          1796744.3071334565 2264303.814763838 2238905.0945314476 2456599.376672673 2120407.4508680487 2476255.6224744455
          2478903.026548185 2471055.8935384103 2435144.575571704
        </DataArray>
        <DataArray type="Float64" Name="Timom" format="ascii" RangeMin="0.0006979744639161055" RangeMax="0.0012602063750794506">
          0.0011189353257503414 0.0012602063750794506 0.0011949892193899956 0.0011782912332873703 0.0012078438051658193 0.001099768058029831
          0.001092626444366687 0.0010096735602979291 0.0010926878719604459 0.000979943620089869 0.0010179605198642806 0.001056212484643719
          0.0009179533501032126 0.0009406250223020586 0.0010441119303814881 0.0009367386536426959 0.0009708105963408743 0.0010790554232811527
          0.000938944635982016 0.0009728686685921523 0.0009092050036465717 0.0009555522205804232 0.0009304665581647203 0.0009684475570884226
          0.0009106319105913838 0.0009741593508692377 0.0009295082570294807 0.0009342741325328838 0.0007851430194846099 0.0009292578219335782
          0.0010497960293066539 0.0008617329487043157 0.0008407722815102752 0.0009691228569873414 0.0007979949632023685 0.0006979744639161055
          0.001018485924592049 0.0007635850420131468 0.0008093673471904412 0.0008714979424802985 0.0008789814102167501 0.0008100672766316162
          0.0007634222848393161 0.0007684648856559697 0.000878495055978581 0.0008539355199440394 0.000898358677804804 0.0007691242748418377
          0.0008335881124845375 0.0009342600575370276 0.0009553519812974047
        </DataArray>
        <DataArray type="Float64" Name="Tidiv" format="ascii" RangeMin="1601.561272322116" RangeMax="4495.523639414637">
          3891.672727878322 3502.252554413938 3960.639618331237 3780.982029051842 3158.1988984894833 4440.114071571968
          3406.8387743543926 4348.410760877556 3716.6026974613687 4495.523639414637 3676.6617947189443 3551.717892811462
          4313.653536434916 3829.057333924173 3960.05330500826 4126.59969265233 3427.0713037839396 3775.139515418806
          3628.6717913681146 3515.673401082695 3951.833212372099 3740.5949865507237 3634.65603859005 2980.9232826614184
          3390.1335294591745 2886.1136282695365 3804.9247299720446 4324.413476505454 2858.188676897423 2989.375705568295
          1609.2745650070353 3128.456514298962 2759.410614301878 1601.561272322116 4426.230566417615 4044.5061035322356
          1777.9582429870984 2815.958430554717 3980.414312062891 2571.9656323409 3366.29409850559 3440.499811451845
          4349.0878905332465 3298.854374292812 3946.2175446651254 3647.108797136048 4478.629452795347 3699.027196467049
          3556.7281045177024 4253.904524952063 4338.9013393254045
        </DataArray>
        <DataArray type="Float64" Name="DISSI_NS" format="ascii" RangeMin="-30501.90470921579" RangeMax="6256672.326277957">
          -13188.846607431882 -16851.514134502235 23626.044869756355 19195.207414065615 -16265.895358361418 29990.921865616183
          13205.816035440357 5077.379798760845 -6369.488214669102 3368.9179972068387 17101.87693453933 16677.04243458143
          5935.763265671532 2508.3614621316483 -14015.363416482982 12012.238792626977 2608.6362896466903 18772.13414179155
          23244.09554254384 6230.728610606859 26983.98735488658 1469.1989677742274 2409.9826569383536 22191.485369183243
          254108.95832884123 915913.5563410867 162379.65636234957 -1626.7665776219528 1454850.22448903 -30501.90470921579
          3343768.4783042693 202490.28467532794 2747473.9289833223 4937744.033646597 157375.32219452466 542221.4516631567
          6256672.326277957 1586464.5051536397 1540747.241778091 3084850.548786233 30397.453945492278 50390.53843254994
          69791.90180445043 350400.4449295973 313317.42784273607 34218.98369612171 38483.22154898059 24179.540569475237
          27765.994094002075 27793.48362983922 22758.031156271598
        </DataArray>
        <DataArray type="Float64" Name="Proj_residual_U" NumberOfComponents="3" format="ascii" RangeMin="123141.37534803334" RangeMax="292751.3950326876">
          -123141.37534087188 -1.3280601968427688 0 -126704.21033162452 -416.22972821093816 0
          -133859.96464522686 -164.83499057612815 0 -138807.64072849916 -425.15826034013196 0
          -127740.56171101713 -406.53608615947945 0 -147276.17534567785 1974.5519303524723 0
          -135196.8708467596 -1465.0872879084347 0 -145720.53628812512 744.6014807328901 0
          -129411.8223477945 402.06827866386107 0 -147506.03472720925 3649.573183731549 0
          -145348.25994839543 -890.7439655486877 0 -141079.4108873825 556.7836941657056 0
          -145560.1448699424 2648.3086965809266 0 -144992.71766269972 -1280.4871445333965 0
          -123330.03793057502 0.6224467101891722 0 -151177.52541240898 8165.39318917457 0
          -145734.8800874742 -1320.934841700166 0 -134607.2514207725 2117.353418888531 0
          -147618.60474395627 -1271.3944918337666 0 -138788.9954968773 -1880.5643039435952 0
          -142218.78725553554 10005.09917467037 0 -145139.92842958422 -3390.6356272111843 0
          -146834.63530329397 -3298.143772470302 0 -167909.73785498366 6238.013538823987 0
          -163912.17502679225 19700.219476819155 0 -138781.50687129993 6647.512215167994 0
          -145225.460027712 -15415.190551422456 0 -148022.83246620535 -8186.687131066882 0
          -207112.1857908838 5046.843554596985 0 -167879.96380918476 -2168.0537785667066 0
          -234689.16653853495 17090.255068350772 0 -180501.65972955606 -3911.9135387495908 0
          -196013.96352751923 -11640.320863062985 0 -262770.21387220814 -40907.302507171684 0
          -166373.08299129675 -14250.84829864496 0 -191907.8254756584 -16879.676071638718 0
          -290367.07250590663 37287.29673674762 0 -189970.15444937636 -40850.2366010169 0
          -191939.33523726958 25999.63593210493 0 -184977.22914577342 7539.37049409125 0
          -168863.43692250975 -9005.311330374625 0 -164336.03886355626 -17497.234332238786 0
          -176809.58823322988 7032.823345785199 0 -147252.30736016214 -11072.140604486254 0
          -152305.97910103417 18367.27846159234 0 -166584.0857663028 -10140.346474795395 0
          -160064.50206640374 17429.293557525856 0 -156973.45103528415 -8602.542388296695 0
          -144706.9867609795 2823.1540610041066 0 -155558.02953252126 14605.474414807159 0
          -162950.6493039375 17955.658983353063 0
          <InformationKey name="L2_NORM_RANGE" location="vtkDataArray" length="2">
            <Value index="0">
              123141.37535
            </Value>
            <Value index="1">
              292751.39503
            </Value>
          </InformationKey>
        </DataArray>
        <DataArray type="Float64" Name="Proj_residual_P" format="ascii" RangeMin="-24.42686759695863" RangeMax="39.690337148015374">
          4.8064470557926615 3.403461904988692 1.702012454685172 0.5798144841709325 3.4074305032544823 -0.8490845292520823
          1.4326051723444722 -0.37733673939165435 2.9871618387581997 -0.12629397862547026 -0.7629608474945535 0.21935938873515612
          -0.061720043146624326 -0.12457446598019901 4.953082917359508 -0.41051047736346796 -0.08230939778001704 1.6000376550339386
          -0.6902734579491502 -0.6416407155792123 0.177514716508433 0.08127043106205352 0.2738064953677705 0.6888986439388469
          -0.8370699703139413 2.588537145143919 -1.619911312884039 -0.12622087237742285 8.519851129529417 1.202600596371876
          39.690337148015374 1.5142604062237914 17.906643261997196 -12.345784655218688 -1.1936217281462769 2.9258807414026755
          -11.475362974212663 -1.9863372124244185 0.9745369711013511 -24.42686759695863 -1.1986325775714666 -3.6212950346228276
          0.9752547590499306 -4.337487147327397 -3.951351289354022 -5.445854213969162 -2.164856185592987 -4.827297164688071
          -2.4232171602402395 -5.748552147915396 -5.390103888523151
        </DataArray>
      </PointData>
      <CellData>
        <DataArray type="UInt8" Name="vtkGhostType" format="ascii" RangeMin="0" RangeMax="0">
          0 0 0 0 0 0
          0 0 0 0 0 0
          0 0 0 0 0 0
          0 0 0 0 0 0
          0 0 0 0 0 0
          0 0 0 0 0 0
          0 0 0 0 0 0
          0 0 0 0 0 0
          0 0 0 0 0 0
          0 0 0 0 0 0
          0 0 0 0 0 0
          0 0 0 0 0 0
          0 0 0
        </DataArray>
        <DataArray type="Float64" Name="Velocity_SGS" NumberOfComponents="3" format="ascii" RangeMin="0" RangeMax="36.427106717284005">
          6.90023540477785e-310 6.90023540477785e-310 4.6621235520998e-310 35.13779789729823 9.605689081009308 0
          15.997889007766343 1.1701175508179438 0 32.078550815211834 -10.682999095013853 0
          21.673069617327855 -15.784494934653432 0 20.289512857313262 6.38042661506576 0
          2.157199859892571 -7.633976040207928 0 -8.171027516552027 -0.4206946019870735 0
          21.08201221107659 -7.979640687607695 0 8.992192245198463 19.868091055787076 0
          20.394306379624382 5.215345130942552 0 6.5627255958450466 7.881486252839944 0
          13.117010963522585 -6.616677189068724 0 13.420816348118796 -2.9913055350119944 0
          13.71460607371343 -1.2804861204881803 0 3.167544535081354 -4.475070931866433 0
          2.419070690687815 8.366651229384809 0 11.559126963805927 0.7456408315411399 0
          7.423030030606284 -5.428852310336918 0 13.408283443566784 6.175374363082824 0
          8.410479337501586 0.9419059027051829 0 11.79655003474338 -0.9536223344069148 0
          3.3356249747517115 -0.9070816127972315 0 0.08373078735035477 -2.1170040233620204 0
          3.6673771895046308 -0.014933932755067186 0 1.5767550905577183 3.8905431035790072 0
          5.350691593000831 -2.308293548653012 0 2.7056022622445357 4.699507149675016 0
          18.04367505170141 3.1957552065952206 0 8.745229695271213 -0.5570014959089337 0
          8.558965371087124 -11.245140408979022 0 7.588208359896619 1.9379585420451506 0
          5.953066422580237 1.7821651342309526 0 1.7883908139287505 -2.532948209532436 0
          4.465911502503994 -3.5889217457466414 0 5.145314565268388 0.07947954612019979 0
          7.1837378360272455 -0.4569802635340273 0 7.436214566251083 0.3132516059339544 0
          7.279075097158691 0.2628908113317131 0 6.354127726691715 0.272219793575739 0
          6.199045419202896 0.18376403989551798 0 7.778860029628945 0.15793672982506102 0
          7.2207873871883645 0.09512525304862007 0 7.857599384770575 -0.12637863991115716 0
          7.350308917509924 -0.8721625631750722 0 7.944652374577144 -0.4144421750010112 0
          6.205812725521003 0.6748596044031258 0 8.113956415230675 0.4514412486199772 0
          7.282490810501747 -0.10599177349183829 0 7.472989392886603 0.34846940333008775 0
          8.52118027903218 -0.311794907388776 0 7.057030913192497 0.18801043892169572 0
          6.118127413033659 0.12125066841088444 0 7.01923498453953 -0.006811889563937064 0
          7.267787167698517 -0.32772740104661563 0 7.404953666314432 0.18352253446773956 0
          7.343912132350976 0.10234527106393802 0 4.9199076204741345 0.4250715049395132 0
          6.207717190719628 -0.777317313565471 0 6.341222481847241 2.146949214867022 0
          6.202204030612482 0.18601856063810565 0 7.149473481798452 -0.5588591238788346 0
          5.4185649005769045 -0.03289417225763913 0 6.458881170066654 0.10067035609099519 0
          11.349745197061994 -0.40963652596621636 0 8.909144475203933 0.4216353590839601 0
          7.485904682420989 -0.2708352219272492 0 12.159417313304626 -0.7079877863081884 0
          5.068203521013495 0.056071524815134104 0 8.839399855351683 -0.15426232063305156 0
          7.42569298307402 0.8988124749050652 0 3.7458320944900505 3.891871188015039 0
          16.27103133915008 -0.05634435406060073 0 7.904574956181895 -0.4121728245305996 0
          17.67217668675336 1.2256358236898 0 6.813253680090627 0.2166686320441369 0
          <InformationKey name="L2_NORM_RANGE" location="vtkDataArray" length="2">
            <Value index="0">
              0
            </Value>
            <Value index="1">
              36.427106717
            </Value>
          </InformationKey>
        </DataArray>
        <DataArray type="Float64" Name="Residual_U" NumberOfComponents="3" format="ascii" RangeMin="123178.46829639243" RangeMax="343431.63205376203">
          -343431.442682505 360.6551314720509 0 -268859.8608773866 -6886.029535395534 0
          -310589.55347684794 16660.74846989227 0 -282826.4869432353 85246.68717879405 0
          -279988.90433339216 -50860.12433072 0 -173329.6899916749 10299.14800629768 0
          -146409.4789377917 36032.565447185814 0 -279812.2287311427 50376.32539627809 0
          -208747.19582738308 -104859.30945320753 0 -268692.7104117217 -28939.55098908903 0
          -144736.05797322452 -56122.02454552751 0 -189918.55346130522 41742.6049512266 0
          -208794.42718170863 21850.450525883905 0 -149698.7667341575 -11947.371117327097 0
          -135076.54551274772 29403.594228301954 0 -143433.16095690225 -61053.41998943451 0
          -133326.35962165863 -205.06188718972282 0 -175157.4507182891 38644.52130419051 0
          -167834.25560784794 -43340.6723551191 0 -179416.62425007462 -15605.471891636655 0
          -180432.34102735764 9247.325498972548 0 -122976.50850378754 7050.773579063973 0
          -144887.1409220323 6370.898115791753 0 -142818.88817675845 2410.8224553460936 0
          -161902.576706226 -20701.48470578911 0 -165003.92948456935 -7901.440972199005 0
          -118935.59690812783 -32154.256778265044 0 -244019.5894531015 -25137.12242465796 0
          -156394.52410843794 9837.681123546423 0 -153410.26100264693 73258.01122855654 0
          -175783.21766459124 -16895.393226002678 0 -146035.06967939448 177.54839598269237 0
          -155772.54982630195 21782.413919532475 0 -162805.69537704354 17955.658983353056 0
          -123398.98461927733 0.8298443831800252 0 -154557.27126465377 9403.16699387542 0
          -147630.03772937876 -4513.159605369847 0 -145410.95922641538 -3146.0706863727864 0
          -144437.70471420902 -7507.482127537873 0 -147553.87874267745 -2164.7728184525386 0
          -146126.603384634 -1389.01924053576 0 -149271.6396689689 -274.5126692057755 0
          -146180.4909327554 700.7847241796417 0 -133141.27771033993 5364.700958298814 0
          -145660.47058926753 2105.709781544878 0 -132097.20107571656 -3911.542045062014 0
          -145657.4574710033 -2986.8685147757783 0 -128199.74898409873 325.31352943518505 0
          -146549.90693556034 -2245.481578885358 0 -146102.87754269235 2250.6354115940203 0
          -143860.94743179326 -1412.0052707339414 0 -145283.80758320645 -488.81088343238184 0
          -143860.53807964633 -418.68291537847165 0 -145405.63232665195 3324.030774423003 0
          -145880.37715430054 -2004.3252701456636 0 -145255.80326465104 -1452.7650956910538 0
          -140521.45848131343 -690.8246238759539 0 -144416.18749307282 8653.056358208982 0
          -132178.2966586167 -11079.072927181496 0 -145879.05337844038 -1965.1644949096944 0
          -142703.0642075035 390.28782192394425 0 -123209.56174117583 -1.7706830519338215 0
          -127500.23662058768 -960.0785909633621 0 -167488.62633939236 -2235.090231109617 0
          -168241.13800690605 -2102.033341522904 0 -146779.2430611917 2634.3169536028513 0
          -158393.58248820555 14322.067103340527 0 -127546.571758995 -703.6918564995772 0
          -149102.47996142978 1043.4048086376858 0 -152312.14249325945 -11701.955441018237 0
          -168032.89901437395 -12570.707440027662 0 -170988.5417364347 -11244.278534280566 0
          -150346.7985002437 4972.452395495241 0 -164015.16524158366 15805.10057812438 0
          -127880.00134918405 -1305.9805699824497 0
          <InformationKey name="L2_NORM_RANGE" location="vtkDataArray" length="2">
            <Value index="0">
              123178.4683
            </Value>
            <Value index="1">
              343431.63205
            </Value>
          </InformationKey>
        </DataArray>
        <DataArray type="Float64" Name="Residual_P" format="ascii" RangeMin="-67.72422154445653" RangeMax="69.42098781520833">
          18.56685293200919 -54.06219401088169 46.80477833566082 45.22380866521159 -63.426892580607245 19.007731021603036
          69.42098781520833 -67.72422154445653 28.47773031426837 9.521558859728586 10.993240440743413 -18.877688400604224
          1.8484015593473666 1.6880076677300544 3.3651479788500795 12.744192256396097 -29.413897803313212 7.325532221033997
          -8.71155425209935 -9.604842746988165 0.8112442936755734 1.9668978734697862 2.172050090365383 -4.643980280672299
          -5.80848059273926 -4.120835226366436 -8.325710515236377 6.9982533364749555 -2.8011511633064075 -0.6357108545287806
          5.579210462321422 -4.242786248697135 -7.056136612856811 -5.39010388852315 4.953082917359508 0.06652410236092332
          0.4662440995464593 0.40917039909704356 -0.29990934709391004 -0.0814276443538085 -0.17921174494894604 -1.8299735080045156
          -0.4742421327598759 1.3655741772160792 -1.0519466464992866 2.324905622539489 -1.667112263430757 3.3268127907060547
          -0.8765477783372362 -0.611317831043535 -0.2359636712396252 -0.25459222843441687 -0.24961101740994485 0.07198417607170282
          -0.5414234226736063 0.06339145593482454 -1.3953997448483748 1.4066651921379387 -3.1057110388420037 0.6832321478875424
          -0.5717854188424402 4.806447055792661 3.03275004157517 1.0641833079364134 1.3410178848073389 -0.237958018246263
          -2.5936851955693783 3.898188942038149 -1.6904341361952384 -0.37874440658514874 -6.86725011284948 2.446327833771023
          -0.21810962971383682 5.392851240265724 2.5249850850572675
        </DataArray>
      </CellData>
      <Points>
        <DataArray type="Float32" Name="Points" NumberOfComponents="3" format="ascii" RangeMin="0" RangeMax="17.88854381999832">
          16 8 0 16 6 0
          14 8 0 13.571430206298828 5.4463372230529785 0
          16 4 0 12 8 0
          14 3.464102029800415 0 11.101200103759766 5.649384021759033 0
          16 2 0 10 8 0
          12 3.464102029800415 0 13.166669845581055 1.776708960533142 0
          9.0526123046875 5.597301006317139 0 10 3.464102029800415 0
          16 0 0 8 8 0
          11 1.7320510149002075 0 14 0 0
          12 0 0 8 3.464102029800415 0
          7.214476108551025 5.006220817565918 0 8.865592002868652 1.8541419506072998 0
          10 0 0 6 8 0
          5.868243217468262 6.172163009643555 0 5.61288595199585 4.4169921875 0
          6.193554878234863 2.464600086212158 0 8 0 0
          4.574699878692627 4.995409965515137 0 4 8 0
          4.5 4 0 3.80739688873291 6.614357948303223 0
          4.723260879516602 3.0721371173858643 0 3.75 4.433012962341309 0
          6 0 0 4.8942999839782715 1.5862879753112793 0
          3.75 3.5669870376586914 0 3.0087170600891113 5.149643898010254 0
          3.5546820163726807 2.3947041034698486 0 2.864197015762329 3.831125020980835 0
          2 8 0 1.7273950576782227 6.389729976654053 0
          4 0 0 1.5482569932937622 4.574378967285156 0
          1.6611889600753784 2.800034999847412 0 0 8 0
          2 0 0 0 6 0
          0 4 0 0 2 0
          0 0 0
          <InformationKey name="L2_NORM_RANGE" location="vtkDataArray" length="2">
            <Value index="0">
              0
            </Value>
            <Value index="1">
              17.88854382
            </Value>
          </InformationKey>
        </DataArray>
      </Points>
      <Cells>
        <DataArray type="Int64" Name="connectivity" format="ascii" RangeMin="0" RangeMax="50">
          30 36 32 36 33 39
          33 30 28 32 36 38
          39 33 37 28 30 25
          30 32 25 36 39 38
          33 28 37 32 38 35
          39 37 43 28 25 24
          35 38 42 43 37 41
          24 25 20 32 35 26
          39 43 44 28 24 31
          41 37 31 26 35 34
          31 24 23 20 25 19
          44 43 48 48 43 47
          43 41 47 47 41 45
          32 26 25 28 31 37
          24 20 15 39 44 38
          35 42 34 44 48 49
          44 49 46 50 46 49
          14 8 17 15 23 24
          27 22 21 21 22 16
          27 21 26 16 22 18
          16 18 11 11 18 17
          16 11 10 11 17 8
          10 11 6 6 11 8
          10 6 3 3 4 1
          10 3 7 7 3 5
          10 7 13 13 7 12
          10 13 16 12 7 9
          13 12 19 16 13 21
          19 12 20 20 12 15
          19 25 26 21 13 19
          21 19 26 0 2 1
          4 3 6 29 40 31
          29 31 23 5 9 7
          46 42 38 8 4 6
          2 5 3 34 27 26
          40 45 41 40 41 31
          9 15 12 38 44 46
          1 2 3
        </DataArray>
        <DataArray type="Int64" Name="offsets" format="ascii" RangeMin="3" RangeMax="225">
          3 6 9 12 15 18
          21 24 27 30 33 36
          39 42 45 48 51 54
          57 60 63 66 69 72
          75 78 81 84 87 90
          93 96 99 102 105 108
          111 114 117 120 123 126
          129 132 135 138 141 144
          147 150 153 156 159 162
          165 168 171 174 177 180
          183 186 189 192 195 198
          201 204 207 210 213 216
          219 222 225
        </DataArray>
        <DataArray type="UInt8" Name="types" format="ascii" RangeMin="5" RangeMax="5">
          5 5 5 5 5 5
          5 5 5 5 5 5
          5 5 5 5 5 5
          5 5 5 5 5 5
          5 5 5 5 5 5
          5 5 5 5 5 5
          5 5 5 5 5 5
          5 5 5 5 5 5
          5 5 5 5 5 5
          5 5 5 5 5 5
          5 5 5 5 5 5
          5 5 5 5 5 5
          5 5 5
        </DataArray>
      </Cells>
    </Piece>
  </UnstructuredGrid>
</VTKFile>
