<?xml version="1.0"?>
<VTKFile type="UnstructuredGrid" version="0.1" byte_order="LittleEndian" header_type="UInt32" compressor="vtkZLibDataCompressor">
  <UnstructuredGrid>
    <Piece NumberOfPoints="51" NumberOfCells="75">
      <PointData>
        <DataArray type="Float64" Name="nsi_BC" NumberOfComponents="3" format="ascii" RangeMin="0" RangeMax="100">
          0 0 0 0 0 0
          0 0 0 0 0 0
          0 0 0 0 0 0
          0 0 0 0 0 0
          0 0 0 0 0 0
          0 0 0 0 0 0
          0 0 0 0 0 0
          0 0 0 0 0 0
          0 0 0 0 0 0
          0 0 0 0 0 0
          0 0 0 0 0 0
          0 0 0 0 0 0
          0 0 0 0 0 0
          0 0 0 0 0 0
          0 0 0 0 0 0
          0 0 0 0 0 0
          0 0 0 0 0 0
          0 0 0 0 0 0
          0 0 0 0 0 0
          0 0 0 0 0 0
          0 0 0 0 0 0
          0 0 0 0 0 0
          0 0 0 100 0 0
          0 0 0 100 0 0
          100 0 0 100 0 0
          100 0 0
          <InformationKey name="L2_NORM_RANGE" location="vtkDataArray" length="2">
            <Value index="0">
              0
            </Value>
            <Value index="1">
              100
            </Value>
          </InformationKey>
        </DataArray>
        <DataArray type="Float64" Name="nsi_FIXNO" NumberOfComponents="3" format="ascii" RangeMin="1" RangeMax="1.4142135623730951">
          0 1 0 -1 -1 0
          0 1 0 -1 -1 0
          -1 -1 0 0 1 0
          -1 -1 0 -1 -1 0
          -1 -1 0 0 1 0
          -1 -1 0 -1 -1 0
          -1 -1 0 -1 -1 0
          0 1 0 0 1 0
          -1 -1 0 0 1 0
          0 1 0 -1 -1 0
          -1 -1 0 -1 -1 0
          0 1 0 0 1 0
          -1 -1 0 -1 -1 0
          -1 -1 0 0 1 0
          -1 -1 0 0 1 0
          1 1 0 -1 -1 0
          -1 -1 0 1 1 0
          0 1 0 -1 -1 0
          1 1 0 -1 -1 0
          -1 -1 0 -1 -1 0
          0 1 0 -1 -1 0
          0 1 0 -1 -1 0
          -1 -1 0 1 1 0
          0 1 0 1 1 0
          1 1 0 1 1 0
          1 1 0
          <InformationKey name="L2_NORM_RANGE" location="vtkDataArray" length="2">
            <Value index="0">
              1
            </Value>
            <Value index="1">
              1.4142135624
            </Value>
          </InformationKey>
        </DataArray>
      </PointData>
      <CellData>
        <DataArray type="UInt8" Name="vtkGhostType" format="ascii" RangeMin="0" RangeMax="0">
          0 0 0 0 0 0
          0 0 0 0 0 0
          0 0 0 0 0 0
          0 0 0 0 0 0
          0 0 0 0 0 0
          0 0 0 0 0 0
          0 0 0 0 0 0
          0 0 0 0 0 0
          0 0 0 0 0 0
          0 0 0 0 0 0
          0 0 0 0 0 0
          0 0 0 0 0 0
          0 0 0
        </DataArray>
      </CellData>
      <Points>
        <DataArray type="Float32" Name="Points" NumberOfComponents="3" format="ascii" RangeMin="0" RangeMax="17.88854381999832">
          16 8 0 16 6 0
          14 8 0 13.571430206298828 5.4463372230529785 0
          16 4 0 12 8 0
          14 3.464102029800415 0 11.101200103759766 5.649384021759033 0
          16 2 0 10 8 0
          12 3.464102029800415 0 13.166669845581055 1.776708960533142 0
          9.0526123046875 5.597301006317139 0 10 3.464102029800415 0
          16 0 0 8 8 0
          11 1.7320510149002075 0 14 0 0
          12 0 0 8 3.464102029800415 0
          7.214476108551025 5.006220817565918 0 8.865592002868652 1.8541419506072998 0
          10 0 0 6 8 0
          5.868243217468262 6.172163009643555 0 5.61288595199585 4.4169921875 0
          6.193554878234863 2.464600086212158 0 8 0 0
          4.574699878692627 4.995409965515137 0 4 8 0
          4.5 4 0 3.80739688873291 6.614357948303223 0
          4.723260879516602 3.0721371173858643 0 3.75 4.433012962341309 0
          6 0 0 4.8942999839782715 1.5862879753112793 0
          3.75 3.5669870376586914 0 3.0087170600891113 5.149643898010254 0
          3.5546820163726807 2.3947041034698486 0 2.864197015762329 3.831125020980835 0
          2 8 0 1.7273950576782227 6.389729976654053 0
          4 0 0 1.5482569932937622 4.574378967285156 0
          1.6611889600753784 2.800034999847412 0 0 8 0
          2 0 0 0 6 0
          0 4 0 0 2 0
          0 0 0
          <InformationKey name="L2_NORM_RANGE" location="vtkDataArray" length="2">
            <Value index="0">
              0
            </Value>
            <Value index="1">
              17.88854382
            </Value>
          </InformationKey>
        </DataArray>
      </Points>
      <Cells>
        <DataArray type="Int64" Name="connectivity" format="ascii" RangeMin="0" RangeMax="50">
          30 36 32 36 33 39
          33 30 28 32 36 38
          39 33 37 28 30 25
          30 32 25 36 39 38
          33 28 37 32 38 35
          39 37 43 28 25 24
          35 38 42 43 37 41
          24 25 20 32 35 26
          39 43 44 28 24 31
          41 37 31 26 35 34
          31 24 23 20 25 19
          44 43 48 48 43 47
          43 41 47 47 41 45
          32 26 25 28 31 37
          24 20 15 39 44 38
          35 42 34 44 48 49
          44 49 46 50 46 49
          14 8 17 15 23 24
          27 22 21 21 22 16
          27 21 26 16 22 18
          16 18 11 11 18 17
          16 11 10 11 17 8
          10 11 6 6 11 8
          10 6 3 3 4 1
          10 3 7 7 3 5
          10 7 13 13 7 12
          10 13 16 12 7 9
          13 12 19 16 13 21
          19 12 20 20 12 15
          19 25 26 21 13 19
          21 19 26 0 2 1
          4 3 6 29 40 31
          29 31 23 5 9 7
          46 42 38 8 4 6
          2 5 3 34 27 26
          40 45 41 40 41 31
          9 15 12 38 44 46
          1 2 3
        </DataArray>
        <DataArray type="Int64" Name="offsets" format="ascii" RangeMin="3" RangeMax="225">
          3 6 9 12 15 18
          21 24 27 30 33 36
          39 42 45 48 51 54
          57 60 63 66 69 72
          75 78 81 84 87 90
          93 96 99 102 105 108
          111 114 117 120 123 126
          129 132 135 138 141 144
          147 150 153 156 159 162
          165 168 171 174 177 180
          183 186 189 192 195 198
          201 204 207 210 213 216
          219 222 225
        </DataArray>
        <DataArray type="UInt8" Name="types" format="ascii" RangeMin="5" RangeMax="5">
          5 5 5 5 5 5
          5 5 5 5 5 5
          5 5 5 5 5 5
          5 5 5 5 5 5
          5 5 5 5 5 5
          5 5 5 5 5 5
          5 5 5 5 5 5
          5 5 5 5 5 5
          5 5 5 5 5 5
          5 5 5 5 5 5
          5 5 5 5 5 5
          5 5 5 5 5 5
          5 5 5
        </DataArray>
      </Cells>
    </Piece>
  </UnstructuredGrid>
</VTKFile>
