<?xml version="1.0"?>
<VTKFile type="UnstructuredGrid" version="0.1" byte_order="LittleEndian" header_type="UInt32" compressor="vtkZLibDataCompressor">
  <UnstructuredGrid>
    <Piece NumberOfPoints="46" NumberOfCells="14">
      <PointData>
        <DataArray type="Float64" Name="Temperature" format="ascii" RangeMin="0.36850671799017537" RangeMax="0.5068069627829984">
          0.5068069626468639 0.49007186616800935 0.4624536417913104 0.46245364181757764 0.4900718660964275 0.4927852413761946
          0.4927852413169039 0.4624118170380219 0.46241181706224194 0.5068069626893097 0.37694484554881996 0.4624536418282749
          0.37760358428964713 0.37760358429249796 0.5033250592255105 0.5068069626044179 0.4418759041000318 0.37694484550858287
          0.4418759040554149 0.44187590407772337 0.37272578176678606 0.3769448455064119 0.36850671805980323 0.37272578178310756
          0.3685067180249893 0.4418759041329705 0.37272578175046467 0.4624536418898085 0.5068069627829984 0.49007186624890614
          0.4624118171227931 0.506806962736154 0.5033250590654174 0.3776035841439781 0.3769448455107539 0.49278524131123674
          0.4900718659671383 0.36850671799017537 0.5033250590358352 0.36850671825675746 0.3727257819027887 0.44187590416590916
          0.4624536418721162 0.3727257818266267 0.3769448455297869 0.490071866067595
        </DataArray>
      </PointData>
      <CellData>
        <DataArray type="UInt8" Name="vtkGhostType" format="ascii" RangeMin="0" RangeMax="1">
          1 1 1 1 1 0
          1 1 1 1 1 1
          1 1
        </DataArray>
      </CellData>
      <Points>
        <DataArray type="Float32" Name="Points" NumberOfComponents="3" format="ascii" RangeMin="0.5" RangeMax="1.6007810593582121">
          0.5 1 0.25 0.75 1 0
          0.75 0.75 0.25 0.75 0.75 0
          0.75 1 0.25 1 1 0
          1 1 0.25 1 0.75 0
          1 0.75 0.25 0.5 1 0.5
          0.5 0.5 1 0.75 0.75 0.75
          0 0.5 0 0 0.5 0.5
          0 1 0 0.5 1 0
          0.5 0.75 0.5 0.5 0.5 0.25
          0.5 0.75 0 0.5 0.75 0.25
          0.75 0.5 0.25 0.5 0.5 0
          1 0.5 0 0.75 0.5 0
          1 0.5 0.25 0.5 0.75 0.75
          0.75 0.5 0.5 0.75 0.75 0.5
          0.5 1 1 0.75 1 0.5
          1 0.75 0.5 0.5 1 0.75
          0 1 0.5 0 0.5 1
          0.5 0.5 0.5 1 1 0.5
          0.75 1 0.75 1 0.5 0.5
          0 1 1 1 0.5 1
          0.75 0.5 1 0.5 0.75 1
          0.75 0.75 1 0.75 0.5 0.75
          0.5 0.5 0.75 0.75 1 1
          <InformationKey name="L2_NORM_RANGE" location="vtkDataArray" length="2">
            <Value index="0">
              0.5
            </Value>
            <Value index="1">
              1.6007810594
            </Value>
          </InformationKey>
        </DataArray>
      </Points>
      <Cells>
        <DataArray type="Int64" Name="connectivity" format="ascii" RangeMin="0" RangeMax="45">
          28 38 32 9 10 33
          13 34 9 32 14 15
          34 13 12 21 36 31
          9 29 11 25 16 27
          35 29 4 6 30 27
          2 8 30 27 2 8
          37 26 20 24 6 4
          1 5 8 2 3 7
          8 2 3 7 24 20
          23 22 29 9 0 4
          27 16 19 2 27 16
          19 2 26 34 17 20
          4 0 15 1 2 19
          18 3 2 19 18 3
          20 17 21 23 45 28
          31 36 42 41 25 11
          42 41 25 11 40 10
          44 43 11 25 16 27
          43 44 34 26
        </DataArray>
        <DataArray type="Int64" Name="offsets" format="ascii" RangeMin="8" RangeMax="112">
          8 16 24 32 40 48
          56 64 72 80 88 96
          104 112
        </DataArray>
        <DataArray type="UInt8" Name="types" format="ascii" RangeMin="12" RangeMax="12">
          12 12 12 12 12 12
          12 12 12 12 12 12
          12 12
        </DataArray>
      </Cells>
    </Piece>
  </UnstructuredGrid>
</VTKFile>
