<?xml version="1.0"?>
<VTKFile type="UnstructuredGrid" version="0.1" byte_order="LittleEndian" header_type="UInt32" compressor="vtkZLibDataCompressor">
  <UnstructuredGrid>
    <Piece NumberOfPoints="26" NumberOfCells="7">
      <PointData>
        <DataArray type="Float64" Name="Temperature" format="ascii" RangeMin="0" RangeMax="0.4999999687516817">
          0.3749999739580924 0 0.3749999739579836 0 0.49999996875007996 0
          0.374999973959055 0 0.3749999739594698 0 0.3749999739589154 0
          0 0.4999999687516817 0.4999999687504958 0.4999999687507994 0.4999999687498547 0
          0.3749999739589302 0.37499997395868667 0.37499997395916584 0.49999996875091923 0 0.37499997395871376
          0.4999999687507635 0.49999996875087616
        </DataArray>
      </PointData>
      <CellData>
        <DataArray type="UInt8" Name="vtkGhostType" format="ascii" RangeMin="0" RangeMax="0">
          0 0 0 0 0 0
          0
        </DataArray>
      </CellData>
      <Points>
        <DataArray type="Float32" Name="Points" NumberOfComponents="3" format="ascii" RangeMin="0" RangeMax="1.7320508075688772">
          1 0.5 1 0.5 0 1
          0.5 0.5 1 0.5 0 0
          0 1 0.5 1 0 0.5
          0 0.5 1 0 0 0.5
          0 0.5 0 1 0 0
          0.5 0.5 0.5 0.5 0 0.5
          0 0 0 0.5 1 0
          1 1 0.5 0.5 1 1
          1 1 1 0 0 1
          0 0.5 0.5 0.5 0.5 0
          1 0.5 0 0 1 0
          1 0 1 1 0.5 0.5
          0.5 1 0.5 0 1 1
          <InformationKey name="L2_NORM_RANGE" location="vtkDataArray" length="2">
            <Value index="0">
              0
            </Value>
            <Value index="1">
              1.7320508076
            </Value>
          </InformationKey>
        </DataArray>
      </Points>
      <Cells>
        <DataArray type="Int64" Name="connectivity" format="ascii" RangeMin="0" RangeMax="25">
          16 15 24 14 0 2
          10 23 0 2 10 23
          22 1 11 5 23 10
          19 20 5 11 3 9
          15 25 4 24 2 6
          18 10 2 6 18 10
          1 17 7 11 24 4
          21 13 10 18 8 19
          10 18 8 19 11 7
          12 3
        </DataArray>
        <DataArray type="Int64" Name="offsets" format="ascii" RangeMin="8" RangeMax="56">
          8 16 24 32 40 48
          56
        </DataArray>
        <DataArray type="UInt8" Name="types" format="ascii" RangeMin="12" RangeMax="12">
          12 12 12 12 12 12
          12
        </DataArray>
      </Cells>
    </Piece>
  </UnstructuredGrid>
</VTKFile>
