<?xml version="1.0"?>
<VTKFile type="UnstructuredGrid" version="0.1" byte_order="LittleEndian" header_type="UInt32" compressor="vtkZLibDataCompressor">
  <UnstructuredGrid>
    <Piece NumberOfPoints="42" NumberOfCells="12">
      <PointData>
        <DataArray type="Float64" Name="Temperature" format="ascii" RangeMin="0" RangeMax="0.506806963103734">
          0 0.3776035843875499 0 0 0 0.37694484572991294
          0 0 0.3776035844065109 0 0.36850671836333915 0.37272578204662604
          0.4418759043925729 0.462453642114499 0.4624536421212133 0.3727257820797336 0.37694484575521825 0
          0.3685067184064201 0.5068069629931756 0.37694484578052356 0.5068069630552329 0.4418759044173508 0.5033250594620072
          0.37694484579086474 0.503325059454873 0.5033250594322267 0.3776035844486515 0.506806963103734 0.3685067184451588
          0 0.4624118173770753 0.368506718404249 0.44187590444212876 0.3727257821128412 0.4900718666107276
          0.5068069630794834 0.490071866585861 0.46245364221379415 0.49007186656072727 0.46241181746188365 0.462411817400504
        </DataArray>
      </PointData>
      <CellData>
        <DataArray type="UInt8" Name="vtkGhostType" format="ascii" RangeMin="0" RangeMax="1">
          0 0 0 0 0 0
          0 1 1 1 1 1
        </DataArray>
      </CellData>
      <Points>
        <DataArray type="Float32" Name="Points" NumberOfComponents="3" format="ascii" RangeMin="0" RangeMax="1.5">
          0 0 0.5 0 0.5 1
          0 0 1 0 0 0
          0.5 0 0.5 0.5 0.5 0
          1 0 0 1 0 0.5
          0 0.5 0.5 0.5 0 1
          1 0.5 0 0.75 0.5 0
          0.5 0.75 0 0.75 0.75 0.25
          0.75 0.75 0 0.75 0.5 0.25
          0.5 0.5 0.25 1 0 1
          1 0.5 1 0.5 1 1
          0.5 0.5 0.5 0.5 1 0
          0.5 0.75 0.25 0 1 0.5
          0.5 0.5 1 0 1 0
          0 1 1 0 0.5 0
          0.5 1 0.5 1 0.5 0.5
          0.5 0 0 1 0.75 0
          1 0.5 0.25 0.5 0.75 0.5
          0.75 0.5 0.5 0.75 1 0.5
          0.5 1 0.25 0.75 1 0
          0.75 0.75 0.5 0.75 1 0.25
          1 0.75 0.5 1 0.75 0.25
          <InformationKey name="L2_NORM_RANGE" location="vtkDataArray" length="2">
            <Value index="0">
              0
            </Value>
            <Value index="1">
              1.5
            </Value>
          </InformationKey>
        </DataArray>
      </Points>
      <Cells>
        <DataArray type="Int64" Name="connectivity" format="ascii" RangeMin="0" RangeMax="41">
          19 26 23 28 24 1
          8 20 24 1 8 20
          9 2 0 4 20 8
          27 5 4 0 3 30
          29 20 5 10 7 4
          30 6 28 23 25 21
          20 8 27 5 18 24
          20 29 17 9 4 7
          13 22 12 14 15 16
          5 11 40 38 13 41
          29 34 15 32 41 13
          14 31 32 15 11 10
          35 28 36 39 38 33
          22 13 38 33 22 13
          34 20 16 15 39 36
          21 37 13 22 12 14
        </DataArray>
        <DataArray type="Int64" Name="offsets" format="ascii" RangeMin="8" RangeMax="96">
          8 16 24 32 40 48
          56 64 72 80 88 96
        </DataArray>
        <DataArray type="UInt8" Name="types" format="ascii" RangeMin="12" RangeMax="12">
          12 12 12 12 12 12
          12 12 12 12 12 12
        </DataArray>
      </Cells>
    </Piece>
  </UnstructuredGrid>
</VTKFile>
