<?xml version="1.0"?>
<VTKFile type="UnstructuredGrid" version="0.1" byte_order="LittleEndian" header_type="UInt32" compressor="vtkZLibDataCompressor">
  <UnstructuredGrid>
    <Piece NumberOfPoints="59" NumberOfCells="21">
      <PointData>
        <DataArray type="Float64" Name="Temperature" format="ascii" RangeMin="0" RangeMax="0.5068069627829984">
          0 0.5033250590654174 0 0.3776035841439781 0.3769448455107539 0.49278524131123674
          0.490071866067595 0.4900718659671383 0.36850671799017537 0.5033250590358352 0.36850671825675746 0.37694484554881996
          0.4624118170757055 0.3685067181234664 0.44187590416590916 0.4624536418282749 0.46241181704134454 0.4624536418721162
          0.3727257818266267 0 0 0.37760358428964713 0 0
          0 0 0.37760358429249796 0.5033250592255105 0 0.5068069626044179
          0.4418759041000318 0.37694484550858287 0.44187590407772337 0.37272578176678606 0.3769448455064119 0.36850671805980323
          0.3685067180249893 0.3769448455297869 0.4418759041329705 0.37272578175046467 0.4624536418898085 0.5068069627829984
          0.49278524151046815 0.4927852415338253 0.49007186624890614 0.4624118171227931 0.506806962736154 0.4624536417913104
          0.4900718660964275 0.4927852413169039 0.46241181706224194 0.5068069626893097 0.3727257819027887 0.4418759040554149
          0.37272578178310756 0.5068069626468639 0.49007186616800935 0.46245364181757764 0.4624118170380219
        </DataArray>
      </PointData>
      <CellData>
        <DataArray type="UInt8" Name="vtkGhostType" format="ascii" RangeMin="1" RangeMax="1">
          1 1 1 1 1 1
          1 1 1 1 1 1
          1 1 1 1 1 1
          1 1 1
        </DataArray>
      </CellData>
      <Points>
        <DataArray type="Float32" Name="Points" NumberOfComponents="3" format="ascii" RangeMin="0" RangeMax="1.7320508075688772">
          0.5 0 1 0 1 0.5
          1 0 0.5 0 0.5 1
          0.5 0.5 0.5 1 1 0.5
          0.75 1 1 0.75 1 0.75
          1 0.5 0.5 0 1 1
          1 0.5 1 0.5 0.5 1
          1 0.75 1 1 0.5 0.75
          0.5 0.75 1 0.75 0.75 0.75
          1 0.75 0.75 0.75 0.75 1
          0.75 0.5 0.75 0.5 0 0
          0 0 0.5 0 0.5 0
          1 0 0 0.5 0 0.5
          0 0 0 0 0 1
          0 0.5 0.5 0 1 0
          1 0 1 0.5 1 0
          0.5 0.75 0.5 0.5 0.5 0.25
          0.5 0.75 0.25 0.75 0.5 0.25
          0.5 0.5 0 1 0.5 0
          1 0.5 0.25 0.5 0.5 0.75
          0.5 0.75 0.75 0.75 0.5 0.5
          0.75 0.75 0.5 0.5 1 1
          1 1 1 1 1 0.75
          0.75 1 0.5 1 0.75 0.5
          0.5 1 0.75 0.75 0.75 0.25
          0.75 1 0.25 1 1 0.25
          1 0.75 0.25 0.5 1 0.5
          0.75 0.5 1 0.5 0.75 0
          0.75 0.5 0 0.5 1 0.25
          0.75 1 0 0.75 0.75 0
          1 0.75 0
          <InformationKey name="L2_NORM_RANGE" location="vtkDataArray" length="2">
            <Value index="0">
              0
            </Value>
            <Value index="1">
              1.7320508076
            </Value>
          </InformationKey>
        </DataArray>
      </Points>
      <Cells>
        <DataArray type="Int64" Name="connectivity" format="ascii" RangeMin="0" RangeMax="58">
          10 11 4 8 28 0
          23 2 8 4 34 35
          2 23 19 22 41 9
          1 51 11 3 26 4
          11 3 26 4 0 25
          20 23 51 1 27 29
          4 26 21 34 4 26
          21 34 23 20 24 19
          42 6 7 43 12 17
          15 16 43 7 44 5
          16 15 40 45 16 15
          40 45 13 18 39 8
          6 41 46 7 17 14
          38 15 7 46 51 44
          15 38 30 40 15 38
          30 40 18 37 4 39
          5 44 48 49 45 40
          47 50 45 40 47 50
          8 39 33 36 40 30
          32 47 39 4 31 33
          12 17 15 16 10 52
          18 13 17 14 38 15
          52 11 37 18 50 47
          57 58 36 33 54 35
          44 51 55 48 40 30
          32 47 48 55 29 56
          47 32 53 57 47 32
          53 57 33 31 34 54
        </DataArray>
        <DataArray type="Int64" Name="offsets" format="ascii" RangeMin="8" RangeMax="168">
          8 16 24 32 40 48
          56 64 72 80 88 96
          104 112 120 128 136 144
          152 160 168
        </DataArray>
        <DataArray type="UInt8" Name="types" format="ascii" RangeMin="12" RangeMax="12">
          12 12 12 12 12 12
          12 12 12 12 12 12
          12 12 12 12 12 12
          12 12 12
        </DataArray>
      </Cells>
    </Piece>
  </UnstructuredGrid>
</VTKFile>
