<?xml version="1.0"?>
<VTKFile type="UnstructuredGrid" version="0.1" byte_order="LittleEndian" header_type="UInt32" compressor="vtkZLibDataCompressor">
  <UnstructuredGrid>
    <Piece NumberOfPoints="155" NumberOfCells="70">
      <PointData>
        <DataArray type="Float64" Name="Temperature" format="ascii" RangeMin="0.21858204663424885" RangeMax="0.5015269558120827">
          0.4701193371626581 0.37460426970269817 0.4225033638974186 0.3747458301696546 0.3748873906333538 0.42155540283731063
          0.3747458301674158 0.37460426970371663 0.42741699563620084 0.4274169956377461 0.4215554028386852 0.42250336389596477
          0.4274169956341964 0.37474583016853524 0.3748873906321335 0.5015269558061813 0.42250336389451093 0.4858231464873704
          0.4701193371614606 0.490696318490315 0.4858231464864416 0.4906963184910817 0.46553883521600403 0.4701193371585758
          0.5015269558107623 0.5015269558084718 0.49771513389125505 0.4858231464855127 0.5015269558114226 0.49771513389369504
          0.497715133888956 0.4977151338924098 0.4215554028400599 0.4655388352142181 0.4906963184869571 0.4906963184884406
          0.465538835212169 0.47011933715688836 0.48582314648153485 0.46553883520976125 0.4906963184838447 0.48582314648352376
          0.5015269558120827 0.4685065359719231 0.47011933716026316 0.49771513388531946 0.5015269558044726 0.3754372467554138
          0.5010077880940444 0.3754372467570058 0.50100778809703 0.4695258782010777 0.21886962834811685 0.46952587820310854
          0.46952587820183506 0.5010077880923502 0.375437246753327 0.21874059313040853 0.21886962834944 0.3754372467563131
          0.4695258782040956 0.5010077880955124 0.46800720711624993 0.4685065359759052 0.4913193033751794 0.4913193033718213
          0.4682568715440863 0.4680072071120917 0.46800720711694566 0.46850653597538455 0.4685065359764259 0.49081458184285565
          0.49081458184534665 0.4908145818440917 0.49865102195497946 0.49865102195334354 0.4986510219543445 0.4685065359736538
          0.49081458184147775 0.49865102194739114 0.49081458183823073 0.4986510219520176 0.4682568715420074 0.37460426970111443
          0.3746042697019063 0.42741699563392366 0.4215554028360729 0.374745830166806 0.47011933715453025 0.3748873906312779
          0.48582314647864705 0.4906963184799037 0.46553883520846423 0.46850653596855596 0.5015269558027639 0.37488739063170573
          0.4225033638937075 0.4701193371557093 0.4685065359702395 0.3746954112498784 0.218626213403162 0.21858204663424885
          0.4906963184806003 0.48582314648009095 0.4977151338781909 0.4977151338810061 0.49131930337105983 0.4680072071088845
          0.4682568715403638 0.4986510219448731 0.49081458183655535 0.3746954112559099 0.3748873906345741 0.3746954112521852
          0.21874059313126257 0.2185820466351492 0.4225033638991532 0.37488739063511123 0.2187405931326524 0.2188696283505412
          0.2186262134050982 0.4274169956399135 0.21874059313234345 0.2185820466361575 0.21862621340408792 0.21862621340539581
          0.4225033638982859 0.42741699564055124 0.3747458301702419 0.4655388352180857 0.4215554028412178 0.4215554028406388
          0.3748873906356484 0.3746954112546144 0.3746042697060097 0.37460426970473515 0.3746042697053724 0.46825687154616513
          0.49138171113188905 0.49138171113552126 0.4913193033770078 0.4680072071145187 0.49138171114129514 0.42155540283483517
          0.37474583016619617 0.4274169956322782 0.4655388352068465 0.4225033638929041 0.49138171113088663 0.4913817111281388
          0.49081458183390336 0.4682568715387202 0.4680072071104881 0.49131930336754565 0.3747458301708291
        </DataArray>
      </PointData>
      <CellData>
        <DataArray type="UInt8" Name="vtkGhostType" format="ascii" RangeMin="0" RangeMax="1">
          1 1 1 1 1 1
          1 0 0 1 1 1
          1 1 1 1 0 1
          0 1 0 0 0 1
          0 1 0 0 0 0
          0 1 1 1 1 1
          1 1 1 0 1 1
          1 1 1 1 1 1
          0 0 0 1 1 0
          0 0 1 1 1 1
          1 1 1 1 1 1
          1 1 1 1
        </DataArray>
      </CellData>
      <Points>
        <DataArray type="Float32" Name="Points" NumberOfComponents="3" format="ascii" RangeMin="0.4330127018922193" RangeMax="1.5258194519667128">
          0.5 0.75 0 0.75 0.5 0.5
          0.5 0.625 0.25 0.625 0.5 0.25
          0.5 0.5 0.375 0.75 0.625 0.5
          0.625 0.5 0.5 0.75 0.5 0.375
          0.625 0.625 0.375 0.625 0.625 0.25
          0.75 0.625 0.375 0.5 0.625 0.375
          0.625 0.625 0.5 0.625 0.5 0.375
          0.5 0.5 0.5 0.5 1 0.5
          0.5 0.625 0.5 0.5 0.875 0
          0.5 0.75 0.125 0.625 0.875 0.125
          0.5 0.875 0.125 0.625 0.875 0
          0.625 0.75 0.125 0.5 0.75 0.375
          0.5 1 0.25 0.5 1 0.375
          0.625 1 0.25 0.5 0.875 0.25
          0.5 1 0.125 0.625 1 0
          0.625 1 0.375 0.625 1 0.125
          0.75 0.625 0.25 0.625 0.75 0.25
          0.625 0.875 0.375 0.625 0.875 0.25
          0.625 0.75 0.375 0.5 0.75 0.5
          0.5 0.875 0.5 0.625 0.75 0.5
          0.625 0.875 0.5 0.5 0.875 0.375
          0.5 1 0 0.75 0.75 0.5
          0.5 0.75 0.25 0.625 1 0.5
          0.5 1 0.625 0.25 0.5 0.5
          0.25 1 0.5 0.25 0.5 0
          0.25 1 0 0.25 0.75 0.75
          0.25 0.25 0.75 0.25 0.75 0.25
          0.25 0.75 0.5 0.25 1 0.75
          0.25 0.5 0.75 0.5 0.25 0.75
          0.25 0.25 0.5 0.25 0.5 0.25
          0.25 0.75 0 0.25 1 0.25
          1 0.75 0 0.75 0.75 0.125
          0.875 0.875 0.375 0.875 0.875 0.5
          0.875 0.75 0.375 1 0.75 0.5
          1 0.75 0.25 0.75 0.75 0.25
          0.75 0.75 0 0.75 0.875 0.25
          0.75 0.875 0 0.75 0.875 0.125
          0.75 1 0 0.75 1 0.25
          0.75 1 0.125 0.75 0.75 0.375
          0.75 0.875 0.375 0.75 1 0.5
          0.75 0.875 0.5 0.75 1 0.375
          0.875 0.75 0.5 0.75 0.5 0.75
          0.75 0.5 0.625 0.625 0.625 0.625
          0.75 0.625 0.625 0.625 0.5 0.625
          0.5 0.75 0.75 0.5 0.5 0.75
          0.5 0.875 0.75 0.625 0.875 0.75
          0.625 0.75 0.625 0.75 0.75 0.75
          0.5 1 0.75 0.5 0.5 0.625
          0.5 0.625 0.625 0.5 0.75 0.625
          0.75 0.75 0.625 1 0.5 0.75
          0.75 0.25 0.75 1 0.25 0.75
          0.625 0.875 0.625 0.5 0.875 0.625
          0.625 1 0.75 0.625 1 0.625
          0.875 0.875 0.625 1 0.75 0.75
          0.875 0.75 0.625 0.75 1 0.625
          0.75 0.875 0.625 1 0.5 0
          0.5 0.5 0.25 1 0.5 0.5
          0.5 0.25 0.5 1 0.25 0.5
          0.5 0.625 0 0.5 0.5 0.125
          0.5 0.25 0 0.25 0.25 0.25
          0.75 0.25 0.25 0.625 0.625 0.125
          0.5 0.25 0.25 1 0.25 0.25
          0.75 0.25 0.5 0.75 0.25 0
          0.5 0.625 0.125 0.625 0.625 0
          0.625 0.5 0.125 0.625 0.75 0
          0.75 0.625 0 0.75 0.625 0.125
          0.5 0.5 0 1 0.5 0.25
          0.75 0.5 0 0.75 0.5 0.25
          0.75 0.5 0.125 0.875 0.75 0.25
          1 0.875 0.5 1 0.875 0.375
          0.875 0.875 0.25 1 0.75 0.375
          1 0.875 0.25 0.75 0.625 0.75
          0.625 0.5 0.75 0.625 0.625 0.75
          0.625 0.75 0.75 0.5 0.625 0.75
          1 0.875 0.625 1 0.875 0.75
          0.75 0.875 0.75 0.875 0.75 0.75
          1 0.75 0.625 0.875 0.875 0.75
          0.625 0.5 0
          <InformationKey name="L2_NORM_RANGE" location="vtkDataArray" length="2">
            <Value index="0">
              0.43301270189
            </Value>
            <Value index="1">
              1.525819452
            </Value>
          </InformationKey>
        </DataArray>
      </Points>
      <Cells>
        <DataArray type="Int64" Name="connectivity" format="ascii" RangeMin="0" RangeMax="154">
          67 43 69 68 113 1
          135 133 68 69 70 62
          133 135 134 111 107 93
          43 67 99 83 1 113
          94 55 48 15 88 51
          54 37 88 51 54 37
          89 56 47 14 89 56
          47 14 57 52 58 114
          14 47 59 112 114 58
          119 122 113 1 135 133
          115 124 120 123 1 14
          112 135 124 114 122 120
          135 112 132 134 120 122
          118 125 15 48 61 24
          37 54 53 44 37 54
          53 44 14 47 59 112
          24 61 50 42 44 53
          60 0 44 53 60 0
          112 59 49 132 99 83
          1 113 101 100 124 115
          83 89 14 1 100 57
          114 124 19 20 17 21
          22 18 0 129 69 33
          22 63 32 9 121 131
          32 9 121 131 135 3
          128 136 63 22 129 70
          131 121 127 130 33 44
          18 22 9 2 126 121
          9 2 126 121 3 112
          117 128 22 18 0 129
          121 126 116 127 43 39
          36 77 5 12 8 10
          5 12 8 10 1 6
          13 7 77 36 33 69
          10 8 9 32 10 8
          9 32 7 13 3 135
          39 37 23 36 12 16
          11 8 12 16 11 8
          6 14 4 13 36 23
          44 33 8 11 2 9
          8 11 2 9 13 4
          112 3 98 92 39 43
          86 85 12 5 86 85
          12 5 84 87 6 1
          92 97 37 39 85 96
          16 12 85 96 16 12
          87 95 14 6 106 110
          80 65 108 98 43 82
          65 80 78 64 82 43
          77 66 71 35 19 73
          69 33 22 63 73 19
          21 72 63 22 129 70
          45 15 25 30 40 38
          41 34 109 105 45 79
          110 102 40 80 110 102
          40 80 98 92 39 43
          104 94 46 105 91 90
          103 102 105 46 15 45
          102 103 38 40 102 103
          38 40 92 97 37 39
          79 45 30 81 80 40
          34 78 81 30 26 75
          78 34 35 71 78 34
          35 71 77 36 33 69
          40 38 41 34 39 37
          23 36 30 25 24 26
          34 41 27 35 34 41
          27 35 36 23 44 33
          75 26 31 76 71 35
          19 73 76 31 29 74
          73 19 21 72 26 24
          28 31 35 27 20 19
          35 27 20 19 33 44
          18 22 31 28 42 29
          19 20 17 21 80 40
          34 78 43 39 36 77
          148 106 65 138 152 108
          82 67 138 65 64 139
          67 82 66 141 139 64
          140 142 141 66 137 68
          64 78 71 140 66 77
          69 137 93 146 92 98
          143 145 85 86 143 145
          85 86 83 144 87 84
          146 88 97 92 145 147
          96 85 145 147 96 85
          144 89 95 87 153 150
          110 106 151 93 98 108
          150 91 102 110 93 146
          92 98 91 90 103 102
          146 88 97 92 149 153
          106 148 107 151 108 152
          121 126 116 127 128 117
          132 154
        </DataArray>
        <DataArray type="Int64" Name="offsets" format="ascii" RangeMin="8" RangeMax="560">
          8 16 24 32 40 48
          56 64 72 80 88 96
          104 112 120 128 136 144
          152 160 168 176 184 192
          200 208 216 224 232 240
          248 256 264 272 280 288
          296 304 312 320 328 336
          344 352 360 368 376 384
          392 400 408 416 424 432
          440 448 456 464 472 480
          488 496 504 512 520 528
          536 544 552 560
        </DataArray>
        <DataArray type="UInt8" Name="types" format="ascii" RangeMin="12" RangeMax="12">
          12 12 12 12 12 12
          12 12 12 12 12 12
          12 12 12 12 12 12
          12 12 12 12 12 12
          12 12 12 12 12 12
          12 12 12 12 12 12
          12 12 12 12 12 12
          12 12 12 12 12 12
          12 12 12 12 12 12
          12 12 12 12 12 12
          12 12 12 12 12 12
          12 12 12 12
        </DataArray>
      </Cells>
    </Piece>
  </UnstructuredGrid>
</VTKFile>
