<?xml version="1.0"?>
<VTKFile type="UnstructuredGrid" version="0.1" byte_order="LittleEndian" header_type="UInt32" compressor="vtkZLibDataCompressor">
  <UnstructuredGrid>
    <Piece NumberOfPoints="24" NumberOfCells="6">
      <PointData>
        <DataArray type="Float64" Name="Temperature" format="ascii" RangeMin="0" RangeMax="0.49999997138930063">
          0 0.3749999744703894 0 0.49999996982884537 0.4999999689566784 0
          0.3749999737421646 0 0.37499997398441803 0.3749999740334601 0.4999999688812278 0
          0.4999999696070166 0 0 0.3749999748453556 0.49999996909910394 0.37499997450724953
          0.3749999751905943 0 0.3749999751205819 0.49999997138930063 0.3749999758830571 0
        </DataArray>
      </PointData>
      <CellData>
        <DataArray type="UInt8" Name="vtkGhostType" format="ascii" RangeMin="1" RangeMax="1">
          1 1 1 1 1 1
        </DataArray>
      </CellData>
      <Points>
        <DataArray type="Float32" Name="Points" NumberOfComponents="3" format="ascii" RangeMin="0" RangeMax="1.5">
          0.5 0 0 0 0.5 0.5
          0.5 0 1 0 1 0
          0 1 1 0 0 0.5
          0 0.5 1 0 0 1
          0 0.5 0 1 0.5 0
          0.5 1 0 0 0 0
          0.5 1 0.5 0.5 0 0.5
          1 0 1 1 0.5 0.5
          0 1 0.5 0.5 0.5 0.5
          0.5 0.5 0 1 0 0
          1 0.5 1 0.5 1 1
          0.5 0.5 1 1 0 0.5
          <InformationKey name="L2_NORM_RANGE" location="vtkDataArray" length="2">
            <Value index="0">
              0
            </Value>
            <Value index="1">
              1.5
            </Value>
          </InformationKey>
        </DataArray>
      </Points>
      <Cells>
        <DataArray type="Int64" Name="connectivity" format="ascii" RangeMin="0" RangeMax="23">
          20 22 17 15 14 2
          13 23 15 17 18 9
          23 13 0 19 21 4
          16 12 22 6 1 17
          22 6 1 17 2 7
          5 13 12 16 3 10
          17 1 8 18 17 1
          8 18 13 5 11 0
        </DataArray>
        <DataArray type="Int64" Name="offsets" format="ascii" RangeMin="8" RangeMax="48">
          8 16 24 32 40 48
        </DataArray>
        <DataArray type="UInt8" Name="types" format="ascii" RangeMin="12" RangeMax="12">
          12 12 12 12 12 12
        </DataArray>
      </Cells>
    </Piece>
  </UnstructuredGrid>
</VTKFile>
