<?xml version="1.0"?>
<VTKFile type="UnstructuredGrid" version="0.1" byte_order="LittleEndian" header_type="UInt32" compressor="vtkZLibDataCompressor">
  <UnstructuredGrid>
    <Piece NumberOfPoints="89" NumberOfCells="30">
      <PointData>
        <DataArray type="Float64" Name="Temperature" format="ascii" RangeMin="0.36815520834571963" RangeMax="0.5091701589948818">
          0.4918784994779099 0.4619398983192563 0.46193989832119986 0.46164188289688013 0.4616418829002725 0.4613438674759528
          0.4918784994751731 0.49146447223011164 0.48439090373037863 0.49187849947937906 0.48411056099481375 0.48411056099230404
          0.4841105609940154 0.4843909037326037 0.4841105609937626 0.491464472234697 0.46164188290064057 0.4843909037315233
          0.48411056099266087 0.46164188289857633 0.4918784994750385 0.49146447223162326 0.49187849948116674 0.4619398983237313
          0.4918784994844984 0.4619398983231434 0.46193989832343735 0.4918784994810179 0.36815520834595783 0.44298547589426207
          0.37680079279775996 0.3724780005730087 0.3724780005724527 0.36815520834571963 0.3681552083464018 0.36815520834708393
          0.46134386748003636 0.37680079279893347 0.37680079279807394 0.5091701589948818 0.48411056099919564 0.48439090373568994
          0.49146447223655815 0.4619398983219764 0.4918784994743416 0.49146447223006523 0.4843909037288341 0.46193989832285387
          0.4841105609918797 0.4843909037269498 0.4841105609950921 0.4914644722273121 0.46164188290100744 0.46134386747740164
          0.4613438674745039 0.48439090372974686 0.452164671684383 0.48260938499336964 0.4826093849922058 0.4816112223526982
          0.48260938499303047 0.4816112223525798 0.45216467168543817 0.4907405790370788 0.49074057903923934 0.4907405790371252
          0.4914644722309637 0.49146447223401313 0.484390903737621 0.37680079279658646 0.3681552083465209 0.3724780005712721
          0.3724780005721404 0.4613438674778437 0.4521646716864932 0.4826093849963603 0.48161122235219017 0.4613438674791611
          0.4907405790407252 0.4826093849967366 0.5091701589919376 0.4907405790410692 0.4613438674782858 0.4429854758955848
          0.4826093849974897 0.49074057903980506 0.46164188290100855 0.4826093849912124 0.4616418829010064
        </DataArray>
      </PointData>
      <CellData>
        <DataArray type="UInt8" Name="vtkGhostType" format="ascii" RangeMin="0" RangeMax="1">
          1 1 1 1 0 0
          0 0 0 0 0 0
          0 0 0 0 0 0
          0 0 0 0 0 0
          0 0 0 0 1 1
        </DataArray>
      </CellData>
      <Points>
        <DataArray type="Float32" Name="Points" NumberOfComponents="3" format="ascii" RangeMin="0.7071067811865476" RangeMax="1.6630168369562588">
          1 1 0.5 1 0.75 0
          1 0.75 0.125 0.875 0.75 0
          0.875 0.75 0.25 0.75 0.75 0.125
          1 1 0.625 0.875 1 0.5
          1 0.875 0.5 1 1 0.375
          0.875 0.875 0.375 0.875 0.875 0.125
          0.875 0.875 0.5 1 0.875 0.375
          0.875 0.875 0.25 0.875 1 0.375
          0.875 0.75 0.375 1 0.875 0.125
          0.875 0.875 0 0.875 0.75 0.125
          1 1 0.75 0.875 1 0.25
          1 1 0 1 0.75 0.5
          1 1 0.25 1 0.75 0.25
          1 0.75 0.375 1 1 0.125
          1 0.5 0 0.5 0.75 0
          0.5 0.5 0.25 0.75 0.5 0.5
          0.75 0.5 0.75 1 0.5 1
          1 0.5 0.75 1 0.5 0.5
          0.75 0.75 0.75 0.5 0.5 0.5
          0.5 0.5 1 0.5 1 0.5
          0.875 0.875 0.625 1 0.875 0.625
          0.875 1 0.625 1 0.75 0.75
          1 1 0.875 0.875 1 0.75
          1 0.875 0.75 1 0.75 0.625
          0.875 0.875 0.875 1 0.875 0.875
          0.875 0.875 0.75 0.875 1 0.875
          0.875 0.75 0.625 0.75 0.75 0.25
          0.75 0.75 0 1 0.875 0
          0.625 0.75 0 0.75 0.875 0.25
          0.75 0.875 0 0.625 0.875 0.125
          0.75 0.875 0.125 0.625 0.875 0
          0.625 0.75 0.125 0.75 1 0
          0.75 1 0.25 0.75 1 0.125
          0.875 1 0 0.875 1 0.125
          1 0.875 0.25 0.5 0.5 0
          1 0.5 0.25 0.75 0.5 0
          0.75 0.5 0.25 0.75 0.75 0.375
          0.625 0.75 0.25 0.75 0.875 0.375
          0.625 0.875 0.25 0.75 0.75 0.625
          0.75 1 0.625 0.75 0.875 0.625
          0.5 1 0 0.75 1 0.5
          0.75 0.75 0.5 0.5 0.75 0.25
          0.75 0.875 0.5 0.75 1 0.375
          0.875 0.75 0.5 0.75 0.875 0.75
          0.875 0.75 0.75
          <InformationKey name="L2_NORM_RANGE" location="vtkDataArray" length="2">
            <Value index="0">
              0.70710678119
            </Value>
            <Value index="1">
              1.663016837
            </Value>
          </InformationKey>
        </DataArray>
      </Points>
      <Cells>
        <DataArray type="Int64" Name="connectivity" format="ascii" RangeMin="0" RangeMax="88">
          53 83 29 54 72 30
          69 71 23 82 53 25
          35 31 72 70 25 53
          54 1 70 72 71 28
          43 36 82 23 34 32
          31 35 20 45 42 6
          46 50 40 41 6 42
          7 0 41 40 12 8
          41 40 12 8 47 52
          86 23 42 78 81 7
          40 79 84 12 40 79
          84 12 52 77 82 86
          0 7 15 9 8 12
          10 13 8 12 10 13
          23 86 16 26 9 15
          21 24 13 10 14 68
          13 10 14 68 26 16
          4 25 7 81 85 15
          12 84 75 10 12 84
          75 10 86 82 73 16
          15 85 64 21 10 75
          57 14 10 75 57 14
          16 73 53 4 24 21
          67 27 68 14 11 17
          68 14 11 17 25 4
          19 2 27 67 66 22
          17 11 18 55 17 11
          18 55 2 19 3 1
          21 64 65 67 14 57
          60 11 14 57 60 11
          4 53 5 19 67 65
          63 66 11 60 58 18
          11 60 58 18 19 5
          54 3 57 76 59 60
          53 74 62 5 60 59
          61 58 5 62 56 54
          44 51 45 20 49 48
          50 46 50 87 79 40
          88 36 77 52 46 50
          40 41 43 88 52 47
        </DataArray>
        <DataArray type="Int64" Name="offsets" format="ascii" RangeMin="8" RangeMax="240">
          8 16 24 32 40 48
          56 64 72 80 88 96
          104 112 120 128 136 144
          152 160 168 176 184 192
          200 208 216 224 232 240
        </DataArray>
        <DataArray type="UInt8" Name="types" format="ascii" RangeMin="12" RangeMax="12">
          12 12 12 12 12 12
          12 12 12 12 12 12
          12 12 12 12 12 12
          12 12 12 12 12 12
          12 12 12 12 12 12
        </DataArray>
      </Cells>
    </Piece>
  </UnstructuredGrid>
</VTKFile>
