<?xml version="1.0"?>
<VTKFile type="UnstructuredGrid" version="0.1" byte_order="LittleEndian" header_type="UInt32" compressor="vtkZLibDataCompressor">
  <UnstructuredGrid>
    <Piece NumberOfPoints="86" NumberOfCells="35">
      <PointData>
        <DataArray type="Float64" Name="Temperature" format="ascii" RangeMin="0.36815520834595783" RangeMax="0.5091701589948818">
          0.46134386747740164 0.4613438674745039 0.48439090372974686 0.47607781744309985 0.4429854758949235 0.452164671684383
          0.48260938499336964 0.4826093849922058 0.4816112223526982 0.48260938499303047 0.47607781744379857 0.4816112223525798
          0.45216467168543817 0.44298547589624626 0.5091701589934097 0.4907405790370788 0.49074057903923934 0.5091701589941457
          0.4909228234561835 0.4760778174444973 0.5091701589926737 0.4907405790371252 0.4914644722309637 0.49092282345518895
          0.49146447223401313 0.4909228234578915 0.49092282345545213 0.484390903737621 0.37824320506687714 0.36815520834595783
          0.44298547589426207 0.37680079279775996 0.3724780005730087 0.5040037373207457 0.5040037373212415 0.3782432050666084
          0.36815520834708393 0.4619398983192563 0.46193989832119986 0.46164188289688013 0.4616418829002725 0.4613438674759528
          0.49187849947937906 0.48411056099481375 0.48411056099230404 0.4843909037326037 0.4841105609937626 0.491464472234697
          0.46164188290064057 0.4843909037315233 0.48411056099266087 0.46164188289857633 0.49146447223162326 0.49187849948116674
          0.4619398983237313 0.4918784994844984 0.4619398983231434 0.46193989832343735 0.4918784994810179 0.37680079279893347
          0.5091701589948818 0.37680079279658646 0.3681552083465209 0.3724780005712721 0.3724780005721404 0.4613438674778437
          0.4521646716864932 0.4816112223546576 0.4826093849963603 0.48161122235219017 0.45216467168704505 0.4429854758969076
          0.4760778174458947 0.4521646716875967 0.48161122235484666 0.47607781744519606 0.5091701589919376 0.4907405790410692
          0.4613438674782858 0.4429854758955848 0.4826093849974897 0.49092282345576504 0.49074057903980506 0.48439090373037863
          0.4841105609940154 0.46164188290100855
        </DataArray>
      </PointData>
      <CellData>
        <DataArray type="UInt8" Name="vtkGhostType" format="ascii" RangeMin="0" RangeMax="1">
          1 1 1 1 1 1
          1 1 1 1 1 1
          1 1 1 1 1 0
          0 0 1 0 0 0
          0 1 0 1 0 0
          0 1 1 1 1
        </DataArray>
      </CellData>
      <Points>
        <DataArray type="Float32" Name="Points" NumberOfComponents="3" format="ascii" RangeMin="0.5" RangeMax="1.4630874888399532">
          0.75 0.75 0.25 0.75 0.75 0
          1 0.875 0 0.5 0.875 0
          0.5 0.75 0.125 0.625 0.75 0
          0.75 0.875 0.25 0.75 0.875 0
          0.625 0.875 0.125 0.75 0.875 0.125
          0.5 0.875 0.125 0.625 0.875 0
          0.625 0.75 0.125 0.5 0.75 0.375
          0.5 1 0.25 0.75 1 0
          0.75 1 0.25 0.5 1 0.375
          0.625 1 0.25 0.5 0.875 0.25
          0.5 1 0.125 0.75 1 0.125
          0.875 1 0 0.625 1 0
          0.875 1 0.125 0.625 1 0.375
          0.625 1 0.125 1 0.875 0.25
          0 0.5 0.5 1 0.5 0
          0.5 0.75 0 0.5 0.5 0.25
          0.75 0.5 0.5 0 1 0.5
          0 1 0 0 0.5 0
          1 0.5 0.5 1 0.75 0
          1 0.75 0.125 0.875 0.75 0
          0.875 0.75 0.25 0.75 0.75 0.125
          1 1 0.375 0.875 0.875 0.375
          0.875 0.875 0.125 1 0.875 0.375
          0.875 0.875 0.25 0.875 1 0.375
          0.875 0.75 0.375 1 0.875 0.125
          0.875 0.875 0 0.875 0.75 0.125
          0.875 1 0.25 1 1 0
          1 0.75 0.5 1 1 0.25
          1 0.75 0.25 1 0.75 0.375
          1 1 0.125 0.5 0.5 0.5
          0.5 1 0.5 0.5 0.5 0
          1 0.5 0.25 0.75 0.5 0
          0.75 0.5 0.25 0.75 0.75 0.375
          0.625 0.75 0.25 0.625 0.875 0.375
          0.75 0.875 0.375 0.625 0.875 0.25
          0.625 0.75 0.375 0.5 0.75 0.5
          0.5 0.875 0.5 0.625 0.75 0.5
          0.625 0.875 0.5 0.5 0.875 0.375
          0.5 1 0 0.75 1 0.5
          0.75 0.75 0.5 0.5 0.75 0.25
          0.75 0.875 0.5 0.625 1 0.5
          0.75 1 0.375 1 0.875 0.5
          0.875 0.875 0.5 0.875 0.75 0.5
          <InformationKey name="L2_NORM_RANGE" location="vtkDataArray" length="2">
            <Value index="0">
              0.5
            </Value>
            <Value index="1">
              1.4630874888
            </Value>
          </InformationKey>
        </DataArray>
      </Points>
      <Cells>
        <DataArray type="Int64" Name="connectivity" format="ascii" RangeMin="0" RangeMax="85">
          60 33 34 76 59 28
          35 61 0 79 30 1
          64 31 61 63 54 78
          0 56 36 32 64 62
          56 0 1 37 62 64
          63 29 78 71 79 0
          32 59 31 64 42 47
          52 55 45 43 46 27
          45 43 46 27 57 48
          40 56 47 82 16 52
          43 68 6 46 43 68
          6 46 48 65 0 40
          55 52 24 58 27 46
          44 49 27 46 44 49
          56 40 51 38 58 24
          22 53 49 44 50 2
          49 44 50 2 38 51
          39 37 52 16 21 24
          46 6 9 44 46 6
          9 44 40 0 41 51
          24 21 15 22 44 9
          7 50 44 9 7 50
          51 41 1 39 77 81
          25 82 80 74 67 68
          82 25 18 16 68 67
          69 6 68 67 69 6
          65 70 66 0 81 60
          17 25 74 72 75 67
          74 72 75 67 73 71
          13 70 25 17 14 18
          67 75 19 69 67 75
          19 69 70 13 79 66
          16 18 26 21 6 69
          8 9 6 69 8 9
          0 66 12 41 21 26
          23 15 9 8 11 7
          9 8 11 7 41 12
          5 1 18 14 20 26
          69 19 10 8 69 19
          10 8 66 79 4 12
          26 20 76 23 8 10
          3 11 8 10 3 11
          12 4 30 5 83 84
          43 45 54 85 48 57
          84 80 68 43 85 78
          65 48 80 74 67 68
          78 73 70 65
        </DataArray>
        <DataArray type="Int64" Name="offsets" format="ascii" RangeMin="8" RangeMax="280">
          8 16 24 32 40 48
          56 64 72 80 88 96
          104 112 120 128 136 144
          152 160 168 176 184 192
          200 208 216 224 232 240
          248 256 264 272 280
        </DataArray>
        <DataArray type="UInt8" Name="types" format="ascii" RangeMin="12" RangeMax="12">
          12 12 12 12 12 12
          12 12 12 12 12 12
          12 12 12 12 12 12
          12 12 12 12 12 12
          12 12 12 12 12 12
          12 12 12 12 12
        </DataArray>
      </Cells>
    </Piece>
  </UnstructuredGrid>
</VTKFile>
