<?xml version="1.0"?>
<VTKFile type="UnstructuredGrid" version="0.1" byte_order="LittleEndian" header_type="UInt32" compressor="vtkZLibDataCompressor">
  <UnstructuredGrid>
    <Piece NumberOfPoints="49" NumberOfCells="14">
      <PointData>
        <DataArray type="Float64" Name="Temperature" format="ascii" RangeMin="0" RangeMax="0.506806963103734">
          0 0.44187590444212876 0.3727257821128412 0.44187590441707447 0.3727257821057418 0.3685067184064201
          0.37694484578569415 0.3727257820986424 0.5068069629931756 0.4418759043920202 0 0.3776035843875499
          0 0 0.37694484572991294 0 0 0.3776035844065109
          0 0.36850671836333915 0.368506718404249 0.462453642114499 0.3727257820797336 0.37694484575521825
          0.46245364221235197 0.4624118174841031 0.49007186662342533 0.3685067184257894 0.37694484578052356 0.4624118175327842
          0.46245364226480273 0.49007186666827224 0.5068069630552329 0.4900718666107276 0.5068069630794834 0.46245364221379415
          0.4418759044173508 0.49007186656072727 0.5033250594620072 0.37694484579086474 0.503325059454873 0.5033250594322267
          0.3776035844486515 0.46241181746188365 0.462411817400504 0.506806963103734 0.3685067184451588 0.5068069630484549
          0
        </DataArray>
      </PointData>
      <CellData>
        <DataArray type="UInt8" Name="vtkGhostType" format="ascii" RangeMin="0" RangeMax="1">
          1 1 1 1 1 0
          0 0 0 0 0 1
          1 1
        </DataArray>
      </CellData>
      <Points>
        <DataArray type="Float32" Name="Points" NumberOfComponents="3" format="ascii" RangeMin="0.5" RangeMax="1.6007810593582121">
          1 0 1 0.5 0.75 0.5
          0.75 0.5 0.5 0.5 0.75 0.75
          0.75 0.5 0.75 1 0.5 1
          0.5 0.5 0.75 0.75 0.5 1
          0.5 1 1 0.5 0.75 1
          0 0 0.5 0 0.5 1
          0 0 1 0.5 0 0.5
          0.5 0.5 0 1 0 0
          1 0 0.5 0 0.5 0.5
          0.5 0 1 1 0.5 0
          1 0.5 0.25 0.75 0.75 0.25
          0.75 0.5 0.25 0.5 0.5 0.25
          0.75 0.75 0.75 1 0.75 0.75
          0.75 1 0.75 1 0.5 0.75
          0.5 0.5 0.5 1 0.75 1
          0.75 0.75 1 0.75 1 1
          0.5 1 0 0.75 1 0.5
          0.5 1 0.25 0.75 0.75 0.5
          0.5 0.75 0.25 0.75 1 0.25
          0 1 0.5 0.5 0.5 1
          0 1 0 0 1 1
          0 0.5 0 1 0.75 0.5
          1 0.75 0.25 0.5 1 0.5
          1 0.5 0.5 0.5 1 0.75
          0.5 0 0
          <InformationKey name="L2_NORM_RANGE" location="vtkDataArray" length="2">
            <Value index="0">
              0.5
            </Value>
            <Value index="1">
              1.6007810594
            </Value>
          </InformationKey>
        </DataArray>
      </Points>
      <Cells>
        <DataArray type="Int64" Name="connectivity" format="ascii" RangeMin="0" RangeMax="48">
          8 41 38 45 39 11
          17 28 39 11 17 28
          18 12 10 13 46 28
          14 19 16 13 48 15
          45 38 40 32 28 17
          42 14 5 39 28 46
          0 18 13 16 29 30
          24 25 5 7 4 27
          25 24 35 43 27 4
          2 46 31 8 47 26
          30 9 3 24 30 9
          3 24 7 39 6 4
          26 47 45 33 24 3
          1 35 24 3 1 35
          4 6 28 2 43 35
          21 44 46 2 22 20
          33 45 34 37 35 1
          36 21 35 1 36 21
          2 28 23 22
        </DataArray>
        <DataArray type="Int64" Name="offsets" format="ascii" RangeMin="8" RangeMax="112">
          8 16 24 32 40 48
          56 64 72 80 88 96
          104 112
        </DataArray>
        <DataArray type="UInt8" Name="types" format="ascii" RangeMin="12" RangeMax="12">
          12 12 12 12 12 12
          12 12 12 12 12 12
          12 12
        </DataArray>
      </Cells>
    </Piece>
  </UnstructuredGrid>
</VTKFile>
