<?xml version="1.0"?>
<VTKFile type="UnstructuredGrid" version="0.1" byte_order="LittleEndian" header_type="UInt32" compressor="vtkZLibDataCompressor">
  <UnstructuredGrid>
    <Piece NumberOfPoints="24" NumberOfCells="6">
      <PointData>
        <DataArray type="Float64" Name="Temperature" format="ascii" RangeMin="0" RangeMax="0.5000000007788918">
          0.3749999996180464 0 0.37499999977792003 0.3749999994589445 0 0.3749999999523325
          0.3750000000297702 0 0 0 0.3749999999310432 0
          0 0 0.3750000000311809 0.4999999998292428 0.499999999587997 0.5000000000195395
          0.5000000001745011 0.4999999999555893 0.3750000003993483 0.5000000001306008 0.5000000001429484 0.5000000007788918
        </DataArray>
      </PointData>
      <CellData>
        <DataArray type="UInt8" Name="vtkGhostType" format="ascii" RangeMin="1" RangeMax="1">
          1 1 1 1 1 1
        </DataArray>
      </CellData>
      <Points>
        <DataArray type="Float32" Name="Points" NumberOfComponents="3" format="ascii" RangeMin="0" RangeMax="1.7320508075688772">
          0 0.5 0.5 0 0 1
          0 0.5 1 0.5 0.5 1
          1 0 0.5 1 0.5 0.5
          0.5 0.5 0.5 1 0 1
          0.5 0 1 0 0 0.5
          0 0.5 0 0.5 0 0
          0.5 0 0.5 0 0 0
          0.5 0.5 0 0 1 0.5
          0 1 1 0 1 0
          0.5 1 0 0.5 1 0.5
          1 0.5 1 1 1 1
          0.5 1 1 1 1 0.5
          <InformationKey name="L2_NORM_RANGE" location="vtkDataArray" length="2">
            <Value index="0">
              0
            </Value>
            <Value index="1">
              1.7320508076
            </Value>
          </InformationKey>
        </DataArray>
      </Points>
      <Cells>
        <DataArray type="Int64" Name="connectivity" format="ascii" RangeMin="0" RangeMax="23">
          21 22 19 23 20 3
          6 5 20 3 6 5
          7 8 12 4 22 16
          15 19 3 2 0 6
          3 2 0 6 8 1
          9 12 19 15 17 18
          6 0 10 14 6 0
          10 14 12 9 13 11
        </DataArray>
        <DataArray type="Int64" Name="offsets" format="ascii" RangeMin="8" RangeMax="48">
          8 16 24 32 40 48
        </DataArray>
        <DataArray type="UInt8" Name="types" format="ascii" RangeMin="12" RangeMax="12">
          12 12 12 12 12 12
        </DataArray>
      </Cells>
    </Piece>
  </UnstructuredGrid>
</VTKFile>
