<?xml version="1.0"?>
<VTKFile type="UnstructuredGrid" version="0.1" byte_order="LittleEndian" header_type="UInt32" compressor="vtkZLibDataCompressor">
  <UnstructuredGrid>
    <Piece NumberOfPoints="22" NumberOfCells="5">
      <PointData>
        <DataArray type="Float64" Name="Temperature" format="ascii" RangeMin="0" RangeMax="0.4999998017446123">
          0 0.4999998013459637 0.49999980125553195 0.4999998016613722 0.49999980164667523 0
          0.37499985908103084 0.3749998591157036 0.4999998017308802 0.49999980160348473 0.3749998589571874 0.374999859129333
          0.49999980161452107 0.3749998589967872 0 0.3749998591035137 0.3749998589954406 0.4999998017330374
          0 0.4999998017446123 0.37499985926975804 0.3749998590668771
        </DataArray>
      </PointData>
      <CellData>
        <DataArray type="UInt8" Name="vtkGhostType" format="ascii" RangeMin="1" RangeMax="1">
          1 1 1 1 1
        </DataArray>
      </CellData>
      <Points>
        <DataArray type="Float32" Name="Points" NumberOfComponents="3" format="ascii" RangeMin="0.5" RangeMax="1.7320508075688772">
          1 0 0 0.5 1 1
          0.5 1 0 1 1 0.5
          0 1 0.5 1 0 0.5
          1 0.5 0.5 0 0.5 0.5
          0 1 1 0 1 0
          0 0.5 1 1 0.5 1
          1 1 1 0 0.5 0
          0.5 0 0 0.5 0.5 0.5
          0.5 0.5 1 0.5 1 0.5
          0.5 0 0.5 1 1 0
          1 0.5 0 0.5 0.5 0
          <InformationKey name="L2_NORM_RANGE" location="vtkDataArray" length="2">
            <Value index="0">
              0.5
            </Value>
            <Value index="1">
              1.7320508076
            </Value>
          </InformationKey>
        </DataArray>
      </Points>
      <Cells>
        <DataArray type="Int64" Name="connectivity" format="ascii" RangeMin="0" RangeMax="21">
          12 1 17 3 11 16
          15 6 3 17 2 19
          6 15 21 20 6 15
          21 20 5 18 14 0
          1 8 4 17 16 10
          7 15 17 4 9 2
          15 7 13 21
        </DataArray>
        <DataArray type="Int64" Name="offsets" format="ascii" RangeMin="8" RangeMax="40">
          8 16 24 32 40
        </DataArray>
        <DataArray type="UInt8" Name="types" format="ascii" RangeMin="12" RangeMax="12">
          12 12 12 12 12
        </DataArray>
      </Cells>
    </Piece>
  </UnstructuredGrid>
</VTKFile>
