<?xml version="1.0"?>
<VTKFile type="UnstructuredGrid" version="0.1" byte_order="LittleEndian" header_type="UInt32" compressor="vtkZLibDataCompressor">
  <UnstructuredGrid>
    <Piece NumberOfPoints="27" NumberOfCells="8">
      <PointData>
        <DataArray type="Float64" Name="Temperature" format="ascii" RangeMin="0" RangeMax="0.5000000007788918">
          0 0.3749999999523325 0.3750000000297702 0 0 0.3749999996180464
          0 0.37499999977792003 0.3749999994589445 0 0.3749999999310432 0
          0 0 0 0.5000000001736047 0.3750000003804884 0.3750000000311809
          0.4999999998292428 0.499999999587997 0.5000000000195395 0.5000000001745011 0.4999999999555893 0.3750000003993483
          0.5000000001306008 0.5000000001429484 0.5000000007788918
        </DataArray>
      </PointData>
      <CellData>
        <DataArray type="UInt8" Name="vtkGhostType" format="ascii" RangeMin="0" RangeMax="0">
          0 0 0 0 0 0
          0 0
        </DataArray>
      </CellData>
      <Points>
        <DataArray type="Float32" Name="Points" NumberOfComponents="3" format="ascii" RangeMin="0" RangeMax="1.7320508075688772">
          1 0 0.5 1 0.5 0.5
          0.5 0.5 0.5 1 0 1
          0.5 0 1 0 0.5 0.5
          0 0 1 0 0.5 1
          0.5 0.5 1 0 0 0.5
          0 0.5 0 0.5 0 0
          0.5 0 0.5 0 0 0
          1 0 0 1 1 0
          1 0.5 0 0.5 0.5 0
          0 1 0.5 0 1 1
          0 1 0 0.5 1 0
          0.5 1 0.5 1 0.5 1
          1 1 1 0.5 1 1
          1 1 0.5
          <InformationKey name="L2_NORM_RANGE" location="vtkDataArray" length="2">
            <Value index="0">
              0
            </Value>
            <Value index="1">
              1.7320508076
            </Value>
          </InformationKey>
        </DataArray>
      </Points>
      <Cells>
        <DataArray type="Int64" Name="connectivity" format="ascii" RangeMin="0" RangeMax="26">
          24 25 22 26 23 8
          2 1 23 8 2 1
          3 4 12 0 26 22
          21 15 1 2 17 16
          1 2 17 16 0 12
          11 14 25 19 18 22
          8 7 5 2 8 7
          5 2 4 6 9 12
          22 18 20 21 2 5
          10 17 2 5 10 17
          12 9 13 11
        </DataArray>
        <DataArray type="Int64" Name="offsets" format="ascii" RangeMin="8" RangeMax="64">
          8 16 24 32 40 48
          56 64
        </DataArray>
        <DataArray type="UInt8" Name="types" format="ascii" RangeMin="12" RangeMax="12">
          12 12 12 12 12 12
          12 12
        </DataArray>
      </Cells>
    </Piece>
  </UnstructuredGrid>
</VTKFile>
