<?xml version="1.0"?>
<VTKFile type="UnstructuredGrid" version="0.1" byte_order="LittleEndian" header_type="UInt32" compressor="vtkZLibDataCompressor">
  <UnstructuredGrid>
    <Piece NumberOfPoints="22" NumberOfCells="5">
      <PointData>
        <DataArray type="Float64" Name="Temperature" format="ascii" RangeMin="0" RangeMax="0.5000000011172929">
          0.3750000006221653 0 0.5000000001407169 0.5000000008815613 0 0.5000000006302309
          0.3750000000436832 0 0.5000000008816428 0.375000000581466 0.5000000009571267 0
          0.37500000062965555 0.5000000001112996 0.3750000004136305 0.3749999999551334 0.5000000011172929 0.3750000001743534
          0.5000000003399724 0.500000000695484 0.3750000003696141 0.3750000005673918
        </DataArray>
      </PointData>
      <CellData>
        <DataArray type="UInt8" Name="vtkGhostType" format="ascii" RangeMin="0" RangeMax="0">
          0 0 0 0 0
        </DataArray>
      </CellData>
      <Points>
        <DataArray type="Float32" Name="Points" NumberOfComponents="3" format="ascii" RangeMin="0" RangeMax="1.7320508075688772">
          0 0.5 0 0 0 0
          1 1 0.5 0 1 1
          0.5 0 0 0.5 1 1
          1 0.5 0.5 0 0 0.5
          0.5 1 0 0.5 0.5 0
          0 1 0.5 0.5 0 0.5
          0 0.5 0.5 1 1 1
          0.5 0.5 0.5 1 0.5 1
          0 1 0 1 0.5 0
          1 1 0 0.5 1 0.5
          0.5 0.5 1 0 0.5 1
          <InformationKey name="L2_NORM_RANGE" location="vtkDataArray" length="2">
            <Value index="0">
              0
            </Value>
            <Value index="1">
              1.7320508076
            </Value>
          </InformationKey>
        </DataArray>
      </Points>
      <Cells>
        <DataArray type="Int64" Name="connectivity" format="ascii" RangeMin="0" RangeMax="21">
          13 5 19 2 15 20
          14 6 5 3 10 19
          20 21 12 14 19 10
          16 8 14 12 0 9
          14 12 0 9 11 7
          1 4 2 19 8 18
          6 14 9 17
        </DataArray>
        <DataArray type="Int64" Name="offsets" format="ascii" RangeMin="8" RangeMax="40">
          8 16 24 32 40
        </DataArray>
        <DataArray type="UInt8" Name="types" format="ascii" RangeMin="12" RangeMax="12">
          12 12 12 12 12
        </DataArray>
      </Cells>
    </Piece>
  </UnstructuredGrid>
</VTKFile>
