<?xml version="1.0"?>
<VTKFile type="UnstructuredGrid" version="0.1" byte_order="LittleEndian" header_type="UInt32" compressor="vtkZLibDataCompressor">
  <UnstructuredGrid>
    <Piece NumberOfPoints="24" NumberOfCells="6">
      <PointData>
        <DataArray type="Float64" Name="Temperature" format="ascii" RangeMin="0" RangeMax="0.4999999687516817">
          0 0.374999973959055 0 0.3749999739594698 0 0.3749999739580924
          0 0.3749999739579836 0 0.49999996875007996 0.3749999739589154 0
          0 0.4999999687516817 0.4999999687507994 0 0.3749999739589302 0.37499997395868667
          0.37499997395916584 0.49999996875091923 0 0.37499997395871376 0.4999999687507635 0.49999996875087616
        </DataArray>
      </PointData>
      <CellData>
        <DataArray type="UInt8" Name="vtkGhostType" format="ascii" RangeMin="1" RangeMax="1">
          1 1 1 1 1 1
        </DataArray>
      </CellData>
      <Points>
        <DataArray type="Float32" Name="Points" NumberOfComponents="3" format="ascii" RangeMin="0" RangeMax="1.5">
          1 0 0.5 0 0.5 1
          0 0 0.5 0 0.5 0
          1 0 0 1 0.5 1
          0.5 0 1 0.5 0.5 1
          0.5 0 0 0 1 0.5
          0.5 0.5 0.5 0.5 0 0.5
          0 0 0 0.5 1 0
          0.5 1 1 0 0 1
          0 0.5 0.5 0.5 0.5 0
          1 0.5 0 0 1 0
          1 0 1 1 0.5 0.5
          0.5 1 0.5 0 1 1
          <InformationKey name="L2_NORM_RANGE" location="vtkDataArray" length="2">
            <Value index="0">
              0
            </Value>
            <Value index="1">
              1.5
            </Value>
          </InformationKey>
        </DataArray>
      </Points>
      <Cells>
        <DataArray type="Int64" Name="connectivity" format="ascii" RangeMin="0" RangeMax="23">
          5 7 10 21 20 6
          11 0 21 10 17 18
          0 11 8 4 14 23
          9 22 7 1 16 10
          7 1 16 10 6 15
          2 11 22 9 19 13
          10 16 3 17 10 16
          3 17 11 2 12 8
        </DataArray>
        <DataArray type="Int64" Name="offsets" format="ascii" RangeMin="8" RangeMax="48">
          8 16 24 32 40 48
        </DataArray>
        <DataArray type="UInt8" Name="types" format="ascii" RangeMin="12" RangeMax="12">
          12 12 12 12 12 12
        </DataArray>
      </Cells>
    </Piece>
  </UnstructuredGrid>
</VTKFile>
