<?xml version="1.0"?>
<VTKFile type="UnstructuredGrid" version="0.1" byte_order="LittleEndian" header_type="UInt32" compressor="vtkZLibDataCompressor">
  <UnstructuredGrid>
    <Piece NumberOfPoints="56" NumberOfCells="18">
      <PointData>
        <DataArray type="Float64" Name="Temperature" format="ascii" RangeMin="0" RangeMax="0.506806963103734">
          0.5068069630552329 0.4900718666107276 0.5068069630794834 0.490071866585861 0.46245364221379415 0.4418759044173508
          0.49007186656072727 0.5033250594620072 0.37694484579086474 0.503325059454873 0 0.3776035843875499
          0 0 0.37694484572991294 0 0.3776035844065109 0
          0.36850671836333915 0.4927852419888251 0.4624118173770753 0.368506718404249 0.37272578204662604 0.4418759043925729
          0.462453642114499 0.4624536421212133 0.3727257820797336 0.37694484575521825 0 0.44187590444212876
          0.3727257821128412 0.44187590441707447 0.3727257821057418 0.3685067184064201 0.37694484578569415 0.3727257820986424
          0.5068069629931756 0.4418759043920202 0.4927852420923832 0.46245364221235197 0.4624118174841031 0.49007186662342533
          0.3685067184257894 0.37694484578052356 0.46245364226480273 0.5033250594322267 0.3776035844486515 0.49278524199595286
          0.46241181746188365 0.4927852419663146 0.462411817400504 0.506806963103734 0.3685067184451588 0.5068069630484549
          0.4624118175327842 0.49007186666827224
        </DataArray>
      </PointData>
      <CellData>
        <DataArray type="UInt8" Name="vtkGhostType" format="ascii" RangeMin="1" RangeMax="1">
          1 1 1 1 1 1
          1 1 1 1 1 1
          1 1 1 1 1 1
        </DataArray>
      </CellData>
      <Points>
        <DataArray type="Float32" Name="Points" NumberOfComponents="3" format="ascii" RangeMin="0.5" RangeMax="1.6007810593582121">
          0.5 1 0 0.75 1 0.5
          0.5 1 0.25 0.75 1 0
          0.75 0.75 0.5 0.5 0.75 0.25
          0.75 1 0.25 0 1 0.5
          0.5 0.5 1 0 1 0
          0 0 0.5 0 0.5 1
          0 0 1 0.5 0 0.5
          0.5 0.5 0 1 0 0.5
          0 0.5 0.5 0.5 0 1
          1 0.5 0 1 1 0.5
          1 0.75 0 1 0.5 0.25
          0.75 0.5 0 0.5 0.75 0
          0.75 0.75 0.25 0.75 0.75 0
          0.75 0.5 0.25 0.5 0.5 0.25
          1 0 1 0.5 0.75 0.5
          0.75 0.5 0.5 0.5 0.75 0.75
          0.75 0.5 0.75 1 0.5 1
          0.5 0.5 0.75 0.75 0.5 1
          0.5 1 1 0.5 0.75 1
          1 1 0.75 0.75 0.75 0.75
          1 0.75 0.75 0.75 1 0.75
          1 0.5 0.75 0.5 0.5 0.5
          0.75 0.75 1 0 1 1
          0 0.5 0 1 1 0
          1 0.75 0.5 1 1 0.25
          1 0.75 0.25 0.5 1 0.5
          1 0.5 0.5 0.5 1 0.75
          1 0.75 1 0.75 1 1
          <InformationKey name="L2_NORM_RANGE" location="vtkDataArray" length="2">
            <Value index="0">
              0.5
            </Value>
            <Value index="1">
              1.6007810594
            </Value>
          </InformationKey>
        </DataArray>
      </Points>
      <Cells>
        <DataArray type="Int64" Name="connectivity" format="ascii" RangeMin="0" RangeMax="55">
          36 45 7 51 8 11
          16 43 8 11 16 43
          17 12 10 13 51 7
          9 0 43 16 46 14
          33 8 43 52 28 17
          13 15 38 41 1 19
          40 39 4 48 40 39
          4 48 42 32 30 52
          44 37 31 39 35 8
          34 32 41 53 51 1
          39 31 29 4 39 31
          29 4 32 34 43 30
          19 1 6 49 48 4
          24 50 48 4 24 50
          52 30 26 21 49 6
          3 47 50 24 25 20
          1 51 2 6 4 29
          5 24 4 29 5 24
          30 43 27 26 6 2
          0 3 24 5 23 25
          24 5 23 25 26 27
          14 22 54 44 39 40
          33 35 32 42 55 36
          53 41 44 37 31 39
        </DataArray>
        <DataArray type="Int64" Name="offsets" format="ascii" RangeMin="8" RangeMax="144">
          8 16 24 32 40 48
          56 64 72 80 88 96
          104 112 120 128 136 144
        </DataArray>
        <DataArray type="UInt8" Name="types" format="ascii" RangeMin="12" RangeMax="12">
          12 12 12 12 12 12
          12 12 12 12 12 12
          12 12 12 12 12 12
        </DataArray>
      </Cells>
    </Piece>
  </UnstructuredGrid>
</VTKFile>
