<?xml version="1.0"?>
<VTKFile type="UnstructuredGrid" version="0.1" byte_order="LittleEndian" header_type="UInt32" compressor="vtkZLibDataCompressor">
  <UnstructuredGrid>
    <Piece NumberOfPoints="70" NumberOfCells="25">
      <PointData>
        <DataArray type="Float64" Name="Temperature" format="ascii" RangeMin="0.36815520834571963" RangeMax="0.5091701589948818">
          0.48411056099919564 0.48439090373568994 0.49146447223655815 0.4619398983219764 0.49074057903532875 0.46193989831964527
          0.4918784994734181 0.49074057903430246 0.4918784994743416 0.49146447223006523 0.4843909037288341 0.4826093849912124
          0.4613438674780639 0.4616418829010064 0.46193989832081084 0.46193989832285387 0.4907405790344941 0.48439090372658195
          0.46164188289786834 0.49146447222772394 0.4841105609918797 0.4843909037269498 0.4826093849904795 0.4841105609923856
          0.4841105609950921 0.4914644722273121 0.4616418828994373 0.46164188290100744 0.3724780005730087 0.3724780005724527
          0.36815520834571963 0.3724780005718968 0.44298547589566306 0.3681552083464018 0.36815520834708393 0.4918784994779099
          0.4918784994751731 0.49146447223011164 0.48439090373037863 0.4841105609940154 0.4918784994750385 0.4619398983237313
          0.44298547589628534 0.3768007927985037 0.5091701589932521 0.4521646716881609 0.4521646716858772 0.4909228234579123
          0.48161122235635495 0.4816112223589876 0.4816112223548254 0.48161122235793064 0.49092282345763144 0.452164671687019
          0.4521646716878788 0.46134386748003636 0.37680079279893347 0.46134386747609135 0.4909228234580872 0.4826093849936356
          0.49092282346118926 0.37680079279807394 0.5091701589948818 0.4613438674791611 0.4907405790407252 0.4826093849967366
          0.4907405790410692 0.4613438674782858 0.4826093849974897 0.46164188290100855
        </DataArray>
      </PointData>
      <CellData>
        <DataArray type="UInt8" Name="vtkGhostType" format="ascii" RangeMin="0" RangeMax="1">
          1 1 1 1 0 1
          1 0 1 1 1 1
          1 1 1 1 1 0
          0 1 0 1 1 0
          1
        </DataArray>
      </CellData>
      <Points>
        <DataArray type="Float32" Name="Points" NumberOfComponents="3" format="ascii" RangeMin="0.8660254037844386" RangeMax="1.7320508075688772">
          0.875 0.875 0.625 1 0.875 0.625
          0.875 1 0.625 1 0.75 0.75
          0.75 1 0.75 1 0.75 1
          1 1 1 0.75 1 1
          1 1 0.875 0.875 1 0.75
          1 0.875 0.75 0.75 0.875 0.75
          0.75 0.75 0.875 0.875 0.75 0.75
          1 0.75 0.875 1 0.75 0.625
          0.75 1 0.875 1 0.875 1
          0.875 0.75 1 0.875 1 1
          0.875 0.875 0.875 1 0.875 0.875
          0.75 0.875 0.875 0.875 0.875 1
          0.875 0.875 0.75 0.875 1 0.875
          0.875 0.75 0.875 0.875 0.75 0.625
          0.75 0.5 0.5 0.75 0.5 0.75
          1 0.5 1 0.75 0.5 1
          0.5 0.75 1 1 0.5 0.75
          1 0.5 0.5 1 1 0.5
          1 1 0.625 0.875 1 0.5
          1 0.875 0.5 0.875 0.875 0.5
          1 1 0.75 1 0.75 0.5
          0.5 0.75 0.75 0.5 0.5 0.75
          0.5 1 1 0.625 0.75 0.75
          0.625 0.75 1 0.625 1 1
          0.625 0.875 0.875 0.625 0.875 0.625
          0.625 0.875 1 0.625 0.875 0.75
          0.625 1 0.875 0.625 0.75 0.875
          0.625 0.75 0.625 0.75 0.75 0.75
          0.5 0.5 0.5 0.75 0.75 1
          0.625 1 0.75 0.75 0.875 1
          0.625 1 0.625 0.5 0.5 1
          0.5 1 0.5 0.75 0.75 0.625
          0.75 1 0.625 0.75 0.875 0.625
          0.75 1 0.5 0.75 0.75 0.5
          0.75 0.875 0.5 0.875 0.75 0.5
          <InformationKey name="L2_NORM_RANGE" location="vtkDataArray" length="2">
            <Value index="0">
              0.86602540378
            </Value>
            <Value index="1">
              1.7320508076
            </Value>
          </InformationKey>
        </DataArray>
      </Points>
      <Cells>
        <DataArray type="Int64" Name="connectivity" format="ascii" RangeMin="0" RangeMax="69">
          5 57 55 3 30 31
          29 33 3 55 67 41
          33 29 28 34 57 32
          42 55 31 61 43 29
          40 9 2 36 10 24
          0 1 10 24 0 1
          3 13 27 15 36 2
          37 35 1 0 39 38
          1 0 39 38 15 27
          69 41 9 4 64 2
          24 11 65 0 24 11
          65 0 13 55 63 27
          2 64 66 37 0 65
          68 39 0 65 68 39
          27 63 67 69 7 47
          52 16 59 50 48 22
          59 50 48 22 57 46
          53 12 16 52 58 4
          22 48 51 11 22 48
          51 11 12 53 45 55
          4 58 60 64 11 51
          49 65 11 51 49 65
          55 45 54 63 6 19
          25 8 17 23 20 21
          17 23 20 21 5 18
          26 14 8 25 9 40
          21 20 24 10 21 20
          24 10 14 26 13 3
          19 7 16 25 23 59
          22 20 23 59 22 20
          18 57 12 26 25 16
          4 9 20 22 11 24
          20 22 11 24 26 12
          55 13
        </DataArray>
        <DataArray type="Int64" Name="offsets" format="ascii" RangeMin="8" RangeMax="200">
          8 16 24 32 40 48
          56 64 72 80 88 96
          104 112 120 128 136 144
          152 160 168 176 184 192
          200
        </DataArray>
        <DataArray type="UInt8" Name="types" format="ascii" RangeMin="12" RangeMax="12">
          12 12 12 12 12 12
          12 12 12 12 12 12
          12 12 12 12 12 12
          12 12 12 12 12 12
          12
        </DataArray>
      </Cells>
    </Piece>
  </UnstructuredGrid>
</VTKFile>
