<?xml version="1.0"?>
<VTKFile type="UnstructuredGrid" version="0.1" byte_order="LittleEndian" header_type="UInt32" compressor="vtkZLibDataCompressor">
  <UnstructuredGrid>
    <Piece NumberOfPoints="115" NumberOfCells="45">
      <PointData>
        <DataArray type="Float64" Name="Temperature" format="ascii" RangeMin="0" RangeMax="0.5091701589948818">
          0.37680079279658646 0.3681552083465209 0.3724780005712721 0.3724780005721404 0.4613438674778437 0.4521646716864932
          0.4816112223546576 0.4826093849963603 0.48161122235219017 0.45216467168704505 0.4429854758969076 0.4760778174458947
          0.44298547589659654 0.4521646716875967 0.48161122235484666 0.47607781744519606 0.4613438674791611 0.4907405790407252
          0.4826093849967366 0.5091701589919376 0.4907405790410692 0.4613438674782858 0.4429854758955848 0.4826093849974897
          0.49092282345576504 0.49074057903980506 0.46164188290100855 0.5091701589944744 0 0.37824320506724957
          0 0 0 0 0.37824320506687714 0.36815520834595783
          0.44298547589426207 0.37680079279775996 0.3724780005730087 0.3724780005724527 0.36815520834571963 0.3681552083464018
          0.5040037373207457 0.5040037373212415 0.5040037373209532 0.3782432050666084 0.36815520834708393 0
          0.4619398983192563 0.4616418829002725 0.4613438674759528 0.49146447223011164 0.48439090373037863 0.48411056099481375
          0.4841105609940154 0.4843909037326037 0.4841105609937626 0.491464472234697 0.46164188290064057 0.49146447223162326
          0.4619398983237313 0.4619398983231434 0.46193989832343735 0.44298547589628534 0.3768007927985037 0.5091701589932521
          0.4760778174451762 0.4521646716881609 0.4816112223589876 0.48161122235793064 0.47607781744553546 0.4521646716878788
          0.46134386748003636 0.37680079279893347 0.4909228234580872 0.49092282346118926 0.37680079279807394 0.5091701589948818
          0.5091701589940669 0.48411056099919564 0.48439090373568994 0.49146447223655815 0.4619398983219764 0.49074057903532875
          0.49146447223006523 0.4826093849912124 0.4616418829010064 0.46193989832285387 0.4841105609950921 0.46164188290100744
          0.46134386747740164 0.4613438674745039 0.47607781744309985 0.44298547589492343 0.48260938499336964 0.4816112223526982
          0.48260938499303047 0.47607781744379857 0.4816112223525798 0.45216467168543817 0.44298547589624626 0.5091701589934097
          0.49074057903923934 0.5091701589941457 0.4909228234561835 0.4760778174444973 0.5091701589926737 0.4907405790371252
          0.49092282345518895 0.4909228234578915 0.49092282345545213 0.4843909037288341 0.452164671684383 0.4826093849922058
          0.484390903737621
        </DataArray>
      </PointData>
      <CellData>
        <DataArray type="UInt8" Name="vtkGhostType" format="ascii" RangeMin="0" RangeMax="1">
          1 1 1 1 1 1
          1 1 1 1 1 1
          1 1 1 1 1 1
          1 1 1 0 1 1
          1 1 1 1 1 1
          1 1 1 1 1 1
          1 1 1 1 1 1
          1 1 1
        </DataArray>
      </CellData>
      <Points>
        <DataArray type="Float32" Name="Points" NumberOfComponents="3" format="ascii" RangeMin="0" RangeMax="1.5258194519667128">
          0.5 0.5 0 1 0.5 0.25
          0.75 0.5 0 0.75 0.5 0.25
          0.75 0.75 0.375 0.625 0.75 0.25
          0.625 0.875 0.375 0.75 0.875 0.375
          0.625 0.875 0.25 0.625 0.75 0.375
          0.5 0.75 0.5 0.5 0.875 0.5
          0.5 0.75 0.625 0.625 0.75 0.5
          0.625 0.875 0.5 0.5 0.875 0.375
          0.75 0.75 0.625 0.75 1 0.625
          0.75 0.875 0.625 0.5 1 0
          0.75 1 0.5 0.75 0.75 0.5
          0.5 0.75 0.25 0.75 0.875 0.5
          0.625 1 0.5 0.75 1 0.375
          0.875 0.75 0.5 0.5 1 0.625
          0 0 0.5 0 0.5 1
          0 0 0 0.5 0 0.5
          1 0 0 1 0 0.5
          0 0.5 0.5 1 0.5 0
          0.5 0.75 0 0.5 0.5 0.25
          0.75 0.5 0.5 0.75 0.5 0.75
          1 0.5 1 1 0.5 0.75
          0 1 0.5 0 1 0
          0 1 1 0 0.5 0
          1 0.5 0.5 0.5 0 0
          1 0.75 0 0.875 0.75 0.25
          0.75 0.75 0.125 0.875 1 0.5
          1 0.875 0.5 0.875 0.875 0.375
          0.875 0.875 0.5 1 0.875 0.375
          0.875 0.875 0.25 0.875 1 0.375
          0.875 0.75 0.375 0.875 1 0.25
          1 0.75 0.5 1 0.75 0.25
          1 0.75 0.375 0.5 0.75 0.75
          0.5 0.5 0.75 0.5 1 1
          0.5 0.875 0.75 0.625 0.75 0.75
          0.625 0.875 0.625 0.625 0.875 0.75
          0.5 0.875 0.625 0.625 0.75 0.625
          0.75 0.75 0.75 0.5 0.5 0.5
          0.625 1 0.75 0.625 1 0.625
          0.5 0.5 1 0.5 1 0.5
          0.5 1 0.75 0.875 0.875 0.625
          1 0.875 0.625 0.875 1 0.625
          1 0.75 0.75 0.75 1 0.75
          0.875 1 0.75 0.75 0.875 0.75
          0.875 0.75 0.75 1 0.75 0.625
          0.875 0.875 0.75 0.875 0.75 0.625
          0.75 0.75 0.25 0.75 0.75 0
          0.5 0.875 0 0.5 0.75 0.125
          0.75 0.875 0.25 0.625 0.875 0.125
          0.75 0.875 0.125 0.5 0.875 0.125
          0.625 0.875 0 0.625 0.75 0.125
          0.5 0.75 0.375 0.5 1 0.25
          0.75 1 0.25 0.5 1 0.375
          0.625 1 0.25 0.5 0.875 0.25
          0.5 1 0.125 0.75 1 0.125
          0.625 1 0 0.625 1 0.375
          0.625 1 0.125 1 0.875 0.75
          0.625 0.75 0 0.75 0.875 0
          1 0.875 0.25
          <InformationKey name="L2_NORM_RANGE" location="vtkDataArray" length="2">
            <Value index="0">
              0
            </Value>
            <Value index="1">
              1.525819452
            </Value>
          </InformationKey>
        </DataArray>
      </Points>
      <Cells>
        <DataArray type="Int64" Name="connectivity" format="ascii" RangeMin="0" RangeMax="114">
          65 44 42 77 76 29
          34 73 73 34 45 0
          31 28 30 47 46 73
          0 35 33 31 47 32
          77 42 43 19 73 34
          45 0 90 22 36 91
          3 37 0 2 60 21
          90 61 46 38 3 1
          61 90 91 48 1 3
          2 35 21 10 22 90
          38 73 37 3 82 72
          21 60 41 39 38 46
          72 63 10 21 39 64
          73 38 80 79 54 52
          87 89 26 60 84 83
          17 81 88 85 18 79
          88 85 18 79 86 72
          16 89 81 17 20 51
          79 18 23 54 79 18
          23 54 89 16 21 26
          52 54 53 55 60 26
          58 62 51 20 25 57
          54 23 7 53 54 23
          7 53 26 21 4 58
          57 25 102 59 53 7
          94 56 53 7 94 56
          58 4 90 49 20 24
          109 25 23 14 6 7
          23 14 6 7 21 13
          9 4 25 109 104 102
          7 6 8 94 7 6
          8 94 4 9 5 90
          24 77 103 109 14 11
          15 6 14 11 15 6
          13 10 100 9 109 103
          101 104 6 15 105 8
          6 15 105 8 9 100
          22 5 102 104 110 107
          94 8 95 96 94 8
          95 96 90 5 99 50
          104 101 106 110 8 105
          97 95 8 105 97 95
          5 22 93 99 110 106
          19 108 95 97 92 98
          83 74 75 17 85 69
          68 18 85 69 68 18
          72 67 71 16 17 75
          24 20 18 68 14 23
          18 68 14 23 16 71
          13 21 74 78 27 75
          69 66 70 68 69 66
          70 68 67 63 12 71
          75 27 77 24 68 70
          11 14 68 70 11 14
          71 12 10 13 95 97
          92 98 99 93 36 112
          55 53 56 114 62 58
          49 61 96 95 98 113
          50 99 112 91 111 88
          79 80 82 86 89 87
        </DataArray>
        <DataArray type="Int64" Name="offsets" format="ascii" RangeMin="8" RangeMax="360">
          8 16 24 32 40 48
          56 64 72 80 88 96
          104 112 120 128 136 144
          152 160 168 176 184 192
          200 208 216 224 232 240
          248 256 264 272 280 288
          296 304 312 320 328 336
          344 352 360
        </DataArray>
        <DataArray type="UInt8" Name="types" format="ascii" RangeMin="12" RangeMax="12">
          12 12 12 12 12 12
          12 12 12 12 12 12
          12 12 12 12 12 12
          12 12 12 12 12 12
          12 12 12 12 12 12
          12 12 12 12 12 12
          12 12 12 12 12 12
          12 12 12
        </DataArray>
      </Cells>
    </Piece>
  </UnstructuredGrid>
</VTKFile>
