<?xml version="1.0"?>
<VTKFile type="UnstructuredGrid" version="0.1" byte_order="LittleEndian" header_type="UInt32" compressor="vtkZLibDataCompressor">
  <UnstructuredGrid>
    <Piece NumberOfPoints="27" NumberOfCells="32">
      <PointData>
        <DataArray type="Float64" Name="Density" format="ascii" RangeMin="1" RangeMax="1.9409580470841568">
          1 1 1.7 1.2134821011889685 1 1.7
          1.0644712801435 1.3553711373266142 1.2418032295703911 1.7000000000000002 1.4574179490937644 1.4384403537891721
          1.7000000000000002 1.5451277819454219 1.5999763454503941 1.7000000000000002 1.6187577340841193 1.7179465991712017
          1.7000000000000002 1.6796264088321207 1.8042915360375993 1.6999999999999995 1.7355850907197674 1.8630945789927482
          1.7 1.784997418893741 1.9409580470841568
        </DataArray>
        <DataArray type="Float64" Name="Momentum" NumberOfComponents="3" format="ascii" RangeMin="2.8999999999999995" RangeMax="5.2489196594855505">
          2.9 0 0 2.9 0 0
          4.45281 -0.86071 0 3.395040732736023 -0.27028357873158393 0
          2.8999999999999995 0 0 4.4528099999999995 -0.8607099999999999 0
          3.05276919661553 0 0 3.702808291357644 -0.47144019822499417 0
          3.4826237804152305 0 0 4.4528099999999995 -0.86071 0
          3.9374959585427867 -0.5741941551801537 0 3.9497397629944695 0 0
          4.4528099999999995 -0.8607099999999999 0 4.143282089616919 -0.6160848592263337 0
          4.344970456195804 0 0 4.45281 -0.86071 0
          4.321364430120654 -0.6363061593818651 0 4.649658244111767 0 0
          4.4528099999999995 -0.86071 0 4.479336658804117 -0.6452957624757633 0
          4.888755733950094 0 0 4.4528099999999995 -0.8607099999999999 0
          4.6114752057950845 -0.6268000609168267 0 5.055442405559332 0 0
          4.45281 -0.8607099999999999 0 4.712756796676454 -0.6049533611967388 0
          5.248495878354949 0.06669787571599262 0
          <InformationKey name="L2_NORM_RANGE" location="vtkDataArray" length="2">
            <Value index="0">
              2.9
            </Value>
            <Value index="1">
              5.2489196595
            </Value>
          </InformationKey>
        </DataArray>
        <DataArray type="Float64" Name="Energy" format="ascii" RangeMin="5.97846" RangeMax="11.947981122718133">
          5.97846 5.97846 9.850459752999999 7.21251886623077 5.97846 9.850459753
          6.325962835935321 8.016800080614345 7.360705686623108 9.850459752999999 8.634686841325944 8.530015033576282
          9.850459752999999 9.158841944773137 9.54558500450387 9.850459752999999 9.573775539336475 10.36333393673721
          9.850459752999999 9.85826671115587 10.970952079203146 9.850459753 10.204841560493243 11.417544599385549
          9.850459753 10.453857933085906 11.947981122718133
        </DataArray>
      </PointData>
      <CellData>
        <DataArray type="UInt8" Name="vtkGhostType" format="ascii" RangeMin="0" RangeMax="0">
          0 0 0 0 0 0
          0 0 0 0 0 0
          0 0 0 0 0 0
          0 0 0 0 0 0
          0 0 0 0 0 0
          0 0
        </DataArray>
        <DataArray type="Float64" Name="CORES" format="ascii" RangeMin="-3.029873170731708" RangeMax="1.1031754290628741">
          0.14134504222445407 -1.0436105505198574 -0.13660607014643056 -0.290395822039058 -0.1770060546769257 0.10123018915381546
          -0.11519925301273716 0.22253844031452813 -0.02657940190407401 0.24289472311877422 0.02289130085621016 0.23071345655073505
          0.05401480243756698 0.2251737508002954 0.024563251304753043 0.18865481299709747 0.13724229201697463 -3.029873170731708
          -0.028964911486056705 1.1031754290628741 -0.18063620280165266 0.6492345675910662 -0.27706905898204326 0.40659598864049784
          -0.3221604377806607 0.2909005563081396 -0.34983895593235453 0.22366702502679373 -0.3049490703903808 0.1835401952692462
          -0.23938718107087137 0.20017052059073148
        </DataArray>
        <DataArray type="Float64" Name="MORES" NumberOfComponents="3" format="ascii" RangeMin="0.06522443705935127" RangeMax="9.186736572829362">
          0.48157536935795325 -0.38604032415658396 0 -2.829215812020091 1.5949726014873908 0
          -0.34267444680518105 -0.4022511325313357 0 -0.6012960595864094 0.7704297093505731 0
          -0.4425411373235562 -0.2171785267073166 0 0.3829527075983516 0.16551078382763718 0
          -0.3243965434999756 -0.017587615347864585 0 0.7232637987768458 -0.010151072140838793 0
          -0.13576488884691887 0.17054494729410374 0 0.7996693382446192 0.05948576364327755 0
          0.010391687549732229 0.3397482895015584 0 0.7874992205383131 0.1861072015359383 0
          0.1324059522754138 0.37122888847447266 0 0.7393937149510781 0.20564037848332858 0
          0.11796990837575445 0.11955746609408957 0 0.7349225558581367 0.23009856371638593 0
          0.32796696611728177 -0.1374621209903974 0 -7.940054956075821 4.620785231219512 0
          -0.04459303746901058 0.04759924578180513 0 2.791882634364803 -1.7932401239904388 0
          -0.5216759715184539 0.0013457248111630737 0 1.6288736769182726 -1.1354196941306025 0
          -0.7584025288754815 -0.002197919663144088 0 1.0213252785099893 -0.7038681945760636 0
          -0.8407995954860685 0.08683852049080454 0 0.7462523633644028 -0.4242342877828781 0
          -0.8823410522761436 0.11331369828489679 0 0.5885969724119562 -0.2475723557481801 0
          -0.7755526205707542 0.08132163348520155 0 0.48600134910547466 -0.18571148692220985 0
          -0.4652374934205544 0.1361414031147149 0 0.5488813745313896 -0.07657116371210979 0
          <InformationKey name="L2_NORM_RANGE" location="vtkDataArray" length="2">
            <Value index="0">
              0.065224437059
            </Value>
            <Value index="1">
              9.1867365728
            </Value>
          </InformationKey>
        </DataArray>
        <DataArray type="Float64" Name="ENRES" format="ascii" RangeMin="-20.65645911415126" RangeMax="7.416517634677758">
          1.1425201011986106 -7.353291346265593 -0.9731548424064795 -1.9029022958817747 -1.2925126800050581 0.7400249277544843
          -0.9487754005280497 1.8129435880945608 -0.531476253163186 2.2797628021566494 0.11865728480646653 2.6713696008594257
          0.3719277327842387 1.8421536442817115 0.3023359627775424 1.9943570101811325 0.6529190075923761 -20.65645911415126
          -0.18291104848664352 7.416517634677758 -1.3824477701079416 4.395334826326927 -1.9407833228027345 2.730717845133219
          -1.9496340378415329 1.934150066964198 -1.5090939795110156 1.5105699202980654 -1.946027256668925 1.365085013729596
          -1.0800728924613092 1.444844985230323
        </DataArray>
      </CellData>
      <Points>
        <DataArray type="Float32" Name="Points" NumberOfComponents="3" format="ascii" RangeMin="0" RangeMax="4.2201894765504395">
          0 1 0 0 0.5 0
          0.512499988079071 1 0 0.512499988079071 0.5 0
          0 0 0 1.024999976158142 1 0
          0.512499988079071 0 0 1.024999976158142 0.5 0
          1.024999976158142 0 0 1.537500023841858 1 0
          1.537500023841858 0.5 0 1.537500023841858 0 0
          2.049999952316284 1 0 2.049999952316284 0.5 0
          2.049999952316284 0 0 2.5625 1 0
          2.5625 0.5 0 2.5625 0 0
          3.075000047683716 1 0 3.075000047683716 0.5 0
          3.075000047683716 0 0 3.5875000953674316 1 0
          3.5875000953674316 0.5 0 3.5875000953674316 0 0
          4.099999904632568 1 0 4.099999904632568 0.5 0
          4.099999904632568 0 0
          <InformationKey name="L2_NORM_RANGE" location="vtkDataArray" length="2">
            <Value index="0">
              0
            </Value>
            <Value index="1">
              4.2201894766
            </Value>
          </InformationKey>
        </DataArray>
      </Points>
      <Cells>
        <DataArray type="Int64" Name="connectivity" format="ascii" RangeMin="0" RangeMax="26">
          6 3 4 3 1 4
          8 7 6 7 3 6
          11 10 8 10 7 8
          14 13 11 13 10 11
          17 16 14 16 13 14
          20 19 17 19 16 17
          23 22 20 22 19 20
          26 25 23 25 22 23
          3 2 1 2 0 1
          7 5 3 5 2 3
          10 9 7 9 5 7
          13 12 10 12 9 10
          16 15 13 15 12 13
          19 18 16 18 15 16
          22 21 19 21 18 19
          25 24 22 24 21 22
        </DataArray>
        <DataArray type="Int64" Name="offsets" format="ascii" RangeMin="3" RangeMax="96">
          3 6 9 12 15 18
          21 24 27 30 33 36
          39 42 45 48 51 54
          57 60 63 66 69 72
          75 78 81 84 87 90
          93 96
        </DataArray>
        <DataArray type="UInt8" Name="types" format="ascii" RangeMin="5" RangeMax="5">
          5 5 5 5 5 5
          5 5 5 5 5 5
          5 5 5 5 5 5
          5 5 5 5 5 5
          5 5 5 5 5 5
          5 5
        </DataArray>
      </Cells>
    </Piece>
  </UnstructuredGrid>
</VTKFile>
