<?xml version="1.0"?>
<VTKFile type="UnstructuredGrid" version="0.1" byte_order="LittleEndian" header_type="UInt32" compressor="vtkZLibDataCompressor">
  <UnstructuredGrid>
    <Piece NumberOfPoints="181" NumberOfCells="306">
      <PointData>
        <DataArray type="Float64" Name="Velocity" NumberOfComponents="3" format="ascii" RangeMin="0" RangeMax="3.8987937918834477">
          0 0 0 0 -0.4396546926194309 0
          0.11477615628402454 -0.3072814360520237 0 0.16688560730995122 -0.8006252444311199 0
          0 -1.1626739279208322 0 0.0787264927726011 -1.5408526732244279 0
          0.4582058300097509 -0.8703912807180606 0 0 -2.753458514487614 0
          0.0029241599019078812 -0.8764173158472784 0 0 0 0
          0.05566691656322873 -0.160575874018192 0 0.09688533929364455 0 0
          0 -0.21532270969521553 0 0.0636815540625307 -0.975666909410175 0
          0.0762898739337192 -0.6474073836985927 0 0 -0.7589009883684718 0
          0.05945077597594994 -0.37962365061254133 0 0.17270614787023902 -0.3092620845163396 0
          0.14840883854682732 -0.14078889020579227 0 0.13905552428174978 -0.544857002628668 0
          0.21042228561108514 -0.5178522656056564 0 0.14578350711519913 -1.1292072294366 0
          0.27752369989546705 -0.8643046509566421 0 0.2558399573960776 -0.6660650883196308 0
          0 -1.701106000079863 0 0.04983522209081652 -1.4209504918738585 0
          0.40050184478870887 -0.6943731570265129 0 0.026016088955396522 -1.345820290212136 0
          0.24586296009740666 -1.1311229894934813 0 0.007085457437529803 -2.0933562231762988 0
          0.367993296506556 -1.110170132188883 0 -0.08157797832802142 -2.2267426705782194 0
          0 -3.8105679663298204 0 -0.24158168523477616 -0.5818359754692953 0
          0.2765001619492321 -0.38459376714831633 0 -0.5758188205190009 -3.2728080688998675 0
          -1.8643416313720576 0 0 -0.6565526189022965 0 0
          0.06491346624721767 0 0 0.08453849202648339 -0.23662890340140025 0
          0.10386655367940903 -0.15277460547333663 0 0.02764563232560637 -0.08114284925298944 0
          0.07641127516888165 -0.07854774046508206 0 0.028116417287846 -0.18851189162207052 0
          0.0572162227752604 -0.2682069798136168 0 0.12247705152412061 -0.07371760051481493 0
          0.04932490291571398 0 0 0 -0.10703949991542566 0
          0 -0.3261260334470261 0 0.02895979035395767 -0.29830297152756197 0
          0.030937367919957617 -0.6948150396359277 0 0.07127199519280936 -0.8025396876762103 0
          0.08666640032814617 -1.273522733291349 0 0.10379932941357715 -1.0711313850086033 0
          0.0600852108726968 -1.182733766462132 0 0.03180094434036676 -0.8709378833587307 0
          0.03677201118914859 -0.5472170995168646 0 0.11913239510761274 -0.7345031647288638 0
          0.11399513889653008 -0.893354480997668 0 0.06748851527908412 -0.5091865443440627 0
          0.10807489702246927 -0.5972414948665563 0 0 -0.9457490280064749 0
          0.031043701921732173 -1.0697163122384084 0 0 -0.5924048683748326 0
          0.03012706704359148 -0.4121170297684434 0 0.08778342644652151 -0.3442393665632306 0
          0.0973372657780331 -0.46758726265146205 0 0.14411943646013117 -0.3105974948972971 0
          0.15909272451698234 -0.22530175797196642 0 0.18964370263618988 -0.4125417487225845 0
          0.15786931722322037 -0.42100917809847344 0 0.13226046049807705 -0.22105848182802587 0
          0.12600141427242226 -0.4239563885887939 0 0.15321733267758186 -0.6707087093128348 0
          0.17431315218152352 -0.5345024454414266 0 0.19274446352772506 -0.6512289890348513 0
          0.2318172392242773 -0.5923074901092897 0 0.1190367642377084 -1.3205614880011947 0
          0.19044336735232711 -1.1470315030312506 0 0.1606361403624267 -0.9571944709698076 0
          0.2103765912188571 -0.9903733927998825 0 0.35534048034056354 -0.8714259130007915 0
          0.27193446688368017 -1.0000312307891082 0 0.21660859664465676 -0.8415760114126526 0
          0.26837329528283455 -0.7636712809705866 0 0.33966137314709166 -0.7784104706418511 0
          0.2113264855841008 -0.7339472935234267 0 0.3198672860401233 -0.6866595121121212 0
          0 -2.114781497419787 0 0.011961906052389141 -1.9238816698235315 0
          0 -1.3974150814578268 0 0.021746569002629376 -1.5688277300984725 0
          0.06678159126677909 -1.5090118207170067 0 0.03396948572229044 -1.7135860793004856 0
          0.027187256297344576 -1.2983374412576214 0 0.4316060651945082 -0.7817797237693265 0
          0.45417722169846164 -0.6656992740766641 0 -0.04548019869260225 -1.0607373595794158 0
          0.18081944984104323 -1.1963837056924125 0 0.06265225017187404 -1.5039829633791915 0
          0.1635181029674172 -1.2687626625354376 0 -0.05704371209106098 -1.5881520861225509 0
          0.005113708607302924 -1.7868415199723677 0 0.35339742880087477 -0.9930625916361973 0
          0.29601652345157176 -1.1200476395180698 0 0.1495974563894604 -1.3060211957874497 0
          0.03241998175628586 -1.788032900687013 0 -0.002117095414176081 -2.4138221559287163 0
          -0.020783799445553454 -2.2063485443755027 0 0.22844810065380744 -1.1807731605461036 0
          0.4373075674911958 -1.0029209904082486 0 0.5767465137978441 -1.0067525021567503 0
          0.5128160615073345 -1.110215819392381 0 -0.18255383053068142 -0.9135903474103702 0
          -0.023120502820646018 -2.63377604766851 0 -0.18210395277482003 -3.0007857659044683 0
          -0.049452062031518564 -3.1952478668401305 0 0 -3.8987937918834477 0
          -0.1111119085345763 -3.276163593149085 0 0 -3.781293986715969 0
          -0.3659626485732481 -0.3250601796011759 0 -0.04730890779245635 -0.24202858325656562 0
          -0.14301953062584125 -0.6641282172654522 0 -0.009980075721317696 -0.3915567270447126 0
          -0.8417801058420621 -0.5568861061290683 0 -0.6363379946102351 -1.0176336928464762 0
          0.18378124903061974 -0.1758034635173831 0 0.16240738790392986 -0.6123640853247775 0
          0.4890119970189391 -0.4833785710432543 0 -0.40196398531248 -3.5691033809145107 0
          -0.41596797315378387 -0.8405368398519256 0 -1.6658725781999872 -0.2539861058021442 0
          -0.46192138394962323 0 0 -1.122979140799482 0 0
          -0.2528136618880343 0 0 0.2992924084138491 0 0
          0.5914294141118576 -0.7506524724992119 0 0.49696579725546663 -0.7512525311944233 0
          0.5869015672384525 -0.8716400210076615 0 0.3781388477002434 -0.7121144755085999 0
          0.38710895094864645 -0.9147379025074872 0 0.7080586730971775 -0.6139851372677742 0
          0.8763872434068242 -0.5812521779005615 0 0.7459670915856418 -0.7464726538828952 0
          0.7578831419222821 -0.8885442474396215 0 0.6527136533660927 -0.533330436857732 0
          0.6576195487605314 -0.8674896585477342 0 0.9881478739011388 -0.9486529087100557 0
          0.7671433217468632 -1.039849337514142 0 0.9430933379970555 -0.7395259313683399 0
          0.6721627541405047 -0.6937599353612431 0 0.900780626771507 -0.8090740386071841 0
          0.9099473938207783 -0.6539728913470964 0 0.14085887303275732 0 0
          0.20019571167260794 -0.3033986579766608 0 0.184490735824017 -0.22581227662964748 0
          0.1638478906145195 -0.06696610381083873 0 0.17251074635909777 -0.1471277338686427 0
          0.26866358214480857 -0.5324565908078469 0 0.24292088845451063 -0.46607136584828257 0
          0.22099481002181548 -0.39886181490064104 0 0.2985477592112677 -0.5978518050362307 0
          0.36828184873135095 -0.6100256708027652 0 0.41214342391802006 -0.58474117466861 0
          0.5121169315048997 -0.6336042396353342 0 0.45843327608374795 -0.5555465160424157 0
          0.7894623112974198 -0.45129836075250335 0 0.6798283428193499 -0.48497557587532886 0
          0.6012081264277276 -0.6263112841313387 0 0.5471565065989521 0 0
          0.4348604206302311 -0.1912391306222354 0 0.5864098501050177 -0.2709702814292787 0
          0.9554769250330157 -0.3812912780515281 0 1.1225073887555606 -0.6787157587184492 0
          1.0852687026050507 -0.51897311177053 0 1.0916969741809335 -0.4005476602180904 0
          0.893634965255255 -0.36694786019617703 0 0.900341657517175 -0.5079270961762742 0
          0.7498146287563598 -0.32819608767160036 0 1.1805961745971671 -0.6818633734519803 0
          1.108642689149493 -0.5293747798193114 0
          <InformationKey name="L2_NORM_RANGE" location="vtkDataArray" length="2">
            <Value index="0">
              0
            </Value>
            <Value index="1">
              3.8987937919
            </Value>
          </InformationKey>
        </DataArray>
        <DataArray type="Float64" Name="Pressure" format="ascii" RangeMin="-7.535205657812639" RangeMax="2.5437015631960405">
          -7.535205657812639 -5.382025559557942 -5.890815962930956 -3.504647844333744 -2.8199427729162143 -1.2225384814544213
          -1.7594589950183805 -0.6138658508368324 0.3112208890490799 0.34949790847026424 -6.713076920608627 -7.533656436576837
          -6.457063697330536 -3.2692788980303025 -4.445399131606733 -4.0890178458722275 -5.6372374333013004 -5.701559812833378
          -6.709557841530553 -4.693583950817064 -4.499355351527397 -2.3395473146726893 -2.65529500061633 -3.608446689464365
          -1.640753410909067 -2.01891880412941 -2.7446265917166612 -0.5042084823391481 -1.4992453872926135 -0.8955089543265656
          -0.613314037606957 -0.21318228625676264 -0.02390452210755639 1.0321131467469233 1.4875460212912608 0.8600395635115319
          0.20966389973072166 1.6048583090177757 2.197932538001 -6.302070168519761 -6.7117250788031555 -7.124092425464625
          -7.123308206485483 -6.585137547174525 -6.1745220675699395 -7.121740447129901 -7.534888494527649 -6.995770948870891
          -5.918995641803996 -6.0469349317713394 -4.321085518563434 -3.8546380977011556 -2.2330888775257365 -2.8043640356042974
          -2.637744698602112 -3.6787027070233447 -4.9133664739343015 -3.9761820341644167 -3.386892376547853 -5.039657226486411
          -4.569426202898193 -3.4496966977108983 -3.0433516367731563 -4.733901664005923 -5.509879918070182 -5.764052086155411
          -5.165470429024579 -5.796528241986553 -6.205585208551252 -5.100676083114253 -5.19625958949374 -6.299991890995597
          -5.291658021342177 -4.09708914743007 -4.5969600128334935 -3.9983370997079377 -4.054471876187512 -1.7742422417840322
          -1.9249482088006071 -2.9182092433435094 -2.4969293692894245 -2.2177446906278364 -2.0694004146558114 -3.083060794520722
          -3.1306747856371775 -2.6980560095554083 -3.5551749952453977 -3.1801042935781747 -1.0859206150648009 -1.2663301776688813
          -2.2189512211524725 -1.8296018580253428 -1.6212135141558637 -1.4401257108875862 -2.4176460607183996 -2.2540573184041803
          -2.5971365337073284 -0.16131977122372024 -0.5717590146736516 -0.8597140530938733 -0.9738510125908446 -0.3910541145245263
          -0.7246519386175808 -1.625897458779767 -1.065498798588276 -1.3679152900173264 -1.0541968442456238 -0.7364347980313596
          -0.559704011871956 -0.14049949479677593 -1.1685148231800069 -0.69765206563369 -0.12489726841621435 -0.14699633854810218
          -0.4175784359309966 0.40022726688113786 0.061576596162616376 -0.34643640849379836 0.18349052703311292 -0.19891439288227436
          1.2962727255831712 1.612608334979316 0.665316368793566 1.2788638524786085 0.7124789156145769 0.7711217760063365
          1.8399599574642782 0.9307811485626125 1.3596765825132546 0.1624696235477644 0.4257988654016632 -0.33589660168381397
          0.4268246701299828 1.1073825749532393 1.9501473600126247 2.3907233185771153 -1.7483959740293324 -2.097073060883495
          -1.3111792585678834 0.821372853208678 0.3743404193782855 -1.7579223014522678 -1.3198971703376123 -1.2901220475551038
          -0.8236544296948332 1.2064816588027638 0.35652306898546926 -0.2948227397754402 -0.17552289468055365 -0.8055859542725223
          0.7795063723811325 0.2703171521216471 0.6909493244419681 -7.531965727090912 -5.6062510037186755 -6.110826071632843
          -7.119554224142747 -6.615253492199475 -4.1112458218405035 -4.558126333641835 -5.003669910864788 -3.661246253082832
          -3.2342006061026742 -3.092201204696541 -2.446707325272359 -2.9527738419066805 -1.8083450379725317 -2.147617978445124
          -2.108929596010987 2.5437015631960405 2.0192986019534587 1.8764970376423196 -1.398775128128036 0.1161909136052495
          -0.8770561367394908 0.9687066085174013 1.5356082864014737 1.112272602172443 1.713335733044915 -0.31674142294649893
          0.538131823955372
        </DataArray>
        <DataArray type="Float64" Name="ALEdispl" NumberOfComponents="3" format="ascii" RangeMin="0" RangeMax="0">
          0 0 0 0 0 0
          0 0 0 0 0 0
          0 0 0 0 0 0
          0 0 0 0 0 0
          0 0 0 0 0 0
          0 0 0 0 0 0
          0 0 0 0 0 0
          0 0 0 0 0 0
          0 0 0 0 0 0
          0 0 0 0 0 0
          0 0 0 0 0 0
          0 0 0 0 0 0
          0 0 0 0 0 0
          0 0 0 0 0 0
          0 0 0 0 0 0
          0 0 0 0 0 0
          0 0 0 0 0 0
          0 0 0 0 0 0
          0 0 0 0 0 0
          0 0 0 0 0 0
          0 0 0 0 0 0
          0 0 0 0 0 0
          0 0 0 0 0 0
          0 0 0 0 0 0
          0 0 0 0 0 0
          0 0 0 0 0 0
          0 0 0 0 0 0
          0 0 0 0 0 0
          0 0 0 0 0 0
          0 0 0 0 0 0
          0 0 0 0 0 0
          0 0 0 0 0 0
          0 0 0 0 0 0
          0 0 0 0 0 0
          0 0 0 0 0 0
          0 0 0 0 0 0
          0 0 0 0 0 0
          0 0 0 0 0 0
          0 0 0 0 0 0
          0 0 0 0 0 0
          0 0 0 0 0 0
          0 0 0 0 0 0
          0 0 0 0 0 0
          0 0 0 0 0 0
          0 0 0 0 0 0
          0 0 0 0 0 0
          0 0 0 0 0 0
          0 0 0 0 0 0
          0 0 0 0 0 0
          0 0 0 0 0 0
          0 0 0 0 0 0
          0 0 0 0 0 0
          0 0 0 0 0 0
          0 0 0 0 0 0
          0 0 0 0 0 0
          0 0 0 0 0 0
          0 0 0 0 0 0
          0 0 0 0 0 0
          0 0 0 0 0 0
          0 0 0 0 0 0
          0 0 0 0 0 0
          0 0 0 0 0 0
          0 0 0 0 0 0
          0 0 0 0 0 0
          0 0 0 0 0 0
          0 0 0 0 0 0
          0 0 0 0 0 0
          0 0 0 0 0 0
          0 0 0 0 0 0
          0 0 0 0 0 0
          0 0 0 0 0 0
          0 0 0 0 0 0
          0 0 0 0 0 0
          0 0 0 0 0 0
          0 0 0 0 0 0
          0 0 0 0 0 0
          0 0 0 0 0 0
          0 0 0 0 0 0
          0 0 0 0 0 0
          0 0 0 0 0 0
          0 0 0 0 0 0
          0 0 0 0 0 0
          0 0 0 0 0 0
          0 0 0 0 0 0
          0 0 0 0 0 0
          0 0 0 0 0 0
          0 0 0 0 0 0
          0 0 0 0 0 0
          0 0 0 0 0 0
          0 0 0 0 0 0
          0 0 0
          <InformationKey name="L2_NORM_RANGE" location="vtkDataArray" length="2">
            <Value index="0">
              0
            </Value>
            <Value index="1">
              0
            </Value>
          </InformationKey>
        </DataArray>
        <DataArray type="Float64" Name="ALEveloc" NumberOfComponents="3" format="ascii" RangeMin="0" RangeMax="3.7187859146820994">
          0 0 0 0 -0.8124171297232592 0
          0.22473816012303477 -0.5660368684068156 0 0.295963596643275 -1.3675487240747852 0
          0 -1.832301367507574 0 0.2961507215548889 -2.297043795124819 0
          0.6501081051115543 -1.440053328851175 0 0 -2.872905972694447 0
          0.6701661993741155 -1.1385365624494705 0 0 0 0
          0.1158235722316606 -0.3034012274149071 0 0.19548687811568957 0 0
          0 -0.4057061188264273 0 0.12653726451574315 -1.602674488384314 0
          0.14401698371147353 -1.139247112930368 0 0 -1.3167488510540615 0
          0.11953389231413263 -0.6962103825965755 0 0.31049504430277075 -0.5702315917923964 0
          0.28518691604854524 -0.2592534617959339 0 0.2523663006148913 -0.9771040462837263 0
          0.35371346151828326 -0.9277736428746598 0 0.2991138721826466 -1.8221345853214703 0
          0.44774867121164286 -1.4692513948837753 0 0.40832709039323223 -1.1621922222664252 0
          0 -2.3468152421736246 0 0.13473721275704273 -2.1154566643900075 0
          0.5591997168720056 -1.1805600080254228 0 0.4831589482395765 -2.3896568830948235 0
          0.4905252534729169 -1.8805125915822305 0 0.15134498823409742 -2.616238789448351 0
          0.7113864509715074 -1.8859290446370431 0 0.3118550573142313 -2.7896477311860552 0
          0 -1.065482975476551 0 0.5521829281278432 -0.45367702315051184 0
          0.7586427284726596 -0.37987280382009325 0 0.35463281326967244 -3.25729235182993 0
          0.3136310007789889 0 0 0.4830617249695953 0 0
          0.6874310034630043 0 0 0.16988425571501112 -0.4399233511348031 0
          0.20977891560513673 -0.2880815559214404 0 0.05819103771693712 -0.1528012381352892 0
          0.15907368193488672 -0.1440407779607202 0 0.05940550285765427 -0.3533622530899202 0
          0.11584363951533769 -0.4992547189290189 0 0.24439801925424348 -0.13957685225163874 0
          0.10311722796060288 0 0 0 -0.20285305941321344 0
          0 -0.6085591782396411 0 0.0598018748839147 -0.5554672446699218 0
          0.06032640984047037 -1.212921089670148 0 0.13603171562781358 -1.367607148324758 0
          0.20271208690930054 -1.9722194045046912 0 0.20780022695363556 -1.7326714564406187 0
          0.13057727327358748 -1.859140671361636 0 0.060714564492081076 -1.465416714394394 0
          0.07274796471076675 -0.9849545842753096 0 0.22005315613565432 -1.2658735699884247 0
          0.21332842777823918 -1.5002353484025366 0 0.1323109985486764 -0.9162806406250199 0
          0.20134461471289627 -1.0569141830055606 0 0 -1.5689147117194622 0
          0.06475908237347008 -1.7210186710259276 0 0 -1.0645829903886603 0
          0.06103227060117472 -0.7588368550687974 0 0.17322378473372413 -0.6367736909754401 0
          0.18641717463981503 -0.8514911737637707 0 0.27133119187393473 -0.575075656839605 0
          0.2977100683729245 -0.4202586638956834 0 0.3289332842141445 -0.7508426376424435 0
          0.2864859265464783 -0.767479361617012 0 0.2531887863729426 -0.41233298989006156 0
          0.2362082731825686 -0.7718032587634044 0 0.27184752299756765 -1.1793308992865474 0
          0.3053042993061247 -0.9560928531031044 0 0.32530226611023505 -1.146575108187879 0
          0.38053382448418493 -1.0447757419047516 0 0.2950645109645737 -2.062810341785331 0
          0.3875304421081359 -1.863676851841754 0 0.29855585227019854 -1.5951047432415737 0
          0.37708584700243003 -1.6483496443545111 0 0.5406760117146431 -1.4667819251606031 0
          0.46669806223086874 -1.6750105940790556 0 0.3652106828409481 -1.4355068742002957 0
          0.42640717317912835 -1.3159520965989309 0 0.5080069372349381 -1.3281108852104118 0
          0.3530353256573078 -1.2762625503737457 0 0.47866434334465185 -1.1879357194592164 0
          0 -2.6040721795066495 0 0.07089942609197612 -2.4890963012864757 0
          0 -2.0895583048405992 0 0.06952169841329439 -2.231856757752565 0
          0.21459976199766148 -2.2188579090488583 0 0.1451914878753334 -2.357153835629827 0
          0.0688036002548591 -1.9766206276574616 0 0.6068328355280159 -1.3074671734161365 0
          0.6094342520756055 -1.1216322641257752 0 0.5975548460785719 -2.400666919125013 0
          0.5932297450376502 -2.1486712131741226 0 0.38160181327321496 -2.3532602111516954 0
          0.4854945025347412 -2.13297323441245 0 0.3907484341064509 -2.6022928922130983 0
          0.3050126459812553 -2.5388713117511443 0 0.5769408546249308 -1.6614690278490476 0
          0.5892080608338741 -1.8992873795827772 0 0.39843541293608775 -2.0914691732811677 0
          0.22582096102560498 -2.4574544514622287 0 0.07706598479210681 -2.7462753858733318 0
          0.21759226136077428 -2.7306322211051173 0 0.7259033254855669 -2.126920196296364 0
          0.6842308154490223 -1.6584791590389618 0 0.8264993084820564 -1.5931544844513703 0
          0.8866568515004295 -1.7921580265978498 0 0.5028701047195127 -2.6206439696653026 0
          0.1431162885692668 -2.8894165590912397 0 0.3317481669863204 -3.0215736713629995 0
          0.14926978653147202 -3.1485014120058388 0 0 -3.7187859146820994 0
          0.1571205928041413 -0.743299334049635 0 0 -3.154865953356998 0
          0.5134479932062302 -0.2213988787318535 0 0.6164835351145638 -0.2043932115512781 0
          0.6006121944535084 -0.7261148223151278 0 0.65614384608683 -0.4135428883670673 0
          0.39313557572275104 -0.23871227516258137 0 0.5595393747563957 -2.9995901014507287 0
          0.7180701848921247 -0.18674739717461097 0 0.7054647625481812 -0.6537903380580141 0
          0.8336812951086936 -0.4674848961962631 0 0.17375176078319804 -3.6502731439670284 0
          0.4771223282925603 -0.8115946952636929 0 0.3341319070243307 -3.458688376891918 0
          0.14296472163419405 0 0 0.36375128522068734 0 0
          0.5864345615720317 0 0 0.7876606685179794 0 0
          0.7506811483360827 -1.2097299435645763 0 0.6623880551809792 -1.24340549031915 0
          0.7743391089637832 -1.387148181784672 0 0.7900580692426178 -0.7597281275224189 0
          0.825073384692282 -1.218687290600463 0 0.8292706665773231 -0.9844899261048343 0
          0.9581473456689404 -0.9183638212387111 0 0.8799055896772953 -1.146215229683751 0
          0.9209244199695557 -1.3141300296891445 0 0.9133772360225167 -0.5481480423861341 0
          0.9773601568950774 -1.2073481553851728 0 1.098320670274935 -1.2223589966047168 0
          1.0032250322147334 -1.499126606712378 0 1.031698625140773 -1.0690974532042465 0
          0.9336893585144934 -0.7941344889648402 0 1.1226809754345206 -1.1384768955365674 0
          1.0750232410606348 -0.7964099159851827 0 0.27099720110396547 0 0
          0.3459776095347239 -0.5562869748945274 0 0.32838373181849434 -0.4164976703223801 0
          0.30742251789550074 -0.12962673089796695 0 0.3128485431603098 -0.27518240679575406 0
          0.4206572163609946 -0.940054093809203 0 0.3903404366970238 -0.8349303185350045 0
          0.3695021772832878 -0.720476132483352 0 0.45107038418160883 -1.0447083367968306 0
          0.5211243526627872 -1.0527857661217996 0 0.5615978890252584 -0.9977057741570334 0
          0.6586479221759233 -1.055665160527672 0 0.5983855636932816 -0.9433936856473717 0
          0.8763294304512754 -0.7718662348446959 0 0.786832464131447 -0.8141462644611982 0
          0.7383258996915436 -1.0248405354251209 0 0.8856889974420215 0 0
          0.818267654575085 -0.16806669804840615 0 0.8872198824338037 -0.25292672863562143 0
          1.0037616591849696 -0.7051571573282469 0 1.2649888481043168 -1.047565356026234 0
          1.1131836516818219 -0.8402798458606519 0 1.1804237977017344 -0.5602931230700579 0
          1.0321446911968648 -0.3886658879513917 0 1.047046578061284 -0.5649710207915312 0
          0.9584470608622395 -0.32833801187980766 0 1.2140661877478633 -0.9779426463759926 0
          1.2155867534687976 -0.7563063314227516 0
          <InformationKey name="L2_NORM_RANGE" location="vtkDataArray" length="2">
            <Value index="0">
              0
            </Value>
            <Value index="1">
              3.7187859147
            </Value>
          </InformationKey>
        </DataArray>
        <DataArray type="Float64" Name="LEVEL" format="ascii" RangeMin="-0.3097087441127454" RangeMax="0.501431306040676">
          -0.16685562184088312 -0.12323305943105436 -0.2183756622714996 -0.16463465419072842 -0.07583449484695173 -0.09263338566687954
          -0.12764865749919563 -0.038941898535297 0.16346114146650095 -0.01528183546877096 -0.1952290187469083 -0.2510104194164652
          -0.14496812613992768 -0.11799986898757257 -0.1519374874016113 -0.09868275316275348 -0.1710781337923175 -0.2569787911650418
          -0.2761781363480317 -0.19410875591063503 -0.22261390841315637 -0.12662710184608392 -0.15901345916374265 -0.19674935822028905
          -0.056510167835392366 -0.09364304503090722 -0.17934172483411612 -0.06463633987814069 -0.10960013043434144 -0.07003151786238287
          -0.06409861838026068 -0.05722311331616269 0.38199055854845765 0.33304595537065096 0.2973546465869603 -0.025561399934063204
          -0.007665297592731468 0.47472801435535084 0.42776713149055023 -0.207637982670121 -0.23549913377423912 -0.1811712275864728
          -0.2215165186352671 -0.1698058309830404 -0.18331226776126044 -0.26455731820113 -0.208225392054119 -0.1559118739904054
          -0.13402437828944994 -0.15872446718544692 -0.12182233159223652 -0.13435981952973222 -0.1097895723666128 -0.12605470253006607
          -0.10584080686056921 -0.10954568138371379 -0.1388708849933497 -0.1601747861469852 -0.14334019863408717 -0.16123908690083766
          -0.17246822058085085 -0.08640760002860304 -0.09725492894128951 -0.11095790629690391 -0.14769576863452302 -0.19543417789276155
          -0.1847649297879611 -0.23823299314083174 -0.26742605940064906 -0.2404847718628082 -0.22394652717765817 -0.24746347713045616
          -0.20658590902582533 -0.180731272973583 -0.20860707821605431 -0.19339360788577745 -0.20971572540103697 -0.11039517316586377
          -0.12084378851862736 -0.14554045376068825 -0.14264541116486562 -0.1462390853123403 -0.13465156037678044 -0.1650079948816976
          -0.17813341592813847 -0.1690497263391158 -0.1820636014378255 -0.19119226703451575 -0.04684800432961268 -0.06505251176102897
          -0.06617233134117205 -0.07490017310172971 -0.09509819542196715 -0.08023312080476254 -0.08496417649886524 -0.15278144488029505
          -0.17679545753358802 -0.04259243543889711 -0.06652717235630073 -0.08118573123739894 -0.08698371955856668 -0.06371441502840658
          -0.07412712994966487 -0.11791662885394015 -0.09081034445909136 -0.10083693013781583 -0.08111615606774768 -0.05456008019466828
          -0.06945074823108241 -0.037164456979004785 -0.09473665074484032 -0.06601477640698095 -0.026734636716862038 -0.04306732341439946
          -0.058366110025717614 -0.04130955931315213 -0.04816451105648176 -0.021196851235402468 0.3589508582055902 -0.033026882768665486
          0.4041397077923721 0.38330524983743464 0.257266153341603 0.3157791918686224 0.4281310224859221 -0.0024613973830971587
          0.3623726785742089 0.2449120233505264 0.25289992053913724 -0.0239228625084683 0.27068231513687857 -0.01661334876339733
          -0.018590084653334806 0.501431306040676 0.45140620795393643 0.40402568191868715 -0.13067910230928403 -0.1487603034350925
          -0.10318439026701809 0.19900399023014886 0.11132413049697908 -0.1374015291566114 -0.11034823764289256 -0.1039682538568214
          -0.07274051549255806 0.21010179048473437 0.07246138218913195 -0.035390538438040436 -0.02841824523796045 -0.07221860989918
          0.152173517040114 0.0412359487632571 0.1098210618428265 -0.2960155082413832 -0.27485758874520944 -0.28745289550622644
          -0.3097087441127454 -0.2995655742823936 -0.22786345381448092 -0.2429972873000311 -0.2554762252474425 -0.21264683176425625
          -0.20449683877291558 -0.20382673640695945 -0.1733372259285033 -0.20376308074363442 -0.1502123416055621 -0.16973559793486936
          -0.15683076212192426 0.37999032985532155 0.34140874800730003 0.2965512589671911 -0.12326508437110036 0.012890363693830916
          -0.07802170741834034 0.12218042300717448 0.2128337907051025 0.16455971766740915 0.2534045451096982 -0.03429668254322044
          0.0736765788116007
        </DataArray>
      </PointData>
      <CellData>
        <DataArray type="UInt8" Name="vtkGhostType" format="ascii" RangeMin="0" RangeMax="0">
          0 0 0 0 0 0
          0 0 0 0 0 0
          0 0 0 0 0 0
          0 0 0 0 0 0
          0 0 0 0 0 0
          0 0 0 0 0 0
          0 0 0 0 0 0
          0 0 0 0 0 0
          0 0 0 0 0 0
          0 0 0 0 0 0
          0 0 0 0 0 0
          0 0 0 0 0 0
          0 0 0 0 0 0
          0 0 0 0 0 0
          0 0 0 0 0 0
          0 0 0 0 0 0
          0 0 0 0 0 0
          0 0 0 0 0 0
          0 0 0 0 0 0
          0 0 0 0 0 0
          0 0 0 0 0 0
          0 0 0 0 0 0
          0 0 0 0 0 0
          0 0 0 0 0 0
          0 0 0 0 0 0
          0 0 0 0 0 0
          0 0 0 0 0 0
          0 0 0 0 0 0
          0 0 0 0 0 0
          0 0 0 0 0 0
          0 0 0 0 0 0
          0 0 0 0 0 0
          0 0 0 0 0 0
          0 0 0 0 0 0
          0 0 0 0 0 0
          0 0 0 0 0 0
          0 0 0 0 0 0
          0 0 0 0 0 0
          0 0 0 0 0 0
          0 0 0 0 0 0
          0 0 0 0 0 0
          0 0 0 0 0 0
          0 0 0 0 0 0
          0 0 0 0 0 0
          0 0 0 0 0 0
          0 0 0 0 0 0
          0 0 0 0 0 0
          0 0 0 0 0 0
          0 0 0 0 0 0
          0 0 0 0 0 0
          0 0 0 0 0 0
        </DataArray>
      </CellData>
      <Points>
        <DataArray type="Float32" Name="Points" NumberOfComponents="3" format="ascii" RangeMin="0" RangeMax="1.0308661047334453">
          0 1 0 0 0.7799999713897705 0
          0.18538910150527954 0.8323888182640076 0 0.2148997038602829 0.5873312950134277 0
          0 0.5135279297828674 0 0.17262980341911316 0.3433345854282379 0
          0.4027113914489746 0.4189484119415283 0 0 0.25676390528678894 0
          0.31279098987579346 0.17248930037021637 0 0 0 0
          0.09269455075263977 0.9161943793296814 0 0.16691304743289948 1 0
          0 0.8899999856948853 0 0.08631490170955658 0.5616673231124878 0
          0.10744985193014145 0.6836656332015991 0 0 0.6467639207839966 0
          0.09269455075263977 0.8061944246292114 0 0.2818044126033783 0.8135008215904236 0
          0.25960761308670044 0.9161943793296814 0 0.20014439523220062 0.7098600268363953 0
          0.2965596914291382 0.6909720301628113 0 0.19376474618911743 0.465332955121994 0
          0.30880555510520935 0.503139853477478 0 0.3171716630458832 0.6006638407707214 0
          0 0.385145902633667 0 0.08631490170955658 0.4284312427043915 0
          0.41107749938964844 0.5164723992347717 0 0.2427103966474533 0.25791195034980774 0
          0.2876706123352051 0.3811415135860443 0 0.08631490170955658 0.3000492453575134 0