<?xml version="1.0"?>
<VTKFile type="UnstructuredGrid" version="0.1" byte_order="LittleEndian" header_type="UInt32" compressor="vtkZLibDataCompressor">
  <UnstructuredGrid>
    <Piece NumberOfPoints="175" NumberOfCells="301">
      <PointData>
        <DataArray type="Float64" Name="Velocity" NumberOfComponents="3" format="ascii" RangeMin="0" RangeMax="1.051621935260176">
          0.17945384526857328 0 0 0.22611225782899755 -0.2930040057164753 0
          0.3370643149944488 -0.5294367466827944 0 0.19446803259300224 -0.1503385226114214 0
          0.27146272242602854 -0.4136672106527961 0 0.14085887303275732 0 0
          0.20019571167260794 -0.3033986579766608 0 0.184490735824017 -0.22581227662964748 0
          0.1638478906145195 -0.06696610381083873 0 0.17251074635909777 -0.1471277338686427 0
          0.20796523038413067 -0.22252611161223304 0 0.21833081287920592 -0.18412205823465572 0
          0.18505573066163547 -0.07630688737703968 0 0.20583252886842374 -0.11697025928288955 0
          0.3014392343071875 -0.4721158579955362 0 0.30556687424494544 -0.3995747055979402 0
          0.24653054896104473 -0.3540033995635037 0 0.2757051289980534 -0.3466634596255212 0
          0.26866358214480857 -0.5324565908078469 0 0.24292088845451063 -0.46607136584828257 0
          0.22099481002181548 -0.39886181490064104 0 0.2985477592112677 -0.5978518050362307 0
          0.36828184873135095 -0.6100256708027652 0 0.41214342391802006 -0.58474117466861 0
          0.19770989048715465 -0.0476076402105113 0 0.20801214346784327 0 0
          0.2514165330969066 -0.29223922629510735 0 0.23591295091913403 -0.24936472765327694 0
          0.37278648409981524 -0.5082761348448539 0 0.34183981086518644 -0.45104856026850443 0
          0.21510498137004752 -0.08660075130685363 0 0.22680078656396363 0 0
          0.27567336674961773 -0.2853895498035969 0 0.2425602330488325 -0.20859739128847318 0
          0.40956816127299583 -0.4831633628461936 0 0.33969242888676715 -0.37874293629360534 0
          0.5121169315048997 -0.6336042396353342 0 0.24598034225042936 -0.13701309024743147 0
          0.31813363899765223 -0.25337248221542275 0 0.21241001004898075 0 0
          0.48372190508913093 -0.41931706168857624 0 0.24982250709229198 -0.1069092661533174 0
          0.40474685268884436 -0.1635537959553837 0 0.138878568185829 -0.03022171932084364 0
          0.8167649426485842 -0.2650250702255154 0 0.18236279005981387 -0.03170926306560858 0
          0.312753032180354 0.08120979854631019 0 0 0 0
          0 0.007693303106733829 0 0.2748075119585803 -0.19829975346766737 0
          0.2579756189362496 -0.12937312196607223 0 0.23077657978512187 -0.05476118137516825 0
          0.38764446678448555 -0.3332610300702211 0 0.36335458339946936 -0.2241451217225704 0
          0.29094898929588664 -0.17142002916947116 0 0.23111625857063636 -0.0534546330766587 0
          0.6282152587536817 -0.3694021825025559 0 0.46547320721136576 -0.2817363273886064 0
          0.3072721855010499 -0.14170935976712754 0 0.21609264857605293 -0.06930926460946299 0
          0.5700561480717752 -0.20513454181442595 0 0.39084029860514097 -0.0523265149343189 0
          0.2914269398436196 -0.07738552022338796 0 0.5877736868468665 -0.031680515541522666 0
          0.23243773289592193 0.00036724493952594296 0 0.09118139502990694 -0.012007979979437377 0
          0.20728680306333033 0.21957760122328135 0 0.11731917501887072 0.04820212077710237 0
          0 0.12521906218606974 0 0.23104234374161403 -0.1161067946668902 0
          0.23066037548950216 -0.06899293766658521 0 0.22084559496399792 -0.039693195559224105 0
          0.22605423330112986 -0.14862772484295966 0 0.22878868317454276 -0.027380590687584125 0
          0.2982181320524313 -0.27245542183005284 0 0.27728990883649873 -0.24003712172062028 0
          0.257544746692238 -0.2475830793118373 0 0.30427448669906587 -0.33297038506833954 0
          0.24594676321027964 -0.17103003825664084 0 0.26000220623089015 -0.2062339382483446 0
          0.446862003337419 -0.4537119147449412 0 0.4026509606437058 -0.4048061693104266 0
          0.37231037012450646 -0.4299624752516168 0 0.45843327608374795 -0.5555465160424157 0
          0.33144176257802715 -0.31276648055776873 0 0.36427375653539873 -0.3579830090669947 0
          0.7894623112974198 -0.45129836075250335 0 0.6798283428193499 -0.48497557587532886 0
          0.6012081264277276 -0.6263112841313387 0 0.5066511291854057 -0.5218773491953925 0
          0.5862426997430915 -0.507716007740803 0 0.2943430059394275 -0.226622477768695 0
          0.25889391598454037 -0.16843230999089026 0 0.2853006558813786 -0.18679723442511406 0
          0.2678721979019295 -0.16188641477348342 0 0.25415448488010806 -0.1353163831515239 0
          0.2744623041160681 -0.1503965755677717 0 0.24437609936068572 -0.09206715167062024 0
          0.23968053843967954 -0.09157755414831314 0 0.4322333329226333 -0.3753069307256295 0
          0.34971499744794027 -0.29271567771076523 0 0.4257013179481031 -0.31199147485665074 0
          0.3794622099132084 -0.27670593692794543 0 0.38508522881526186 -0.19816421589854874 0
          0.4098601112352474 -0.25263814948862756 0 0.34077408564693085 -0.2423272788367946 0
          0.33722599139952797 -0.1797798807395411 0 0.32222338677488277 -0.197886143947291 0
          0.3063349645125586 -0.21006495468851777 0 0.2991105873984683 -0.15656469446829935 0
          0.7161999419236145 -0.3257682832854988 0 0.5511386327205493 -0.39974572967574484 0
          0.6070119992161664 -0.28445417810278756 0 0.5400545646582767 -0.32268326505204326 0
          0.4400139845409307 -0.21955127711752848 0 0.5157820087285595 -0.24998646786091053 0
          0.48023026935102353 -0.348781586073054 0 0.3500067207723449 -0.15412644643712392 0
          0.29934956267233476 -0.10954743999525775 0 0.6808351123982247 -0.2311518990231661 0
          0.4792261254272013 -0.1833825941469172 0 0.587509442964347 -0.12484147247423161 0
          0.48603637515335546 -0.11794429164288953 0 0.36173908698995844 0.01216481981057128 0
          0.47803865490878517 -0.04335762378539437 0 0.4040596253851318 -0.11114607894051493 0
          0.3343970185651825 -0.06893219757634247 0 0.30850374289338295 -0.018979872961196468 0
          0.34808660481136006 -0.11472350254089617 0 0.26193233636977076 -0.03850913764193101 0
          0.712944273746404 -0.1341920879188668 0 0.7123010181324192 -0.03939777445582887 0
          0.45036887559841093 0.03941133209991162 0 0.5591963617873823 0.053126197771834374 0
          0.2678183541630031 0.03369895820107072 0 0.17487845395739632 0.024284682858314158 0
          0.12309079195260689 0.30375268667933697 0 0.3026512181266318 0.29572027410223367 0
          0.27385061367296415 0.15041519064692205 0 0.3639411989463048 0.19660242582087695 0
          0.16230298904110052 0.13388986100019185 0 0.10364340153166517 0.17239833170467556 0
          0.2046711912212608 0.07243399307367705 0 0 0.22664284540279436 0
          0.3991845685175481 0.10902897276845128 0 0.5095115301769461 0.14088277321270778 0
          0.6926642942580636 0.0642338609164503 0 0.6491562027670598 0.17448247395163263 0
          0.4835676474650543 0.253337801151919 0 0.09688533929364455 0 0
          0.17270614787023902 -0.3092620845163396 0 0.14840883854682732 -0.14078889020579227 0
          0.21042228561108514 -0.5178522656056564 0 0.2558399573960776 -0.6660650883196308 0
          0.40050184478870887 -0.6943731570265129 0 0.12247705152412061 -0.07371760051481493 0
          0.15909272451698234 -0.22530175797196642 0 0.18964370263618988 -0.4125417487225845 0
          0.2318172392242773 -0.5923074901092897 0 0.3198672860401233 -0.6866595121121212 0
          0.45417722169846164 -0.6656992740766641 0 0.5914294141118576 -0.7506524724992119 0
          0.49696579725546663 -0.7512525311944233 0 0.7080586730971775 -0.6139851372677742 0
          0.8763872434068242 -0.5812521779005615 0 0.9525891884776668 -0.2670367902140028 0
          0.8452534821129052 -0.1680218242530438 0 0.9554769250330157 -0.3812912780515281 0
          0.8593110461794641 -0.056563853466005495 0 0.8243885707814165 0.20466991514995486 0
          0 0.38469030032269635 0 0.4269521349746493 0.38410052606501616 0
          0.8541926197363494 0.06864762365035945 0 0.6394030755755263 0.3170991672715932 0
          0.2069971536998576 0.40559626597764026 0
          <InformationKey name="L2_NORM_RANGE" location="vtkDataArray" length="2">
            <Value index="0">
              0
            </Value>
            <Value index="1">
              1.0516219353
            </Value>
          </InformationKey>
        </DataArray>
        <DataArray type="Float64" Name="Pressure" format="ascii" RangeMin="-7.533656436576837" RangeMax="-1.3198971703376123">
          -7.52931810707675 -5.5106018933044805 -3.7191833794722045 -6.520626399085919 -4.617962939921276 -7.531965727090912
          -5.6062510037186755 -6.110826071632843 -7.119554224142747 -6.615253492199475 -6.015820480195322 -6.183418710652859
          -7.025089809167129 -6.68813499342198 -4.169444094020576 -4.438504577482419 -5.06501377262345 -4.886786642566116
          -4.1112458218405035 -4.558126333641835 -5.003669910864788 -3.661246253082832 -3.2342006061026742 -3.092201204696541
          -7.1924701093164325 -7.5266223267331815 -5.333618605792329 -5.678045269968187 -3.5846953952686826 -3.989073707505933
          -6.8557818045880925 -7.5245844134389595 -5.156354600371938 -5.845785883755974 -3.4490023951335806 -4.259146380741066
          -2.446707325272359 -6.182717148656542 -4.803263910637243 -7.524308086346712 -3.1782981772974943 -5.544406974375809
          -3.7776644418384437 -6.000416218937671 -1.8977966720110933 -4.812485769810599 -3.1018800579535992 -7.525082145996818
          -4.594495872696397 -5.494507062444922 -5.862453387349599 -6.853821473724272 -3.99894578987714 -4.288509478242295
          -5.1754278538431775 -6.534357530361261 -2.533656111337759 -3.477293972053708 -4.66661661652275 -5.1784463720932035
          -2.855846279753055 -3.4356233194097783 -4.302324911645396 -2.5302854676083633 -3.954787157588837 -4.703490821253498
          -2.596267066326073 -3.848562168505402 -3.3277309780573994 -6.519234814147949 -6.854186264124967 -7.19025260801833
          -6.351229926869563 -7.189202943581616 -4.979572710111018 -5.32515992526245 -5.5014835937609865 -4.708723730851871
          -6.014007525994738 -5.670022801247981 -3.313674619846203 -3.7228487332173885 -3.855771989543274 -2.9527738419066805
          -4.530701858450877 -4.12888962062938 -1.8083450379725317 -2.147617978445124 -2.108929596010987 -2.809906226600548
          -2.4818794663843273 -5.1494003857005355 -5.8388528304304605 -5.334101616964217 -5.678457254716764 -6.022198858270058
          -5.518940620596388 -6.358137430536935 -6.518294755983907 -3.591545968800185 -4.402443758237215 -3.7375767150495096
          -4.142992525963689 -4.032829626104324 -3.884670299275485 -4.545162382559321 -4.477648796876193 -4.733104171002752
          -4.988881637860494 -4.9210222351829636 -2.2116513049149362 -2.8554010169475443 -2.693616354965127 -3.010147917516563
          -3.627930198025765 -3.165113829088576 -3.3274576668457967 -4.223148168024135 -4.484470764084072 -2.384652853064036
          -3.3209840452951847 -2.691204671601572 -3.150435665177007 -3.268438081167078 -2.9838553945784096 -3.6049272774718597
          -3.8689557168615623 -3.6977834422485403 -4.041532041594661 -4.128556034617117 -2.225572002545467 -2.1380976694601577
          -2.8222428444447325 -2.440035321533152 -3.5266321720434943 -3.9016746630471193 -2.35315249993215 -2.2395998408448037
          -2.848990012801742 -2.4804383086968707 -3.2224146174157378 -2.961999022191736 -3.4769891876345214 -2.7083806893111895
          -2.7261463069102057 -2.3498279721496975 -2.055873086922151 -1.9734192980665017 -2.1152867489063447 -7.533656436576837
          -5.701559812833378 -6.709557841530553 -4.499355351527397 -3.608446689464365 -2.7446265917166612 -7.121740447129901
          -6.205585208551252 -5.100676083114253 -4.054471876187512 -3.1801042935781747 -2.5971365337073284 -1.7483959740293324
          -2.097073060883495 -1.7579223014522678 -1.3198971703376123 -1.4851515940894975 -1.8110444780941488 -1.398775128128036
          -1.733216564754871 -1.5959167803440943 -2.115537510480268 -1.8898528661233367 -1.6622226870773684 -1.7574047492841003
          -2.0078509610999693
        </DataArray>
        <DataArray type="Float64" Name="ALEdispl" NumberOfComponents="3" format="ascii" RangeMin="0" RangeMax="0">
          0 0 0 0 0 0
          0 0 0 0 0 0
          0 0 0 0 0 0
          0 0 0 0 0 0
          0 0 0 0 0 0
          0 0 0 0 0 0
          0 0 0 0 0 0
          0 0 0 0 0 0
          0 0 0 0 0 0
          0 0 0 0 0 0
          0 0 0 0 0 0
          0 0 0 0 0 0
          0 0 0 0 0 0
          0 0 0 0 0 0
          0 0 0 0 0 0
          0 0 0 0 0 0
          0 0 0 0 0 0
          0 0 0 0 0 0
          0 0 0 0 0 0
          0 0 0 0 0 0
          0 0 0 0 0 0
          0 0 0 0 0 0
          0 0 0 0 0 0
          0 0 0 0 0 0
          0 0 0 0 0 0
          0 0 0 0 0 0
          0 0 0 0 0 0
          0 0 0 0 0 0
          0 0 0 0 0 0
          0 0 0 0 0 0
          0 0 0 0 0 0
          0 0 0 0 0 0
          0 0 0 0 0 0
          0 0 0 0 0 0
          0 0 0 0 0 0
          0 0 0 0 0 0
          0 0 0 0 0 0
          0 0 0 0 0 0
          0 0 0 0 0 0
          0 0 0 0 0 0
          0 0 0 0 0 0
          0 0 0 0 0 0
          0 0 0 0 0 0
          0 0 0 0 0 0
          0 0 0 0 0 0
          0 0 0 0 0 0
          0 0 0 0 0 0
          0 0 0 0 0 0
          0 0 0 0 0 0
          0 0 0 0 0 0
          0 0 0 0 0 0
          0 0 0 0 0 0
          0 0 0 0 0 0
          0 0 0 0 0 0
          0 0 0 0 0 0
          0 0 0 0 0 0
          0 0 0 0 0 0
          0 0 0 0 0 0
          0 0 0 0 0 0
          0 0 0 0 0 0
          0 0 0 0 0 0
          0 0 0 0 0 0
          0 0 0 0 0 0
          0 0 0 0 0 0
          0 0 0 0 0 0
          0 0 0 0 0 0
          0 0 0 0 0 0
          0 0 0 0 0 0
          0 0 0 0 0 0
          0 0 0 0 0 0
          0 0 0 0 0 0
          0 0 0 0 0 0
          0 0 0 0 0 0
          0 0 0 0 0 0
          0 0 0 0 0 0
          0 0 0 0 0 0
          0 0 0 0 0 0
          0 0 0 0 0 0
          0 0 0 0 0 0
          0 0 0 0 0 0
          0 0 0 0 0 0
          0 0 0 0 0 0
          0 0 0 0 0 0
          0 0 0 0 0 0
          0 0 0 0 0 0
          0 0 0 0 0 0
          0 0 0 0 0 0
          0 0 0
          <InformationKey name="L2_NORM_RANGE" location="vtkDataArray" length="2">
            <Value index="0">
              0
            </Value>
            <Value index="1">
              0
            </Value>
          </InformationKey>
        </DataArray>
        <DataArray type="Float64" Name="ALEveloc" NumberOfComponents="3" format="ascii" RangeMin="0" RangeMax="1.4237165177183035">
          0.32038791819795964 0 0 0.36844858372318623 -0.5351719160614612 0
          0.48343156769796214 -0.9237103585152828 0 0.3375556220746445 -0.2798006362261713 0
          0.41407850478753716 -0.7389712612891467 0 0.27099720110396547 0 0
          0.3459776095347239 -0.5562869748945274 0 0.32838373181849434 -0.4164976703223801 0
          0.30742251789550074 -0.12962673089796695 0 0.3128485431603098 -0.27518240679575406 0
          0.35219892445753065 -0.4081556289752889 0 0.3516878709079228 -0.33911274716664136 0
          0.32934925906258206 -0.13672568033448082 0 0.3403659335975645 -0.21461620976902893 0
          0.4472545866177282 -0.8314488965136393 0 0.43882595790773005 -0.7055778735646419 0
          0.3905345755793819 -0.6368916481660236 0 0.4066340728025937 -0.6165542018516661 0
          0.4206572163609946 -0.940054093809203 0 0.3903404366970238 -0.8349303185350045 0
          0.3695021772832878 -0.720476132483352 0 0.45107038418160883 -1.0447083367968306 0
          0.5211243526627872 -1.0527857661217996 0 0.5615978890252584 -0.9977057741570334 0
          0.3363388141977134 -0.09095793393117961 0 0.32897747162909535 0 0
          0.3826682773977465 -0.5272863667082173 0 0.36618426661763626 -0.4508105351553945 0
          0.5146722790727757 -0.8790825730776508 0 0.4751399378737742 -0.7864595756849134 0
          0.3327888176033044 -0.15751148159755618 0 0.26475232841705876 0 0
          0.3873265723518931 -0.503306718683907 0 0.3543664980776712 -0.37311112655149914 0
          0.5417035813600227 -0.8299047868001648 0 0.45735034953033704 -0.6574688118281151 0
          0.6586479221759233 -1.055665160527672 0 0.28312320161499865 -0.22682089193010213 0
          0.37513344334749854 -0.4169134994136136 0 0.12951382815084037 0 0
          0.5982291260739304 -0.7145151735969785 0 0.15854484269977548 -0.10766514711711098 0
          0.3979768343904818 -0.273161639898585 0 0.07922363729913934 -0.040050628029214795 0
          0.880103503837391 -0.5761329768178629 0 0.09323305907595673 -0.05954793818591611 0
          0.2872911249390703 -0.12072387904506601 0 0 0 0
          0 -0.04361947770792954 0 0.32023733838357826 -0.3243120592880742 0
          0.20647005091471438 -0.16844858014497574 0 0.1666896942078852 -0.060850331199344375 0
          0.4782613651858914 -0.5634986524847213 0 0.38136326821388467 -0.34416173116103677 0
          0.2499125658102817 -0.22442505252895173 0 0.13576964824650306 -0.051327846612511746 0
          0.7220627980690612 -0.6543400889677415 0 0.5345344504950686 -0.4825144419884581 0
          0.21732964505012237 -0.15549421372041758 0 0.12746628021594172 -0.08188797870894567 0
          0.6303609552024533 -0.4292281564932813 0 0.3640069309654166 -0.18483794664633804 0
          0.1833705818373076 -0.10757385132809164 0 0.6341478793039903 -0.3032066438174818 0
          0.1337360595532004 -0.07249785791128345 0 0.04738226085481001 -0.04965797649166225 0
          0.2184527487812265 -0.09314456912018756 0 0.05525065831476661 -0.05203953271716527 0
          0 -0.05392917457434272 0 0.31485797530338294 -0.20314981655081726 0
          0.2673863945485715 -0.12032340486093092 0 0.3085730883131445 -0.07306702101932112 0
          0.34023599183007724 -0.2649330338384698 0 0.21284348124587654 -0.04294936193394408 0
          0.3858805153636884 -0.46510210689286124 0 0.36215271457930803 -0.411817959880731 0
          0.36969912486239276 -0.4364030489251548 0 0.41941871345908044 -0.5793308997231231 0
          0.32886603182271695 -0.2963248578182152 0 0.3418745276239865 -0.35614743054669373 0
          0.5702150214012125 -0.7740179913832784 0 0.5186197533002647 -0.6930343090882244 0
          0.49982496291932166 -0.7413454969538752 0 0.5983855636932816 -0.9433936856473717 0
          0.42414957979192147 -0.532934712052249 0 0.4695268468689131 -0.6131755903450004 0
          0.8763294304512754 -0.7718662348446959 0 0.786832464131447 -0.8141462644611982 0
          0.7383258996915436 -1.0248405354251209 0 0.634933004764605 -0.88199419347528 0
          0.7078347294447905 -0.8504912036952125 0 0.3448928468657793 -0.37205041356683066 0
          0.29938872835827013 -0.2781167698638476 0 0.29116805669665563 -0.2837748447257054 0
          0.26724525287331496 -0.2471864234562764 0 0.2464764750555899 -0.20670141744483272 0
          0.22445006142683177 -0.19602535459868553 0 0.17884941384412084 -0.11808072086474294 0
          0.2119709156235511 -0.1386677186614674 0 0.534989901102989 -0.6390897615959903 0
          0.4251796789498703 -0.4883222295148394 0 0.5039964430436966 -0.5254139097882433 0
          0.43888111720169826 -0.45349530629934703 0 0.387085413556013 -0.3054234604915864 0
          0.4551333731061855 -0.41367081317131543 0 0.37615768856063275 -0.38353220171451524 0
          0.2994468277147087 -0.2407931578446635 0 0.30541673548225756 -0.27944411595416824 0
          0.3214851932774276 -0.32157898393324763 0 0.22672027070993506 -0.18010377276876982 0
          0.7974804100363695 -0.6170732381665576 0 0.6566832676884541 -0.6866451625187068 0
          0.6868872491273721 -0.5373730437928679 0 0.6264454530883365 -0.56877652890832 0
          0.4742300338129737 -0.37393778986805004 0 0.5791347158182596 -0.4566777791965946 0
          0.5746813021737947 -0.5965356830461744 0 0.2971917822868383 -0.2091390699180529 0
          0.20286058706820426 -0.12738748942899236 0 0.7514888855708965 -0.5039772865459576 0
          0.5144080507134196 -0.35176875397314733 0 0.6381223432809735 -0.36411972833880046 0
          0.5092953697013077 -0.2948928360938247 0 0.3329590535467357 -0.15051710454674908 0
          0.49380693622558813 -0.24384471901389 0 0.38422774252732794 -0.22480967598132037 0
          0.263302971060588 -0.14124041237962726 0 0.23830555216312377 -0.11504846339030522 0
          0.28378957369078806 -0.17292199440038022 0 0.16130886619932894 -0.08725067245354218 0
          0.7740931909122968 -0.4307416924223627 0 0.7707888807659362 -0.3668174563727157 0
          0.4638328069067114 -0.19889867911451978 0 0.602979119651761 -0.251506838528928 0
          0.20439832155783264 -0.09318255823138567 0 0.10057550716834827 -0.060947131564845346 0
          0.11766274420890263 -0.0824218935029764 0 0.34115186245842294 -0.12207981404017156 0
          0.26829890414406576 -0.10797739061157374 0 0.3927840401733514 -0.14211873790957152 0
          0.1195909153201417 -0.06431141114102323 0 0.07455909209956331 -0.06640269732572922 0
          0.14960816956930212 -0.0734155002206888 0 0 -0.058163637033208745 0
          0.4110855085473912 -0.16120266659315796 0 0.5536760661635728 -0.20575331734184382 0
          0.7517939985950438 -0.30764058725300125 0 0.7111546623187776 -0.25403115373049684 0
          0.5431819654404604 -0.1790657776487397 0 0.19548687811568957 0 0
          0.31049504430277075 -0.5702315917923964 0 0.28518691604854524 -0.2592534617959339 0
          0.35371346151828326 -0.9277736428746598 0 0.40832709039323223 -1.1621922222664252 0
          0.5591997168720056 -1.1805600080254228 0 0.24439801925424348 -0.13957685225163874 0
          0.2977100683729245 -0.4202586638956834 0 0.3289332842141445 -0.7508426376424435 0
          0.38053382448418493 -1.0447757419047516 0 0.47866434334465185 -1.1879357194592164 0
          0.6094342520756055 -1.1216322641257752 0 0.7506811483360827 -1.2097299435645763 0
          0.6623880551809792 -1.24340549031915 0 0.8292706665773231 -0.9844899261048343 0
          0.9581473456689404 -0.9183638212387111 0 0.9964480151273132 -0.6045416871956014 0
          0.8963493363222323 -0.5046395516125619 0 1.0037616591849696 -0.7051571573282469 0
          0.9089144952265796 -0.4335277111393641 0 0.8830746332570525 -0.30523047353874416 0
          0 -0.08253398782054634 0 0.5029690919879518 -0.15323531619436814 0
          0.9061978964384694 -0.3668717542753184 0 0.719412520680483 -0.22028790018190156 0
          0.24385931288391188 -0.10519030917033323 0
          <InformationKey name="L2_NORM_RANGE" location="vtkDataArray" length="2">
            <Value index="0">
              0
            </Value>
            <Value index="1">
              1.4237165177
            </Value>
          </InformationKey>
        </DataArray>
        <DataArray type="Float64" Name="LEVEL" format="ascii" RangeMin="-0.8313502907586555" RangeMax="-0.11034823764289256">
          -0.34446006590688516 -0.2938622489244214 -0.2294071132952901 -0.3216394431585839 -0.2646374754432922 -0.2960155082413832
          -0.27485758874520944 -0.28745289550622644 -0.3097087441127454 -0.2995655742823936 -0.3079398119148863 -0.3349020596651931
          -0.3325221605970956 -0.34869695312331966 -0.24723871350242638 -0.27312499287271674 -0.27932039042542517 -0.29090669882046755
          -0.22786345381448092 -0.2429972873000311 -0.2554762252474425 -0.21264683176425625 -0.20449683877291558 -0.20382673640695945
          -0.3616930989251168 -0.3983962044409739 -0.30755378839612935 -0.3187774359039557 -0.23152615490300138 -0.253580497804324
          -0.37838034151096034 -0.46263927281147016 -0.3201252269368364 -0.34596015587435147 -0.2335296317757748 -0.2802519774923114
          -0.1733372259285033 -0.4080380561133389 -0.34241649985531386 -0.5920316972470465 -0.23467115590590765 -0.4654225833866506
          -0.3384016933498754 -0.6040818804664329 -0.17131726973903585 -0.5198636293059875 -0.38905132619950233 -0.8313502907586555
          -0.6152961893231472 -0.3767783794769971 -0.4388275668131446 -0.49749875046470066 -0.28933801590197056 -0.3409718351703983
          -0.4005408776011934 -0.5294568949536479 -0.20662029652286978 -0.27998620150937986 -0.40484704982053166 -0.4921766003813811
          -0.2567003870050107 -0.35907045093742707 -0.4286882102732311 -0.26671453892980107 -0.45937766095036064 -0.567190908855576
          -0.397105205341808 -0.5094881785103177 -0.5201163148461884 -0.3939233392875492 -0.437242766980265 -0.418353953980182
          -0.36256006152943604 -0.4823182145206735 -0.33139335730553565 -0.3470376799601097 -0.3329269613545299 -0.30042103292489863
          -0.3751056190425166 -0.3618660826081087 -0.23433643235355522 -0.25973454070808766 -0.25650236652439806 -0.20376308074363442
          -0.3096446481114808 -0.2849660840800829 -0.1502123416055621 -0.16973559793486936 -0.15683076212192426 -0.20267608547001711
          -0.18697329449223765 -0.36018435352422973 -0.3930939335664432 -0.38924687266212926 -0.40740345661723887 -0.42455869230921905
          -0.42012243996121723 -0.46970620859627976 -0.45372584237429986 -0.26245154101540136 -0.3157993568597366 -0.2853412156759537
          -0.3138942897845953 -0.33954961995119015 -0.31090445854366344 -0.34241922598122543 -0.3715506326285044 -0.371398851517486
          -0.370417624947675 -0.40214761268310295 -0.18972329212034295 -0.22143824855990096 -0.22957821269108258 -0.24360267423109794
          -0.30754849339499124 -0.26890570412282133 -0.25592589976685265 -0.37224837738247285 -0.41581498107195386 -0.2147016980070739
          -0.29760456580944605 -0.2606116695734374 -0.30446058758589184 -0.37274782184111177 -0.3135697061723698 -0.34768008884988766
          -0.39452649632961345 -0.4086065809106225 -0.3818661306474631 -0.443250292247703 -0.21542107010919964 -0.22185803257722683
          -0.3255214814440459 -0.27869204367594164 -0.4245204142811482 -0.4834240990300087 -0.4104499662838585 -0.34894639171282044
          -0.39117396638122753 -0.34355196307922053 -0.454368059950328 -0.4621767774213413 -0.4502310728292517 -0.472389319697619
          -0.34246527718760666 -0.29397612664197237 -0.23109677646621504 -0.24405431857244697 -0.2928881759452445 -0.2510104194164652
          -0.2569787911650418 -0.2761781363480317 -0.22261390841315637 -0.19674935822028905 -0.17934172483411612 -0.26455731820113
          -0.26742605940064906 -0.2404847718628082 -0.20971572540103697 -0.19119226703451575 -0.17679545753358802 -0.13067910230928403
          -0.1487603034350925 -0.1374015291566114 -0.11034823764289256 -0.13645225326523136 -0.17401695562569724 -0.12326508437110036
          -0.1772648670425045 -0.1926395083366303 -0.4276608376783064 -0.2958955841384724 -0.18321657357269225 -0.23941211888979785
          -0.3609058844306928
        </DataArray>
      </PointData>
      <CellData>
        <DataArray type="UInt8" Name="vtkGhostType" format="ascii" RangeMin="0" RangeMax="1">
          0 0 0 0 0 0
          0 0 0 0 0 0
          0 0 0 0 0 0
          0 0 1 1 1 0
          0 0 0 0 0 0
          0 0 0 0 0 0
          0 0 0 0 0 0
          0 0 0 0 0 0
          0 1 0 0 1 0
          0 0 1 1 1 0
          1 0 0 1 0 1
          1 1 0 1 1 1
          0 0 0 0 0 0
          0 0 0 0 0 0
          0 0 1 0 0 1
          0 0 0 1 1 1
          0 1 1 1 0 1
          1 1 0 0 1 0
          0 0 0 0 0 0
          1 0 0 0 0 0
          0 0 0 0 0 0
          0 0 0 0 0 0
          0 0 0 0 0 0
          0 0 0 0 0 0
          0 0 0 0 0 0
          0 0 0 0 0 0
          0 0 0 0 0 1
          1 0 0 0 0 0
          0 0 0 0 0 0
          0 0 0 0 0 0
          0 0 0 0 0 0
          0 0 0 0 0 0
          0 0 0 0 0 0
          0 0 0 0 0 0
          0 0 0 0 0 0
          0 0 0 0 0 0
          0 0 0 0 0 0
          0 0 0 0 0 0
          0 0 0 0 0 0
          0 0 0 0 0 0
          0 0 0 0 0 0
          0 0 0 0 0 0
          0 0 0 0 0 0
          0 0 0 0 0 0
          0 0 0 0 0 0
          0 0 0 0 0 0
          0 0 0 0 0 0
          0 0 0 0 0 0
          0 0 0 0 0 0
          0 0 0 0 0 0
          0
        </DataArray>
      </CellData>
      <Points>
        <DataArray type="Float32" Name="Points" NumberOfComponents="3" format="ascii" RangeMin="0.6332618548904551" RangeMax="1.4142135623730951">
          0.33382609486579895 1 0 0.37821969389915466 0.7946128249168396 0
          0.41944360733032227 0.6139963865280151 0 0.3560228943824768 0.8973063826560974 0
          0.39883163571357727 0.704304575920105 0 0.2503695785999298 1 0
          0.3300120532512665 0.8040568232536316 0 0.31891363859176636 0.8554036021232605 0
          0.2967168390750885 0.9580972194671631 0 0.3078152537345886 0.9067503809928894 0
          0.36712130904197693 0.8459596037864685 0 0.4036400020122528 0.863147497177124 0
          0.3449245095252991 0.9486532211303711 0 0.3925415873527527 0.9144942760467529 0
          0.40913763642311096 0.6591504812240601 0 0.4436771869659424 0.6866136193275452 0
          0.38852566480636597 0.7494586706161499 0 0.4333712160587311 0.7317677140235901 0
          0.3580016493797302 0.6524842381477356 0 0.3476956784725189 0.6976383328437805 0
          0.3373897075653076 0.7427924275398254 0 0.36830762028694153 0.6073301434516907 0
          0.41526055335998535 0.5652344226837158 0 0.44881418347358704 0.5525251626968384 0
          0.38144320249557495 0.9658411145210266 0 0.4172188639640808 1 0
          0.4230652451515198 0.776921808719635 0 0.41473838686943054 0.8118007183074951 0
          0.45299723744392395 0.6012871861457825 0 0.4539831876754761 0.6414595246315002 0