<?xml version="1.0"?>
<VTKFile type="UnstructuredGrid" version="0.1" byte_order="LittleEndian" header_type="UInt32" compressor="vtkZLibDataCompressor">
  <UnstructuredGrid>
    <Piece NumberOfPoints="61" NumberOfCells="99">
      <PointData>
        <DataArray type="Float64" Name="Velocity" NumberOfComponents="3" format="ascii" RangeMin="0" RangeMax="1.6475241849422377">
          0.5497748435631588 -0.23675537726416943 0 0.5316182920514971 0 0
          0.6790620744589566 -0.6138172653986387 0 0.6101431700320987 -0.5065273657323728 0
          0.94392048845745 -0.6964522132402121 0 0.7968704594515035 -0.6692020810923782 0
          1.2429089212222975 -0.48288871960865054 0 1.1767071134561877 -0.6592880575953105 0
          0.561609312604819 -0.32010939863158533 0 0.6709565652927693 -0.4825433925114237 0
          0.43750510267103637 0 0 0.920817903215907 -0.5577767469401494 0
          0.47576772426213026 -0.2589917593049222 0 0.6111805656544893 -0.35234313248379473 0
          0.24952169020446024 -0.1406842924913662 0 0.9362323653412804 -0.3358237222900674 0
          0.2800895229486681 -0.21897612240034495 0 0.32939576807198273 -0.252413279544966 0
          0 0 0 0 -0.2038929463746793 0
          0.6083311097525979 -0.42245999559556363 0 0.5344910680576458 -0.2890181121414601 0
          0.49741938288927046 -0.12557565738317616 0 0.7812289334928304 -0.5437953049711418 0
          0.6563745834279344 -0.41485111821888915 0 0.5733754721526575 -0.3572433992237258 0
          0.3474179723216136 -0.08828195400274459 0 0.23868713306028194 0 0
          0.43943164080802505 -0.14213459567190867 0 0.9454312141095355 -0.43506412283408213 0
          0.7695600544341871 -0.44158584385165905 0 0.5328757800970388 -0.32344540960379603 0
          0.36713903561854516 -0.18841351808846915 0 0.39224304090960316 -0.23523173756467386 0
          0.7531797452072118 -0.3621383055838234 0 0.4915215449189417 -0.29184548580559344 0
          0.4372973059065862 -0.2788810237425226 0 0.12037854114897482 -0.06483875073781384 0
          0.26224632305723716 -0.1844683197822712 0 0.13835110807741732 -0.1728560662759381 0
          0.6175607074094556 -0.2910648312056429 0 0.3019803838322102 -0.24762604598128718 0
          0.1450925375499026 -0.20402478654508413 0 0.18674869344937467 -0.2347950623200576 0
          0.1427497195644288 -0.2300096684530647 0 0 -0.1161575001935678 0
          0 -0.23194426327638037 0 0.5141916865194514 0 0
          0.6406538955071437 -0.7767495694217237 0 0.9349767192237659 -0.8801856668069592 0
          1.4742196473569262 -0.7092673012890424 0 0.5470304319673842 -0.46912777725345983 0
          0.7701785483666524 -0.8942449668296281 0 1.1725024818804066 -0.8486593674272723 0
          1.5911090632584115 -0.427443433434794 0 1.062415624155177 -0.27474368427736295 0
          0.7946236598655534 -0.2764850624183022 0 1.270578151709515 -0.3143957393046895 0
          0.4534763266672986 -0.25247561908811395 0 0 -0.22162948721349743 0
          0.2986002123165301 -0.22141383375448684 0
          <InformationKey name="L2_NORM_RANGE" location="vtkDataArray" length="2">
            <Value index="0">
              0
            </Value>
            <Value index="1">
              1.6475241849
            </Value>
          </InformationKey>
        </DataArray>
        <DataArray type="Float64" Name="Pressure" format="ascii" RangeMin="-5.967912322940182" RangeMax="0.027024423849645495">
          -4.5267726193854125 -5.346194759931403 -2.96652650963475 -3.580473620384817 -1.561211034899587 -2.2025599108960865
          -0.7134996493048648 -0.8559278429622876 -4.08005138376443 -2.9176535391655114 -5.738739015167174 -1.6291912703551674
          -3.8519875942924346 -2.3773811791011292 -4.440156016898595 -1.0118975077355126 -3.370320702424982 -2.003992512134857
          -5.967912322940182 -3.201299276325859 -3.4943342069393015 -3.985353688231465 -4.881012034976276 -2.2543498456933593
          -2.663300734982507 -3.3985092827597194 -5.1215364285962295 -5.935635803714263 -4.789791807476735 -1.3428788943504002
          -2.02482944501777 -3.0862878988093465 -4.169672958873531 -3.6316600567221475 -1.6540270422647776 -2.208210944874054
          -2.873227400225198 -5.203561319834606 -3.8956872672346714 -3.8210374576120496 -1.4883357104746746 -2.6634247598123757
          -3.2980189381202907 -1.6496646754773439 -2.6228076484117393 -4.529824057976279 -2.2297736435424125 -4.9457431516847725
          -3.005525714745245 -1.45180137078417 0.018466010296620764 -3.9869075106659446 -2.231011882172431 -0.5763600329911489
          0.027024423849645495 -0.6100229534840258 -1.0231789458601033 -0.3455428010244315 -1.445634729564203 -1.2686724450129363
          -1.1050483111093532
        </DataArray>
        <DataArray type="Float64" Name="ALEdispl" NumberOfComponents="3" format="ascii" RangeMin="0" RangeMax="0">
          0 0 0 0 0 0
          0 0 0 0 0 0
          0 0 0 0 0 0
          0 0 0 0 0 0
          0 0 0 0 0 0
          0 0 0 0 0 0
          0 0 0 0 0 0
          0 0 0 0 0 0
          0 0 0 0 0 0
          0 0 0 0 0 0
          0 0 0 0 0 0
          0 0 0 0 0 0
          0 0 0 0 0 0
          0 0 0 0 0 0
          0 0 0 0 0 0
          0 0 0 0 0 0
          0 0 0 0 0 0
          0 0 0 0 0 0
          0 0 0 0 0 0
          0 0 0 0 0 0
          0 0 0 0 0 0
          0 0 0 0 0 0
          0 0 0 0 0 0
          0 0 0 0 0 0
          0 0 0 0 0 0
          0 0 0 0 0 0
          0 0 0 0 0 0
          0 0 0 0 0 0
          0 0 0 0 0 0
          0 0 0 0 0 0
          0 0 0
          <InformationKey name="L2_NORM_RANGE" location="vtkDataArray" length="2">
            <Value index="0">
              0
            </Value>
            <Value index="1">
              0
            </Value>
          </InformationKey>
        </DataArray>
        <DataArray type="Float64" Name="ALEveloc" NumberOfComponents="3" format="ascii" RangeMin="0" RangeMax="0">
          0 0 0 0 0 0
          0 0 0 0 0 0
          0 0 0 0 0 0
          0 0 0 0 0 0
          0 0 0 0 0 0
          0 0 0 0 0 0
          0 0 0 0 0 0
          0 0 0 0 0 0
          0 0 0 0 0 0
          0 0 0 0 0 0
          0 0 0 0 0 0
          0 0 0 0 0 0
          0 0 0 0 0 0
          0 0 0 0 0 0
          0 0 0 0 0 0
          0 0 0 0 0 0
          0 0 0 0 0 0
          0 0 0 0 0 0
          0 0 0 0 0 0
          0 0 0 0 0 0
          0 0 0 0 0 0
          0 0 0 0 0 0
          0 0 0 0 0 0
          0 0 0 0 0 0
          0 0 0 0 0 0
          0 0 0 0 0 0
          0 0 0 0 0 0
          0 0 0 0 0 0
          0 0 0 0 0 0
          0 0 0 0 0 0
          0 0 0
          <InformationKey name="L2_NORM_RANGE" location="vtkDataArray" length="2">
            <Value index="0">
              0
            </Value>
            <Value index="1">
              0
            </Value>
          </InformationKey>
        </DataArray>
        <DataArray type="Float64" Name="LEVEL" format="ascii" RangeMin="-0.8313502907586555" RangeMax="0">
          -0.39935500063372054 -0.4979860934827814 -0.29688745115694964 -0.33770984828622774 -0.18226758636711343 -0.24340612907466497
          -0.10151240047039287 -0.10406944728197988 -0.41206077423761894 -0.3304159799790628 -0.6093229599357406 -0.20813889456395976
          -0.47055690990354104 -0.3508576175828694 -0.6086948537929803 -0.20302480094078573 -0.5234435663919073 -0.4094298163179526
          -0.8313502907586555 -0.6088006432723929 -0.37123837710834084 -0.44130884207057997 -0.5106918670866798 -0.26927743727151127
          -0.3406367987809661 -0.4004864449413019 -0.6090089068643605 -0.7203366253471981 -0.5399399349196408 -0.20558184775237276
          -0.27949825607341455 -0.4107072637432052 -0.5396258818482607 -0.49700023814772415 -0.2769412092618275 -0.380143716950411
          -0.4371505919873883 -0.7200225722758179 -0.5660692100924438 -0.6087477485326866 -0.3062273086293692 -0.46643669135492993
          -0.5661221048321501 -0.41240009908335457 -0.5091152297951728 -0.7200754670155243 -0.5120855125605748 -0.3866492270298222
          -0.2633589223348365 -0.1563962781702671 0 -0.32500407468232934 -0.2098776002525518 -0.07819813908513355
          0 -0.15589995097617168 -0.23405483935097596 -0.10151240047039287 -0.3372573470395594 -0.4153703818487565
          -0.34022762980496135
        </DataArray>
      </PointData>
      <CellData>
        <DataArray type="UInt8" Name="vtkGhostType" format="ascii" RangeMin="0" RangeMax="1">
          0 0 1 0 0 0
          1 0 0 0 1 0
          0 0 1 0 1 0
          1 1 0 1 1 1
          1 0 1 1 0 1
          0 0 0 0 0 0
          0 0 0 0 0 0
          0 0 0 0 0 0
          0 0 0 0 0 0
          0 0 0 0 0 0
          0 0 0 0 0 0
          0 0 0 0 0 0
          0 0 0 0 0 0
          0 0 0 0 0 0
          0 0 0 0 0 0
          0 0 0 0 0 0
          0 0 0
        </DataArray>
      </CellData>
      <Points>
        <DataArray type="Float32" Name="Points" NumberOfComponents="3" format="ascii" RangeMin="0.5811146501948629" RangeMax="1.4142135623730951">
          0.42906031012535095 0.9316822290420532 0 0.5006116628646851 1 0
          0.4679107964038849 0.7592308521270752 0 0.4512571096420288 0.8289886116981506 0
          0.48655083775520325 0.588577926158905 0 0.4885227382183075 0.6689226627349854 0
          0.5437427163124084 0.42884358763694763 0 0.4781847596168518 0.4910539388656616 0
          0.5242944955825806 0.8633643984794617 0 0.5576019287109375 0.7238488793373108 0
          0.6673972010612488 1 0 0.553658127784729 0.5631595253944397 0
          0.6844274997711182 0.7983605861663818 0 0.7037597894668579 0.6202651262283325 0
          0.8397989869117737 0.8445892930030823 0 0.6847739815711975 0.43873879313468933 0
          0.8471701145172119 0.7234833240509033 0 0.8715677261352539 0.5484824776649475 0
          1 1 0 1 0.7011029124259949 0
          0.540948212146759 0.7936066389083862 0 0.6043609976768494 0.8308625221252441 0
          0.5958458781242371 0.9316822290420532 0 0.5556300282478333 0.6435042023658752 0
          0.6306808590888977 0.6720569729804993 0 0.6210147142410278 0.7611047625541687 0
          0.7535980939865112 0.9222946763038635 0 0.833698570728302 1 0
          0.6759123206138611 0.8991802930831909 0 0.6192160248756409 0.5009491443634033 0
          0.6287089586257935 0.5917122960090637 0 0.694093644618988 0.7093128561973572 0
          0.7621132731437683 0.8214749693870544 0 0.765798807144165 0.7609219551086426 0
          0.6942669153213501 0.5295019745826721 0 0.7876637578010559 0.5843737721443176 0
          0.7754649519920349 0.6718742251396179 0 0.9198995232582092 0.9222946763038635 0
          0.8434845209121704 0.7840362787246704 0 0.9198995232582092 0.7728461027145386 0
          0.7781708240509033 0.4936106503009796 0 0.8593689203262329 0.635982871055603 0
          0.923585057258606 0.7122930884361267 0 0.935783863067627 0.49489864706993103 0
          0.935783863067627 0.6247926950454712 0 1 0.850551426410675 0
          1 0.5712088346481323 0 0.33382609486579895 1 0
          0.37821969389915466 0.7946128249168396 0 0.41944360733032227 0.6139963865280151 0
          0.4027113914489746 0.4189484119415283 0 0.3560228943824768 0.8973063826560974 0
          0.39883163571357727 0.704304575920105 0 0.41107749938964844 0.5164723992347717 0
          0.4897800087928772 0.3408868908882141 0 0.7009049654006958 0.3609851598739624 0
          0.7559329271316528 0.416616290807724 0 0.6308112740516663 0.3507820963859558 0
          0.8493297696113586 0.4714881479740143 0 1 0.44131478667259216 0
          0.9135459065437317 0.4179042875766754 0
          <InformationKey name="L2_NORM_RANGE" location="vtkDataArray" length="2">
            <Value index="0">
              0.58111465019
            </Value>
            <Value index="1">
              1.4142135624
            </Value>
          </InformationKey>
        </DataArray>
      </Points>
      <Cells>
        <DataArray type="Int64" Name="connectivity" format="ascii" RangeMin="0" RangeMax="60">
          15 29 6 11 7 29
          50 6 7 29 7 6
          11 23 4 9 5 23
          49 4 5 23 5 4
          8 22 0 10 1 22
          47 0 1 22 1 0
          9 20 2 8 3 20
          48 2 3 20 3 2
          49 5 52 9 2 5
          48 52 2 5 2 52
          11 4 7 49 53 4
          50 7 53 4 53 7
          48 3 51 8 0 3
          47 51 0 3 0 51
          15 6 57 50 54 6
          57 6 54 15 34 29
          13 30 34 11 29 30
          34 30 29 11 30 23
          13 24 30 9 23 24
          30 24 23 14 37 26
          18 27 37 10 26 27
          37 27 26 13 31 24
          12 25 31 9 24 25
          31 25 24 9 25 20
          12 21 25 8 20 21
          25 21 20 8 21 22
          12 28 21 10 22 28
          21 28 22 10 28 26
          12 32 28 14 26 32
          28 32 26 15 55 56
          15 57 55 59 43 60
          17 58 43 60 43 58
          15 56 40 17 40 58
          56 58 40 17 43 44
          59 46 43 19 44 46
          43 46 44 15 40 34
          17 35 40 13 34 35
          40 35 34 13 35 36
          17 41 35 16 36 41
          35 41 36 16 41 42
          17 44 41 19 42 44
          41 44 42 16 42 38
          19 39 42 14 38 39
          42 39 38 13 36 31
          16 33 36 12 31 33
          36 33 31 14 39 37
          19 45 39 18 37 45
          39 45 37 16 38 33
          14 32 38 12 33 32
          38 32 33
        </DataArray>
        <DataArray type="Int64" Name="offsets" format="ascii" RangeMin="3" RangeMax="297">
          3 6 9 12 15 18
          21 24 27 30 33 36
          39 42 45 48 51 54
          57 60 63 66 69 72
          75 78 81 84 87 90
          93 96 99 102 105 108
          111 114 117 120 123 126
          129 132 135 138 141 144
          147 150 153 156 159 162
          165 168 171 174 177 180
          183 186 189 192 195 198
          201 204 207 210 213 216
          219 222 225 228 231 234
          237 240 243 246 249 252
          255 258 261 264 267 270
          273 276 279 282 285 288
          291 294 297
        </DataArray>
        <DataArray type="UInt8" Name="types" format="ascii" RangeMin="5" RangeMax="5">
          5 5 5 5 5 5
          5 5 5 5 5 5
          5 5 5 5 5 5
          5 5 5 5 5 5
          5 5 5 5 5 5
          5 5 5 5 5 5
          5 5 5 5 5 5
          5 5 5 5 5 5
          5 5 5 5 5 5
          5 5 5 5 5 5
          5 5 5 5 5 5
          5 5 5 5 5 5
          5 5 5 5 5 5
          5 5 5 5 5 5
          5 5 5 5 5 5
          5 5 5 5 5 5
          5 5 5
        </DataArray>
      </Cells>
    </Piece>
  </UnstructuredGrid>
</VTKFile>
