<?xml version="1.0"?>
<VTKFile type="UnstructuredGrid" version="0.1" byte_order="LittleEndian" header_type="UInt32" compressor="vtkZLibDataCompressor">
  <UnstructuredGrid>
    <Piece NumberOfPoints="124" NumberOfCells="211">
      <PointData>
        <DataArray type="Float64" Name="Velocity" NumberOfComponents="3" format="ascii" RangeMin="0" RangeMax="0.23425331136749727">
          0.03313035855429648 0.04365425146541955 0 0.025641832055438015 0.04960415169170622 0
          0.023004654251974517 0.05657778138154078 0 0.03127146956898898 0.05148144123675555 0
          0.029005228714962698 0.06023063486250797 0 0.044108420459059515 0.029837578187427594 0
          0.03945690612282043 0.035771784531227854 0 0.049424807859972435 0.028259636515839112 0
          0.038762084958729966 0.04309545710959526 0 0.06447080594949745 0.018870077644196633 0
          0.03500580317795088 0.06388348834347517 0 0.06375678886145313 0.09921179848440913 0
          0.15506970089010927 -0.06911892562541308 0 0 0.08165100341217761 0
          0.10106606908787077 0.09558012879948946 0 0 0.23208067564784904 0
          0.11993158486869622 0 0 0 0 0
          0.08985354700786548 -0.009329919790820939 0 0.06672271139372964 0.049542223628629936 0
          0.05083235741754928 0.04733532438761413 0 0.045315850614300726 0.07949671970133125 0
          0.017989869387497425 0.0813873761361221 0 0.09151784586922991 0.03493328807471801 0
          0.10037117775248965 0.0843701323067457 0 0.042843940664684756 0.17962401320273808 0
          0.020655839364590613 0.11198403396334784 0 0.1628911598107808 0.02022991146190528 0
          0.12464802395764236 0.03700763700376529 0 0 0.1463077764900276 0
          0.11991292470640187 0.047968217493604304 0 0.059058097877979394 0.06949022519318729 0
          0.05814553075368728 0.16940128126216583 0 0 0.13883619948403042 0
          0.07177907469908312 0 0 0.05604502278432589 0.024837428138381346 0
          0.05044148170935817 0.03628610634828651 0 0.04435001503292521 0.036554252049905894 0
          0.056087214368909816 0.015473586520117771 0 0.05022888127748059 0.020816847520038564 0
          0.03739094711885146 0.05236232097845535 0 0.04408374762287585 0.045554212716080546 0
          0.08516644203550261 -0.029188604873301657 0 0.06349912061908744 0.007009993986032681 0
          0.07266328854070436 -0.007412261267828426 0 0.11229808034654175 -0.03314050375809193 0
          0.07526580514917167 0.0074268662244421375 0 0.09287323745631172 0.011953493337581254 0
          0.07830103710549777 0.023475811262496947 0 0.06581234171261015 0.07132927389669609 0
          0.07909638382392324 0.043751608443167694 0 0.06638540558912998 0.032122311468991076 0
          0.05798407563866307 0.04885788301925091 0 0.05638781467049862 0.0669178086030666 0
          0.058139789403221113 0.03447681651704745 0 0.042982535080056866 0.05713562024320393 0
          0.048908113103723255 0.06196925725411911 0 0.05296034107026452 0.08914888186599491 0
          0.03952237484218764 0.07094225475980301 0 0.02986951096577811 0.08449624084112234 0
          0.03385208391404387 0.09843598626093601 0 0.026497836282724153 0.07263543223979863 0
          0.008994934693748713 0.08151918977414985 0 0.019235727298981552 0.09448772309443783 0
          0.11084014989171892 0.0026118537272537185 0 0.07972007848704024 0.06771194561025724 0
          0.09186075455790611 0.06310281366004383 0 0.09788556677081349 0.029553846368064362 0
          0.1019513978168544 0.10108704088931614 0 0.08949950264767785 0.14155066233531222 0
          0.08059612808567368 0.10262056432764344 0 0.09443685191372525 0.1569831643317076 0
          0.09971352933357804 0.06168495437793765 0 0.004902064323934705 0.23015832525279942 0
          0.045661502343069184 0.21085800094009644 0 0.06065880383008553 0.13467037964095788 0
          0.029235428283834755 0.146004999595184 0 0.014730070456831758 0.18374409564709288 0
          0.03890162031275194 0.1155154343636567 0 0.008359356685720963 0.0970362386267108 0
          0.011280615472434178 0.13042784944902897 0 0.14593717357755376 0.016697412741571604 0
          0.15159986897550753 -0.00908866538965752 0 0.14664266878019913 0.03637791946988253 0
          0.14329544863135152 0.03850682079373747 0 0.11474415273674061 0.06701099374977813 0
          0.12955475832406083 0.05479611278790138 0 0.1262822499507504 0.0202844790497362 0
          0 0.23425331136749727 0 0 0.1056878697090405 0
          0.12406314851997056 0.022046904413644104 0 0.0983044288432941 0.027773090832002537 0
          0.10690535055564485 0.0739178568971477 0 0.09149606973207129 0.05883763671818726 0
          0.02562417051762286 0.03893372643119988 0 0.066812046933513 0.03296667153960082 0
          0.08256507715869892 0.09076460597645056 0 0.059065901004337874 0.12540025957768386 0
          0.023128434816210568 0.1040742126607763 0 0.08512789289089201 0.12949712728273097 0
          0.013026158076543743 0.2100030427822142 0 0.023522517825823954 0.16049243870644886 0
          0 0.0743557326305596 0 0 0.2001548890079205 0
          0.09867548228537161 0 0 0.031377725483253134 0 0
          0.05028787781289097 0.015308228470059724 0 0.0744562565622587 -0.03908437766382039 0
          0.060743188550135364 -0.0011558375973279543 0 0.05502466265106504 0.008773623062838605 0
          0.1043706518499495 -0.06408426686264095 0 0.06700359337246332 -0.01663278648919754 0
          0.1500045106922637 -0.1317343893312345 0 0.16065463475961636 -0.051369133661813386 0
          0.14785941862951002 0.00913322879970392 0 0.16424901684976437 0.0038374016808140265 0
          0.13585943951594534 0 0 0.03976648565209423 0.03007348190845935 0
          0.015212254362461836 0.04762645927804394 0 0.028279009858901513 0.04263052200187165 0
          0.009643458749786343 0.06333613205060824 0 0 0.04906458406514927 0
          0.03433885292174366 0.03722826305148099 0 0.045416274927340544 0.023911238553408383 0
          <InformationKey name="L2_NORM_RANGE" location="vtkDataArray" length="2">
            <Value index="0">
              0
            </Value>
            <Value index="1">
              0.23425331137
            </Value>
          </InformationKey>
        </DataArray>
        <DataArray type="Float64" Name="Pressure" format="ascii" RangeMin="-4.569881217165062" RangeMax="2.3424698192175417">
          -3.4334784201770265 -3.6928504804721145 -3.5603158156786368 -3.298001190995045 -3.154396588253804 -2.9266097739544468
          -3.1843159754734893 -2.5329791178114296 -3.04639398694901 -1.7288798430646874 -2.7484773608289714 -1.088946043765812
          -0.17009455474617785 -3.218736595079016 0.6984073038015035 0.26117858791311077 1.8108848134182578 2.3424698192175417
          -0.9386034544190343 -1.4532822609505502 -2.214583476045336 -1.9440027063111631 -2.96799202547439 -0.5997178288861379
          -0.14982902660167433 -0.49419818151545336 -2.068702571072893 0.8727164443752804 0.24744995217559793 -1.6548841541403319
          1.2620237039568665 1.5406098357779736 0.48239226475520286 1.329704111683363 2.0817072514858057 -2.132487878188745
          -2.380885953510151 -2.785742856268292 -2.126623609184213 -2.514588410868483 -2.8983388164056545 -2.634416371050954
          -0.9796656915340057 -1.7342086942955712 -1.3575078275069379 -0.5536696261338141 -1.3298644082776017 -0.7778244135774232
          -1.1847579885692656 -1.2854069298022557 -1.0236571488011623 -1.6007639629418287 -1.8388737369788717 -1.6889926490163463
          -1.9654303659035675 -2.4745306472752104 -2.0899172819763656 -1.5186166567131913 -2.354999035584516 -2.431941218427355
          -2.000778712044428 -2.8582346931516804 -3.093364310276703 -2.5323409352434 -0.3711689924162504 -0.8302001909125324
          -0.40573061303439417 -0.23219269211510102 0.2826609094975125 0.173434345639946 -0.6390462032655838 -0.24458675616708866
          0.028681390602214557 -0.11498943312982153 0.035959340432623756 -0.8210751450522025 -1.283728891952259 -0.9490691413228913
          -1.5323131898853317 -2.6422931657051447 -1.8684846221598108 1.3486489838264846 0.3590212038231182 1.0687952338947468
          0.5744859242321992 0.4759190950976584 0.7780112090059667 0.020131460606444336 -0.4265316324974828 -2.4768114923195537
          1.5379763683049987 1.6741589681034428 0.9830642264000289 1.401911191654888 1.9364318971215044 1.8095406001312695
          1.130328746671593 1.0230477127675037 1.424339465380027 0.5925296335229939 0.3545763280539303 0.9094629974390873
          1.8304024338919491 0.8267108275434957 1.9461804248638304 2.2069025106292544 -2.495476147528359 -1.0128798703343063
          -1.7381750501099154 -2.1139404609691392 -0.6101157340270711 -1.3696554598403505 -0.20259609675099524 0.32064608422152063
          1.304233469456468 0.8284149582998303 1.6140720391532437 -3.318477121224313 -4.346675963343364 -3.8253851452655927
          -3.789257981840226 -4.569881217165062 -3.566422520136843 -2.9030633194452755
        </DataArray>
        <DataArray type="Float64" Name="ALEdispl" NumberOfComponents="3" format="ascii" RangeMin="0" RangeMax="0">
          0 0 0 0 0 0
          0 0 0 0 0 0
          0 0 0 0 0 0
          0 0 0 0 0 0
          0 0 0 0 0 0
          0 0 0 0 0 0
          0 0 0 0 0 0
          0 0 0 0 0 0
          0 0 0 0 0 0
          0 0 0 0 0 0
          0 0 0 0 0 0
          0 0 0 0 0 0
          0 0 0 0 0 0
          0 0 0 0 0 0
          0 0 0 0 0 0
          0 0 0 0 0 0
          0 0 0 0 0 0
          0 0 0 0 0 0
          0 0 0 0 0 0
          0 0 0 0 0 0
          0 0 0 0 0 0
          0 0 0 0 0 0
          0 0 0 0 0 0
          0 0 0 0 0 0
          0 0 0 0 0 0
          0 0 0 0 0 0
          0 0 0 0 0 0
          0 0 0 0 0 0
          0 0 0 0 0 0
          0 0 0 0 0 0
          0 0 0 0 0 0
          0 0 0 0 0 0
          0 0 0 0 0 0
          0 0 0 0 0 0
          0 0 0 0 0 0
          0 0 0 0 0 0
          0 0 0 0 0 0
          0 0 0 0 0 0
          0 0 0 0 0 0
          0 0 0 0 0 0
          0 0 0 0 0 0
          0 0 0 0 0 0
          0 0 0 0 0 0
          0 0 0 0 0 0
          0 0 0 0 0 0
          0 0 0 0 0 0
          0 0 0 0 0 0
          0 0 0 0 0 0
          0 0 0 0 0 0
          0 0 0 0 0 0
          0 0 0 0 0 0
          0 0 0 0 0 0
          0 0 0 0 0 0
          0 0 0 0 0 0
          0 0 0 0 0 0
          0 0 0 0 0 0
          0 0 0 0 0 0
          0 0 0 0 0 0
          0 0 0 0 0 0
          0 0 0 0 0 0
          0 0 0 0 0 0
          0 0 0 0 0 0
          <InformationKey name="L2_NORM_RANGE" location="vtkDataArray" length="2">
            <Value index="0">
              0
            </Value>
            <Value index="1">
              0
            </Value>
          </InformationKey>
        </DataArray>
        <DataArray type="Float64" Name="ALEveloc" NumberOfComponents="3" format="ascii" RangeMin="0" RangeMax="1.3881885091798165">
          0.37417355986125855 -0.12307002412673881 0 0.28269610643835213 -0.044276797342810155 0
          0.2978992217445947 -0.010884964740162246 0 0.4126114624858748 -0.10213175725277618 0
          0.45135132449725235 -0.07394126083512664 0 0.46139418133053045 -0.27314683506767246 0
          0.41786518377788434 -0.20430541523150234 0 0.5491562054541421 -0.3435863151080781 0
          0.4791121560532515 -0.19384591025750944 0 0.7221017049794666 -0.49983049986383443 0
          0.6003034117741854 -0.15388220438997907 0 1.0532242698747356 -0.4099491679804761 0
          0.9699243373803369 -0.8932663442149468 0 0 0.3999040865350838 0
          1.102601600038264 -0.12268568565185242 0 0 -0.1706508769514095 0
          0.9361871849747674 0 0 0 0 0
          0.8573126127304739 -0.6832030152002655 0 0.8851003879367579 -0.4600804280669617 0
          0.698052273019344 -0.3281360319598299 0 0.8329715922605723 -0.27378372005468826 0
          0.5120983945497489 0.053256837970104325 0 1.044310964921183 -0.6465454550349945 0
          1.2347416286466457 -0.5173445527426962 0 1.2503051040099389 -0.37491042782687156 0
          0.8798630836499065 -0.06798569301578024 0 0.929594055372127 -0.16627190834307604 0
          1.1102919987821283 -0.5835291942568472 0 0 0.013690717157145059 0
          0.9816774657206753 -0.02675446616326783 0 0.9618652953341542 0.05751391259361849 0
          1.2584770472032683 -0.10213291653991488 0 0 0.2069307327893084 0
          0.9351732694421326 0 0 0.6415498320844246 -0.419937466001156 0
          0.621508537603385 -0.34061412066453217 0 0.5207882719533401 -0.2713166371111229 0
          0.5972121757689393 -0.4535840706129278 0 0.5133890650478529 -0.3769270821107052 0
          0.5411623973332954 -0.17804392059217564 0 0.5879709128190858 -0.2573102150671067 0
          0.7925154073259888 -0.7107353309782729 0 0.6700599401678256 -0.5324713424088252 0
          0.739436361432444 -0.6228300973220815 0 0.9136184750554055 -0.7882346797076061 0
          0.793519146535466 -0.5906867410883165 0 0.9490196305600507 -0.6680004743086603 0
          0.8733064161575713 -0.5730666640392147 0 0.9647571861967905 -0.4377332315737509 0
          0.9604685376672926 -0.5515557330889519 0 0.8013003663101106 -0.48298567501606493 0
          0.7884110041991426 -0.39250627526646703 0 0.8647973618491159 -0.37068831273576125 0
          0.7147271694831818 -0.4150942006613639 0 0.660712532010961 -0.24565606972264614 0
          0.7648633348595391 -0.30359001776510836 0 0.9455511599662748 -0.33983387907127466 0
          0.7211806144054725 -0.20921894033285723 0 0.72320713852369 -0.11729954110663598 0
          0.8567149037627833 -0.17968560651438406 0 0.5765901026226463 -0.06331788687769992 0
          0.434392823485365 0.18789020470443224 0 0.7140505282999031 -0.0004801858759298054 0
          1.0069845622487252 -0.7704568927002297 0 1.051045512494516 -0.5314609958211727 0
          1.1374251134526654 -0.6122587685984522 0 1.10912269220328 -0.7335755251632947 0
          1.2233587705410454 -0.36223453048391996 0 1.2924449639977906 -0.36623954378992685 0
          1.1666330322926757 -0.4875166789525269 0 1.2513214732582456 -0.45022110980349567 0
          1.1907077171310914 -0.5981228802601097 0 1.3406750909196423 -0.3237911835761458 0
          1.3345660872800018 -0.3821003738561746 0 1.1544014856850537 -0.40166157134696545 0
          1.0820145690527938 -0.22261985187057118 0 1.1946975075457131 -0.19243284630951946 0
          0.9830254925158282 -0.24891614549549437 0 0.7119142277307402 0.14735734720159205 0
          1.0010758733180147 -0.02472151224479555 0 0.9246349639350022 -0.0409940627543961 0
          0.984599355986091 -0.5422804846235934 0 0.9576252921039805 -0.08862744450450093 0
          0.9986343109527358 -0.3153319895925937 0 1.101975954851353 -0.29791398396748536 0
          1.0203917323382046 -0.1675585649350203 0 1.0593134957740076 -0.7970914278989933 0
          0 -0.16477225057515957 0 0 0.2044036573487025 0
          0.9459035322904379 -0.015717477571146027 0 0.9566187401289243 0.008531574534801049 0
          1.0286456634334626 -0.05832846723227013 0 0.9770759353725663 0.014861544828836759 0
          0.8862010840686223 0.04681840255498998 0 0.9427605736620268 0.029153421789278988 0
          1.0240137595463052 0.01648870872830423 0 1.0493219271373893 0.06270269266633784 0
          0.9474592767457916 0.11950192606183485 0 1.1736190065184937 -0.10773665891033515 0
          1.356711341965689 -0.10462688920479526 0 1.0758442882324628 0.12656605640173862 0
          0 0.1143849683873477 0 0 0.2192635133510935 0
          0.944815489211437 0 0 0.8914660044529767 0 0
          0.4791337468117261 -0.40754537898214827 0 0.7278131111940507 -0.7387713807392838 0
          0.6183068948825299 -0.5654452548847511 0 0.5472726102166727 -0.48693259327033545 0
          0.8488212696509205 -0.8157669954856137 0 0.6750340117309238 -0.65245812230351 0
          0.9143056599339644 -0.9141473132514306 0 0.9658755321481993 -0.6989075014044044 0
          0.8920289654285032 -0.04368176889415737 0 0.8852692942466357 -0.19810651848275598 0
          0.899185464299606 0 0 0.3666586387399557 -0.21497880687648876 0
          0.15811316330411684 0.01684574839342336 0 0.2644625269214163 -0.0698113624410243 0
          0.15736208679231542 0.10375534667363712 0 0 0.07038702327422203 0
          0.3342276134949716 -0.14422471404957857 0 0.43103786422537343 -0.30626592938572905 0
          <InformationKey name="L2_NORM_RANGE" location="vtkDataArray" length="2">
            <Value index="0">
              0
            </Value>
            <Value index="1">
              1.3881885092
            </Value>
          </InformationKey>
        </DataArray>
        <DataArray type="Float64" Name="LEVEL" format="ascii" RangeMin="-0.5100963550046944" RangeMax="0.30650184227586014">
          -0.21178934171462163 -0.2531798045388022 -0.25459429778835485 -0.2092374470555252 -0.20593522237381956 -0.16501421428748297
          -0.18520555031186872 -0.14395493891429395 -0.17945843175596318 -0.10428430476493358 -0.1666177031054186 -0.07212282047598936
          -0.03866337087517451 -0.23555557209504038 0.1410624697839687 0.02847816495241459 0.28820010490515524 0.2083818647292555
          -0.06925958207404818 -0.08887517543613904 -0.12817209818357755 -0.11574433046612623 -0.19741754546053847 -0.050200369813128504
          -0.020479128586971814 -0.041819228522340886 -0.12089542041426252 0.21181554947764594 0.045791603493044813 -0.08022890038237047
          0.21813449471411034 0.20638264478423235 0.09175571166400177 0.15962452982561784 0.2575889168837959 -0.12305892486408387
          -0.13688843382433075 -0.16044592458365117 -0.12226523637952043 -0.14174254472909345 -0.17308600218629874 -0.15333120644724918
          -0.07114281938396161 -0.10473086537430824 -0.08691172509600438 -0.05396147647461133 -0.08621842290663984 -0.06024866554655891
          -0.07894007298119043 -0.08122684598120622 -0.07016503727420777 -0.09715248696565013 -0.10885965221960384 -0.10172126717764664
          -0.11566767916134794 -0.14550286934604356 -0.12220420331318749 -0.09263848459112145 -0.13902227538519782 -0.1474297611159418
          -0.11903825758532269 -0.17921208582519638 -0.22250856461815538 -0.15411510455259372 -0.04449810870338022 -0.06088446778841124
          -0.0420246633496182 -0.03484752096705879 0.0597086503576775 0.02871349407204868 -0.050910980158791946 -0.03155564292869531
          -0.0017662958491591971 -0.01764066224683272 -0.002360754685149051 -0.05907831593384891 -0.07812571500030707 -0.060804080879028735
          -0.09300845702555446 -0.15816592292916015 -0.10103947745046138 0.2595274697490159 0.09802824837293722 0.2172258287550412
          0.14741646674867198 0.11329881696316872 0.17136698728953872 -0.01368982309491418 -0.042651637406409336 -0.13150887391577187
          0.2506540653546095 0.24263121365203127 0.18220868150302885 0.21272496286024895 0.21456252844402812 0.2310304599944247
          0.18466708076456334 0.1621544294172303 0.183005944605239 0.11632598907022723 0.06580220494098701 0.14397693812983658
          0.18366637887697335 0.1284325006910117 0.27382810509919764 0.23789431888852156 -0.13930919020227123 -0.07303990418013662
          -0.1051434309676124 -0.12243579980452458 -0.055844713784524776 -0.08885257278239 -0.03848808099041712 0.06254535186413208
          0.27604755200277203 0.21908460722532191 0.30650184227586014 -0.18978094608129592 -0.36189972658239755 -0.25199828816450015
          -0.3466944735182719 -0.5100963550046944 -0.2152852438816363 -0.16169175114949666
        </DataArray>
      </PointData>
      <CellData>
        <DataArray type="UInt8" Name="vtkGhostType" format="ascii" RangeMin="0" RangeMax="1">
          1 1 1 1 1 0
          1 1 1 0 1 1
          0 0 1 0 0 0
          0 0 0 0 0 1
          0 1 1 1 0 1
          1 0 1 0 0 0
          1 1 1 0 0 0
          0 0 0 0 0 0
          0 0 0 0 0 1
          0 1 0 1 1 0
          0 0 0 0 0 0
          0 0 0 0 0 0
          0 0 0 0 0 0
          0 0 0 0 0 0
          0 0 0 0 0 0
          0 1 1 1 1 1
          1 1 1 0 0 0
          0 0 0 0 0 0
          0 0 0 0 0 0
          0 0 0 0 0 0
          0 0 0 0 0 0
          0 0 0 0 0 0
          0 0 0 0 0 0
          0 0 0 0 0 0
          0 0 0 0 0 0
          0 0 0 0 0 0
          0 0 0 0 0 0
          0 0 0 0 0 0
          0 0 0 0 0 0
          0 0 0 0 0 0
          0 0 0 0 0 0
          0 0 0 0 0 0
          0 0 0 0 0 0
          0 0 0 0 0 0
          0 0 0 0 0 0
          0
        </DataArray>
      </CellData>
      <Points>
        <DataArray type="Float32" Name="Points" NumberOfComponents="3" format="ascii" RangeMin="0.6810813718738941" RangeMax="1.1516421027298704">
          0.7670518755912781 0.4551134705543518 0 0.8137503266334534 0.48254939913749695 0
          0.8493297696113586 0.4714881479740143 0 0.8026313185691833 0.44405221939086914 0
          0.8382107615470886 0.4329909682273865 0 0.692839503288269 0.3998619616031647 0
          0.7203534245491028 0.42767754197120667 0 0.7009049654006958 0.3609851598739624 0
          0.7559329271316528 0.416616290807724 0 0.7170358896255493 0.2832314968109131 0
          0.8270918130874634 0.39449378848075867 0 0.8620814085006714 0.2607015073299408 0
          0.7283409833908081 0.12700459361076355 0 1 0.44131478667259216 0
          0.8920844793319702 0.12008610367774963 0 1 0.21272429823875427 0
          0.8700000047683716 0 0 1 0 0
          0.7226884365081787 0.20511804521083832 0 0.7895586490631104 0.27196648716926575 0
          0.7720638513565063 0.33886265754699707 0 0.8445866107940674 0.32759764790534973 0
          0.9135459065437317 0.4179042875766754 0 0.7952111959457397 0.19385305047035217 0
          0.8770829439163208 0.19039380550384521 0 0.9310407042503357 0.23671290278434753 0
          0.9310407042503357 0.3510081470012665 0 0.7991704940795898 0.06350229680538177 0
          0.8102127313613892 0.12354534864425659 0 1 0.3270195424556732 0
          0.8810422420501709 0.06004305183887482 0 0.9460422396659851 0.06004305183887482 0
          0.9460422396659851 0.16640520095825195 0 1 0.10636214911937714 0
          0.9350000023841858 0 0 0.7089704275131226 0.32210832834243774 0
          0.7364844083786011 0.34992390871047974 0 0.7284189462661743 0.388800710439682 0
          0.6739236116409302 0.31700679659843445 0 0.6658581495285034 0.3558836281299591 0
          0.7915123701095581 0.40555503964424133 0 0.7639983892440796 0.37773948907852173 0
          0.6876416206359863 0.20001652836799622 0 0.6819890737533569 0.2781299650669098 0
          0.6848153471946716 0.239073246717453 0 0.7255147099494934 0.16606132686138153 0
          0.719862163066864 0.2441747784614563 0 0.7589498162269592 0.19948555529117584 0
          0.7561235427856445 0.23854227364063263 0 0.8258200287818909 0.26633399724960327 0
          0.792384922504425 0.23290976881980896 0 0.7532972693443298 0.2775990068912506 0
          0.7808112502098083 0.3054145872592926 0 0.8170726299285889 0.29978206753730774 0
          0.7445498704910278 0.3110470771789551 0 0.7995778322219849 0.36667823791503906 0
          0.8083252310752869 0.3332301378250122 0 0.8533340096473694 0.29414957761764526 0
          0.8358392119407654 0.3610457181930542 0 0.8790662288665771 0.3727509677410126 0
          0.8878136277198792 0.3393028974533081 0 0.8703188300132751 0.40619903802871704 0
          0.9567729234695435 0.4296095371246338 0 0.9222933053970337 0.38445621728897095 0
          0.7617760896682739 0.16042882204055786 0 0.8286463022232056 0.22727727890014648 0
          0.8361470699310303 0.1921234279870987 0 0.8027119636535645 0.15869919955730438 0
          0.8845837116241455 0.15523995459079742 0 0.9115626215934753 0.17839950323104858 0
          0.8695821762084961 0.225547656416893 0 0.9040618538856506 0.21355335414409637 0
          0.843647837638855 0.1569695770740509 0 0.9655203223228455 0.2247186005115509 0
          0.9385414719581604 0.20155905187129974 0 0.8965610265731812 0.24870720505714417 0
          0.9310407042503357 0.293860524892807 0 0.9655203223228455 0.2818662226200104 0
          0.8965610265731812 0.30585482716560364 0 0.9655203223228455 0.3961614668369293 0
          0.9655203223228455 0.33901384472846985 0 0.8345852494239807 0.03175114840269089 0
          0.763755738735199 0.09525345265865326 0 0.8401063680648804 0.061772674322128296 0
          0.8046916127204895 0.09352382272481918 0 0.8511486053466797 0.12181572616100311 0
          0.84562748670578 0.0917942002415657 0 0.7692768573760986 0.12527497112751007 0
          1 0.26987192034721375 0 1 0.3841671645641327 0
          0.8755211234092712 0.03002152591943741 0 0.9080211520195007 0.03002152591943741 0
          0.8865633606910706 0.09006457775831223 0 0.9135422706604004 0.06004305183887482 0
          0.9730211496353149 0.03002152591943741 0 0.9405211210250854 0.03002152591943741 0
          0.9190633893013 0.09006457775831223 0 0.9460422396659851 0.11322412639856339 0
          0.9730211496353149 0.08320260047912598 0 0.9190633893013 0.1432456523180008 0
          0.9730211496353149 0.1895647495985031 0 0.9730211496353149 0.13638366758823395 0
          1 0.05318107455968857 0 1 0.1595432311296463 0
          0.9024999737739563 0 0 0.9674999713897705 0 0
          0.6308112740516663 0.3507820963859558 0 0.652594804763794 0.19491499662399292 0
          0.6469422578811646 0.2730284631252289 0 0.6388767957687378 0.31190526485443115 0
          0.690467894077301 0.16095979511737823 0 0.6497685313224792 0.2339717298746109 0
          0.7004504799842834 0.11976396292448044 0 0.7358652353286743 0.08801281452178955 0
          0.806694746017456 0.024510515853762627 0 0.7712799906730652 0.05626166611909866 0
          0.8227255344390869 0 0 0.6847739815711975 0.43873879313468933 0
          0.8715677261352539 0.5484824776649475 0 0.7781708240509033 0.4936106503009796 0
          0.935783863067627 0.49489864706993103 0 1 0.5712088346481323 0
          0.7314724326133728 0.4661747217178345 0 0.6577926278114319 0.39476045966148376 0
          <InformationKey name="L2_NORM_RANGE" location="vtkDataArray" length="2">
            <Value index="0">
              0.68108137187
            </Value>
            <Value index="1">
              1.1516421027
            </Value>
          </InformationKey>
        </DataArray>
      </Points>
      <Cells>
        <DataArray type="Int64" Name="connectivity" format="ascii" RangeMin="0" RangeMax="123">
          13 120 22 118 2 120
          22 120 2 118 119 2
          13 121 120 10 22 2
          117 5 6 117 123 5
          117 6 122 8 0 6
          119 122 0 6 0 122
          8 3 0 2 1 3
          119 0 1 3 1 0
          10 4 40 2 3 4
          8 40 3 4 3 40
          7 37 5 8 6 37
          5 37 6 106 39 123
          7 5 39 123 39 5
          12 110 112 12 45 110
          18 42 45 107 110 42
          45 42 110 9 43 46
          108 44 43 18 46 44
          43 44 46 18 44 42
          108 111 44 107 42 111
          44 111 42 9 54 35
          20 36 54 7 35 36
          54 36 35 10 40 55
          8 41 40 20 55 41
          40 41 55 20 41 36
          8 37 41 7 36 37
          41 37 36 9 35 43
          7 38 35 108 43 38
          35 38 43 108 38 109
          7 39 38 106 109 39
          38 39 109 12 64 45
          23 47 64 18 45 47
          64 47 45 11 49 65
          19 50 49 23 65 50
          49 50 65 9 46 51
          18 48 46 19 51 48
          46 48 51 23 50 47
          19 48 50 18 47 48
          50 48 47 9 51 54
          19 52 51 20 54 52
          51 52 54 11 57 49
          21 53 57 19 49 53
          57 53 49 10 55 58
          20 56 55 21 58 56
          55 56 58 19 53 52
          21 56 53 20 52 56
          53 56 52 16 81 114
          27 115 81 81 115 114
          12 112 82 27 82 113
          112 113 82 27 113 115
          16 114 116 16 104 90
          34 91 104 30 90 91
          104 91 90 17 94 105
          31 95 94 34 105 95
          94 95 105 14 92 96
          30 93 92 31 96 93
          92 93 96 34 95 91
          31 93 95 30 91 93
          95 93 91 14 96 99
          31 97 96 32 99 97
          96 97 99 17 102 94
          33 98 102 31 94 98
          102 98 94 15 100 103
          32 101 100 33 103 101
          100 101 103 31 98 97
          33 101 98 32 97 101
          98 101 97 16 90 81
          30 83 90 27 81 83
          90 83 81 14 85 92
          28 86 85 30 92 86
          85 86 92 12 82 87
          27 84 82 28 87 84
          82 84 87 30 86 83
          28 84 86 27 83 84
          86 84 83 14 99 68
          32 69 99 24 68 69
          99 69 68 15 73 100
          25 74 73 32 100 74
          73 74 100 11 70 75
          24 71 70 25 75 71
          70 71 75 32 74 69
          25 71 74 24 69 71
          74 71 69 11 75 78
          25 76 75 26 78 76
          75 76 78 15 88 73
          29 77 88 25 73 77
          88 77 73 13 79 89
          26 80 79 29 89 80
          79 80 89 25 77 76
          29 80 77 26 76 80
          77 80 76 14 68 85
          24 72 68 28 85 72
          68 72 85 11 65 70
          23 66 65 24 70 66
          65 66 70 12 87 64
          28 67 87 23 64 67
          87 67 64 24 66 72
          23 67 66 28 72 67
          66 67 72 10 58 61
          21 59 58 22 61 59
          58 59 61 11 78 57
          26 60 78 21 57 60
          78 60 57 13 62 79
          22 63 62 26 79 63
          62 63 79 21 60 59
          26 63 60 22 59 63
          60 63 59
        </DataArray>
        <DataArray type="Int64" Name="offsets" format="ascii" RangeMin="3" RangeMax="633">
          3 6 9 12 15 18
          21 24 27 30 33 36
          39 42 45 48 51 54
          57 60 63 66 69 72
          75 78 81 84 87 90
          93 96 99 102 105 108
          111 114 117 120 123 126
          129 132 135 138 141 144
          147 150 153 156 159 162
          165 168 171 174 177 180
          183 186 189 192 195 198
          201 204 207 210 213 216
          219 222 225 228 231 234
          237 240 243 246 249 252