<?xml version="1.0"?>
<VTKFile type="UnstructuredGrid" version="0.1" byte_order="LittleEndian" header_type="UInt32" compressor="vtkZLibDataCompressor">
  <UnstructuredGrid>
    <Piece NumberOfPoints="36" NumberOfCells="50">
      <PointData>
        <DataArray type="Float64" Name="Velocity" NumberOfComponents="3" format="ascii" RangeMin="0" RangeMax="0.2618821127400352">
          0 0 0 0 0 0
          0 0 0 0.12646651046772253 0.11150864556201931 0
          0 0 0 0 0 0
          0.025923222054199946 0.14854013756776197 0 0.12307703934075095 -0.06832934828262881 0
          0.029021977776049986 -0.05612276214746026 0 0 0 0
          0 0 0 0.12374779951131809 0.010570748023410237 0
          -0.007909484749987723 0.1110547029247525 0 0.05385653416277979 0.01758023846296046 0
          -0.02474418294805039 -0.025363871952450986 0 0 0 0
          0 0 0 -0.09947244734432392 -0.006467168537877821 0
          0.10974247297527182 -0.05354217834709308 0 0.0019370423338991027 0.0528226055066241 0
          -0.09772551182979006 -0.014903898103845015 0 0.02473721969447247 -0.2061496068992333 0
          0 0 0 0 0 0
          -0.09192629125189788 0.08648331268129428 0 -0.01147364357173336 -0.2616306489621836 0
          0 0 0 0 0 0
          0 0 0 0 0 0
          -0.07104306675323074 -0.19033878008823862 0 0 0 0
          0 0 0 0 0 0
          0 0 0 0 0 0
          <InformationKey name="L2_NORM_RANGE" location="vtkDataArray" length="2">
            <Value index="0">
              0
            </Value>
            <Value index="1">
              0.26188211274
            </Value>
          </InformationKey>
        </DataArray>
        <DataArray type="Float64" Name="Pressure" format="ascii" RangeMin="0.4124411238030935" RangeMax="2.1452315692679327">
          0.6272539849951502 0.5912854795009176 0.853116625547504 0.8412199150440447 0.5551648814681722 1.105593709045705
          1.1041284909398603 0.825032478469691 1.1018142036289182 0.5220058650787834 1.377976228193321 0.8098456780121596
          1.3784851831427225 1.0961801429681646 1.3840327259497325 0.4907499535718693 1.6509988940526072 1.6538615049095073
          0.7933560380419629 1.3874948196704018 1.668193826104396 1.087935645615977 1.8927413620675255 0.4124411238030935
          1.682163424364289 1.3880347835338034 1.9234651487282195 0.7780043070926352 1.9492573136876052 1.0867027299451848
          1.7035882301783274 1.9799010919999862 1.392069541164845 2.0454282752846455 1.7148380904286393 2.1452315692679327
        </DataArray>
        <DataArray type="Float64" Name="Temperature" format="ascii" RangeMin="239.99999999999997" RangeMax="960">
          960 717.59512315668 960 667.6133141700327 583.3504062747932 960
          648.0976118830825 592.5083728664537 596.3615940411063 595.908795677633 960 603.8345141023398
          633.9474539556126 596.941439587944 601.1444253962188 577.1273024338611 959.9999999999998 610.540382944776
          618.5320051644619 599.3581450702352 597.3689194287666 588.9502579405865 960 240
          603.934048279197 570.4026107528524 636.747548590014 240 603.8107550956735 240.00000000000003
          555.3295449223756 615.8484748116532 239.99999999999997 493.4786044794638 240.00000000000003 240
        </DataArray>
        <DataArray type="Float64" Name="Density" format="ascii" RangeMin="0.3671075033350607" RangeMax="1.468430013340243">
          0.3671075033350607 0.4911170544907815 0.3671075033350607 0.5278852229599191 0.604136380828448 0.3671075033350607
          0.5437810551063036 0.5947986886610486 0.59095556575591 0.5914046004320226 0.3671075033350607 0.583642032661168
          0.5559186349005104 0.5903815346525926 0.5862537991088805 0.6106507207602538 0.3671075033350608 0.5772316017850294
          0.5697735933776817 0.5880010242629804 0.5899590550152201 0.5983921366024952 0.3671075033350607 1.4684300133402428
          0.5835458428048985 0.6178499126020978 0.5534739850699839 1.4684300133402428 0.5836649980602234 1.4684300133402426
          0.6346199413015569 0.5722563546324295 1.468430013340243 0.7141610598769625 1.4684300133402426 1.4684300133402428
        </DataArray>
        <DataArray type="Float64" Name="stream" format="ascii" RangeMin="-0.026160653944925245" RangeMax="0.015969553051001253">
          0 -0.0028444127325679574 -0.0001246488742141933 -0.00702433976670019 -0.0021583081119127246 -0.00482177629802015
          -0.0175515490273507 -0.012403203611604194 -0.022988318412320786 0.0055402431126952015 -0.006462454867769727 -0.004360661121040724
          -0.016500868676943312 -0.0201056638758012 -0.021708423053589037 0.010531416086643616 -0.006774656454378328 -0.011325821506581955
          0.0025647118264493346 -0.026160653944925245 -0.010745273920997979 -0.006974986810201034 -0.003615733690933401 0.015969553051001253
          -0.013051526560925801 -0.0076513501176837875 -0.001938706751047541 0.013787099966953932 -0.0007401756926320007 0.01502629642616477
          -0.004092910340438685 -0.005539309214023351 0.011072751174087911 0.002637682201286743 0.005918558325846324 0.002637682201286743
        </DataArray>
      </PointData>
      <CellData>
        <DataArray type="UInt8" Name="vtkGhostType" format="ascii" RangeMin="0" RangeMax="0">
          0 0 0 0 0 0
          0 0 0 0 0 0
          0 0 0 0 0 0
          0 0 0 0 0 0
          0 0 0 0 0 0
          0 0 0 0 0 0
          0 0 0 0 0 0
          0 0 0 0 0 0
          0 0
        </DataArray>
      </CellData>
      <Points>
        <DataArray type="Float32" Name="Points" NumberOfComponents="3" format="ascii" RangeMin="0" RangeMax="1.4142135623730951">
          0 1 0 0.20000000298023224 1 0
          0 0.800000011920929 0 0.20000000298023224 0.800000011920929 0
          0.4000000059604645 1 0 0 0.6000000238418579 0
          0.20000000298023224 0.6000000238418579 0 0.4000000059604645 0.800000011920929 0
          0.4000000059604645 0.6000000238418579 0 0.6000000238418579 1 0
          0 0.4000000059604645 0 0.6000000238418579 0.800000011920929 0
          0.20000000298023224 0.4000000059604645 0 0.6000000238418579 0.6000000238418579 0
          0.4000000059604645 0.4000000059604645 0 0.800000011920929 1 0
          0 0.20000000298023224 0 0.20000000298023224 0.20000000298023224 0
          0.800000011920929 0.800000011920929 0 0.6000000238418579 0.4000000059604645 0
          0.4000000059604645 0.20000000298023224 0 0.800000011920929 0.6000000238418579 0
          0 0 0 1 1 0
          0.6000000238418579 0.20000000298023224 0 0.800000011920929 0.4000000059604645 0
          0.20000000298023224 0 0 1 0.800000011920929 0
          0.4000000059604645 0 0 1 0.6000000238418579 0
          0.800000011920929 0.20000000298023224 0 0.6000000238418579 0 0
          1 0.4000000059604645 0 0.800000011920929 0 0
          1 0.20000000298023224 0 1 0 0
          <InformationKey name="L2_NORM_RANGE" location="vtkDataArray" length="2">
            <Value index="0">
              0
            </Value>
            <Value index="1">
              1.4142135624
            </Value>
          </InformationKey>
        </DataArray>
      </Points>
      <Cells>
        <DataArray type="Int64" Name="connectivity" format="ascii" RangeMin="0" RangeMax="35">
          26 17 22 17 16 22
          28 20 26 20 17 26
          31 24 28 24 20 28
          33 30 31 30 24 31
          35 34 33 34 30 33
          17 12 16 12 10 16
          20 14 17 14 12 17
          24 19 20 19 14 20
          30 25 24 25 19 24
          34 32 30 32 25 30
          12 6 10 6 5 10
          14 8 12 8 6 12
          19 13 14 13 8 14
          25 21 19 21 13 19
          32 29 25 29 21 25
          6 3 5 3 2 5
          8 7 6 7 3 6
          13 11 8 11 7 8
          21 18 13 18 11 13
          29 27 21 27 18 21
          3 1 2 1 0 2
          7 4 3 4 1 3
          11 9 7 9 4 7
          18 15 11 15 9 11
          27 23 18 23 15 18
        </DataArray>
        <DataArray type="Int64" Name="offsets" format="ascii" RangeMin="3" RangeMax="150">
          3 6 9 12 15 18
          21 24 27 30 33 36
          39 42 45 48 51 54
          57 60 63 66 69 72
          75 78 81 84 87 90
          93 96 99 102 105 108
          111 114 117 120 123 126
          129 132 135 138 141 144
          147 150
        </DataArray>
        <DataArray type="UInt8" Name="types" format="ascii" RangeMin="5" RangeMax="5">
          5 5 5 5 5 5
          5 5 5 5 5 5
          5 5 5 5 5 5
          5 5 5 5 5 5
          5 5 5 5 5 5
          5 5 5 5 5 5
          5 5 5 5 5 5
          5 5 5 5 5 5
          5 5
        </DataArray>
      </Cells>
    </Piece>
  </UnstructuredGrid>
</VTKFile>
