<?xml version="1.0"?>
<VTKFile type="UnstructuredGrid" version="0.1" byte_order="LittleEndian" header_type="UInt32" compressor="vtkZLibDataCompressor">
  <UnstructuredGrid>
    <Piece NumberOfPoints="55" NumberOfCells="85">
      <PointData>
        <DataArray type="Float64" Name="Velocity" NumberOfComponents="3" format="ascii" RangeMin="0" RangeMax="2.2840325518696023">
          0.7763557749678462 -0.35499961370081967 0 0.6311404325176015 -0.19980283726464276 0
          0.9279668114629919 -0.602727759944622 0 1.208776778408181 -0.6386252096253401 0
          0.739705989922386 -0.6025953556431531 0 0.5492528941604314 0 0
          0.6080199413111204 -0.37792769793432246 0 0.9534246968272203 -0.8372794090193375 0
          0.5125830466169679 -0.12951877342035706 0 0.5428738354886711 -0.6076084903768901 0
          1.307522814309876 -0.9479901980063494 0 0.4588687332788785 -0.2742433659127635 0
          0.6363904649571072 -0.9668015852499802 0 0.3897137434462273 -0.4917286906103025 0
          0.992191002548528 -1.2476457942219998 0 0.39677566789185137 0 0
          0.2688560815473015 -0.8078977725733075 0 0.36819630281717475 -0.17690617158412347 0
          1.5634062628216598 -1.2143680376028827 0 0.2725670045299851 -0.34067396460569066 0
          0.4187789144030755 -1.06167556644181 0 0.10787781341225786 -0.5583249756707385 0
          0.9394543760819669 -1.0157534601547793 0 0.011387530297822872 -0.6767806013865093 0
          0.21484954771257617 -0.19124854825364326 0 0.29009709871756684 -0.4785159895292468 0
          0.24084798019199857 0 0 0.07069740435083982 -0.31228486697581376 0
          0.8150825804817557 -0.12485642963459415 0 -0.05360315382449198 -0.3150423309720446 0
          -0.023346170216694155 0.05999261023551774 0 0.2815448899710688 0.45359830531630185 0
          0.1002276709763246 0 0 0.031330093391163535 -0.18273520824786416 0
          0.13373769275054273 0.0016754370223964038 0 0.03869152147182092 -0.09975993448615207 0
          0.37298549843880313 -0.05550818722354249 0 0.2761294798183754 -0.04821238542009656 0
          0.025917509618271543 0 0 0.175081597082628 -0.03908986325852722 0
          0.08749947605556721 -0.028782848700937298 0 0.026823951743347136 -0.016761895946663122 0
          0 0 0 0.7443956250591541 0 0
          0.8234970265482654 -0.13770512044757863 0 0.9550799106756293 -0.26833620628053945 0
          1.0769649838356736 -0.389855109114665 0 1.3524740030123417 -0.6530982709332822 0
          1.3233039215845637 -0.3923655306736969 0 1.3575312450573043 -0.009676697747487273 0
          1.6042723406696706 -0.7671528720654175 0 2.075066168687427 -0.954413481447559 0
          1.6383356252046697 -0.808788014780319 0 0.5185637094478635 0.5682639590434692 0
          0.46483727824632665 -0.060810643018359894 0
          <InformationKey name="L2_NORM_RANGE" location="vtkDataArray" length="2">
            <Value index="0">
              0
            </Value>
            <Value index="1">
              2.2840325519
            </Value>
          </InformationKey>
        </DataArray>
        <DataArray type="Float64" Name="Pressure" format="ascii" RangeMin="-4.408017468250005" RangeMax="-0.09558654208528225">
          -0.2583049361930444 -0.1711715530835849 -0.4229678727986217 -0.5577211181129564 -0.46296216156480974 -0.13365651769027426
          -0.30406878667071136 -0.7896827585978714 -0.1911710167955764 -0.4903433561398932 -1.151237464078503 -0.2939481552757966
          -0.9643450514570125 -0.5088370978595521 -1.7983533868925037 -0.19887762579269855 -1.036778946847054 -0.28366499936232675
          -2.434530521165124 -0.4804681417398018 -2.1511039244731887 -0.927166663107816 -3.4527153234205987 -1.918334643715596
          -0.393652126505241 -3.2587762866994487 -0.2518994523983673 -0.6719793236413693 -4.203677210673183 -1.2436049776870932
          -2.0328324279107677 -3.114604666405141 -0.23125410335958013 -0.7208702844715131 -1.1882683707969208 -0.2909536314691657
          -2.52241193170765 -1.3400226015062222 -0.16957885508095305 -0.5693730353671195 -0.21783693909609175 -0.10704951633092191
          -0.10287221973875339 -0.09558654208528225 -0.12509827747149602 -0.19904648119833063 -0.32297862104335073 -0.6828470744426992
          -0.5316596086101247 -4.408017468250005 -3.967403908748442 -2.4130371531231245 -1.3246028444454563 -3.754908368542331
          -3.796910815470489
        </DataArray>
        <DataArray type="Float64" Name="BTraction" NumberOfComponents="3" format="ascii" RangeMin="0" RangeMax="2.6063094920684073">
          0 0 0 0 0 0
          0 0 0 0 0 0
          0 0 0 -0.004310081491125754 -0.11130513830064122 0
          0 0 0 0 0 0
          0 0 0 0 0 0
          0 0 0 0 0 0
          0 0 0 0 0 0
          0 0 0 -0.0031788487689575888 -0.1682425790739276 0
          0 0 0 0 0 0
          0 0 0 0 0 0
          0 0 0 0 0 0
          0 0 0 0 0 0
          0 0 0 0 0 0
          -0.0018697597118760344 -0.2095984935509364 0 0 0 0
          0 0 0 0 0 0
          0 0 0 0 0 0
          -0.0012457484884331716 -0.20115613117706999 0 0 0 0
          0 0 0 0 0 0
          -2.5084936125251533 0.04176303849160604 0 -1.3533136203802734 0.029886758887597925 0
          -0.002278821591882134 -0.15834862486611032 0 -0.6134314495551549 0.02405469083547121 0
          -0.24798160460010496 0.01473925392356348 0 -0.12634599884393402 0.003086276232433753 0
          -0.05655773128991767 -0.06209642352821014 0 -0.0033309919324025603 -0.0842072521229631 0
          0 0 0 0 0 0
          0 0 0 0 0 0
          0 0 0 0 0 0
          0 0 0 0 0 0
          0 0 0 0 0 0
          -2.1713783216002596 -1.4415149506440506 0
          <InformationKey name="L2_NORM_RANGE" location="vtkDataArray" length="2">
            <Value index="0">
              0
            </Value>
            <Value index="1">
              2.6063094921
            </Value>
          </InformationKey>
        </DataArray>
        <DataArray type="Float64" Name="ALEdispl" NumberOfComponents="3" format="ascii" RangeMin="0" RangeMax="0.4488672569588903">
          0.24993201400992432 -0.1240994632488753 0 0.12447216393407955 -0.08326799773142683 0
          0.3132121666606214 -0.11784391046595655 0 0.34800689256975037 -0.09882724217301002 0
          0.29655810251920955 -0.1312989391677318 0 0 0 0
          0.2020662895163985 -0.11968378870069764 0 0.3414198238071818 -0.12403435670500401 0
          0.08430605342047698 -0.06186171556685725 0 0.26140082870168724 -0.13439423558306135 0
          0.3734258946240586 -0.10797018001312218 0 0.15262221891433314 -0.10195159283964274 0
          0.3192431911739662 -0.13539354046667704 0 0.21875630573817922 -0.12679620743348635 0
          0.366319983976778 -0.1250529258394461 0 0 0 0
          0.2816530916772348 -0.13428833221288117 0 0.09539281509170598 -0.070830474871555 0
          0.39874035624769383 -0.10758430984253188 0 0.16183156098901666 -0.10560135518344513 0
          0.3399184987383739 -0.12997861419626525 0 0.22893332998337348 -0.12078301784252789 0
          0.3886121573962127 -0.11656639594795018 0 0.29536380074663304 -0.12185538290626018 0
          0.09648139101668128 -0.0701336812303016 0 0.3567109177160348 -0.11455033077643258 0
          0 0 0 0.16060416450838993 -0.09328283495244745 0
          0.4084689417238304 -0.09891342913824336 0 0.23054295376091244 -0.10019587922417035 0
          0.2930914375339022 -0.09205081004417638 0 0.3664496577549243 -0.08723565074718082 0
          0 0 0 0.15577506085811152 -0.06977270542925844 0
          0.22753420182885548 -0.0649070312118955 0 0.06372217214208013 -0.038485537008279586 0
          0.35054375765546325 -0.03514279052168952 0 0.25910324389277145 -0.03157454720640495 0
          0 0 0 0.16273326046937073 -0.02686982292895653 0
          0.07955972846878784 -0.020783128836538704 0 0.02326821982004713 -0.012441128007787367 0
          0 0 0 0 0 0
          0.1457821277141833 -0.07729025027153816 0 0.2562785573751839 -0.0833062490734006 0
          0.3184762038500356 -0.08794446567016508 0 0.3505018609538436 -0.08187266757879443 0
          0.31158928697289795 -0.048689156693504834 0 0.441845771853285 -0.07908304663563032 0
          0.42150084703727736 -0.09791711016797083 0 0.41302159692618856 -0.08970032017837426 0
          0.3848322693663453 -0.08983779684304743 0 0.42209209494287997 -0.07093705128297244 0
          0.4365515797624903 -0.037560323803926744 0
          <InformationKey name="L2_NORM_RANGE" location="vtkDataArray" length="2">
            <Value index="0">
              0
            </Value>
            <Value index="1">
              0.44886725696
            </Value>
          </InformationKey>
        </DataArray>
        <DataArray type="Float64" Name="ALEveloc" NumberOfComponents="3" format="ascii" RangeMin="0" RangeMax="0.48145395114230105">
          0.26515743240123885 -0.13936223732534442 0 0.13220957505526443 -0.09216285096938143 0
          0.33200449188785786 -0.1356210260234767 0 0.36850993650018515 -0.11672533673096541 0
          0.3149473612537469 -0.150032771620613 0 0 0 0
          0.21478523936088345 -0.13462581784418304 0 0.3622885016882891 -0.14427750927545574 0
          0.08969313541058366 -0.06886348182759094 0 0.27792892767375954 -0.1530759621896174 0
          0.39590026552167223 -0.1286130475554358 0 0.16233742689308395 -0.11473348325637883 0
          0.3394168612696098 -0.156668829376794 0 0.23291799739168084 -0.14447308616904292 0
          0.3891878358004871 -0.14760778455591306 0 0 0 0
          0.2999288792607525 -0.15531613499000407 0 0.10148145971798417 -0.07989131656935036 0
          0.4232278865719037 -0.13032019030980518 0 0.17244689287329074 -0.120614057785322 0
          0.36179320382577285 -0.15316223166817347 0 0.24412368004100482 -0.1400634712910901 0
          0.4133096776225281 -0.14073534500826645 0 0.3148772946828239 -0.14416388278754852 0
          0.10267745980732632 -0.08035458402958179 0 0.3799396164294946 -0.13885583397827297 0
          0 0 0 0.1715529795643284 -0.10880350541679329 0
          0.4348112953286678 -0.12393986219861977 0 0.24611296896035545 -0.11958497121026593 0
          0.31265009552847434 -0.11381733222260684 0 0.3903328742296269 -0.1114209655577047 0
          0 0 0 0.16688714578622205 -0.08426146639575902 0
          0.24293586624989422 -0.0822581275005378 0 0.0688445498423975 -0.04663521055490273 0
          0.3729854325172248 -0.05550817741300744 0 0.2761294310151613 -0.0482123768990239 0
          0 0 0 0.1750815661386496 -0.0390898563497721 0
          0.0874994605908814 -0.02878284361384726 0 0.026823947002473182 -0.01676189298416018 0
          0 0 0 0 0 0
          0.15447487824527267 -0.08461435151310734 0 0.2708938014025537 -0.09453588073657515 0
          0.3369618092986897 -0.10295794366083466 0 0.3708369128908564 -0.09939195607104007 0
          0.3290512788384725 -0.06236893785049756 0 0.47016549047028167 -0.10364515734646113 0
          0.4479159576401779 -0.12198320435488882 0 0.43813060883094257 -0.11188674825845227 0
          0.4076815560775452 -0.1100843318001154 0 0.4495375314900958 -0.0958447061884464 0
          0.46483719609083507 -0.060810632270667075 0
          <InformationKey name="L2_NORM_RANGE" location="vtkDataArray" length="2">
            <Value index="0">
              0
            </Value>
            <Value index="1">
              0.48145395114
            </Value>
          </InformationKey>
        </DataArray>
      </PointData>
      <CellData>
        <DataArray type="UInt8" Name="vtkGhostType" format="ascii" RangeMin="0" RangeMax="1">
          1 1 1 1 1 0
          0 0 1 0 1 1
          0 0 0 0 0 0
          0 0 0 0 0 0
          0 0 0 0 0 0
          0 0 0 0 0 0
          0 0 0 0 0 0
          0 0 0 0 0 0
          0 0 0 0 0 0
          0 0 0 0 0 0
          0 0 0 0 0 0
          0 0 0 0 0 0
          0 0 0 0 0 0
          0 0 0 0 0 0
          0
        </DataArray>
        <DataArray type="Float64" Name="PStrain" NumberOfComponents="6" format="ascii" RangeMin="0.00022241434502687923" RangeMax="0.029508284497114467">
          0.00024223024122054854 0.00024223024122054854 0 0.00024223024122054854 0 0
          0.00016759264029416504 0.00016759264029416504 0 0.00016759264029416504 0 0
          0.00015382241461880895 0.00015382241461880895 0 0.00015382241461880895 0 0
          0.00015532682527627645 0.00015532682527627645 0 0.00015532682527627645 0 0
          0.00012841098197290303 0.00012841098197290303 0 0.00012841098197290303 0 0
          0.0004312797557443056 0.0004312797557443056 0 0.0004312797557443056 0 0
          0.00032698826420708265 0.00032698826420708265 0 0.00032698826420708265 0 0
          0.00039109197410357595 0.00039109197410357595 0 0.00039109197410357595 0 0
          0.0002574362589197263 0.0002574362589197263 0 0.0002574362589197263 0 0
          0.0004540725043991374 0.0004540725043991374 0 0.0004540725043991374 0 0
          0.00034731340454632886 0.00034731340454632886 0 0.00034731340454632886 0 0
          0.0003476480105579121 0.0003476480105579121 0 0.0003476480105579121 0 0
          0.00033059996757942717 0.00033059996757942717 0 0.00033059996757942717 0 0
          0.0031313396321224667 0.0031313396321224667 0 0.0031313396321224667 0 0
          0.0036774586897014754 0.0036774586897014754 0 0.0036774586897014754 0 0
          0.004103433088019191 0.004103433088019191 0 0.004103433088019191 0 0
          0.0031743225093586206 0.0031743225093586206 0 0.0031743225093586206 0 0
          0.0022672303302529308 0.0022672303302529308 0 0.0022672303302529308 0 0
          0.004543614891100138 0.004543614891100138 0 0.004543614891100138 0 0
          0.0017066718863544877 0.0017066718863544877 0 0.0017066718863544877 0 0
          0.0018642760589851742 0.0018642760589851742 0 0.0018642760589851742 0 0
          0.000985168727656908 0.000985168727656908 0 0.000985168727656908 0 0
          0.001768222403758157 0.001768222403758157 0 0.001768222403758157 0 0
          0.00199532080095093 0.00199532080095093 0 0.00199532080095093 0 0
          0.0023182813675086027 0.0023182813675086027 0 0.0023182813675086027 0 0
          0.001296082985909077 0.001296082985909077 0 0.001296082985909077 0 0
          0.0016078649607575311 0.0016078649607575311 0 0.0016078649607575311 0 0
          0.0012066050949089634 0.0012066050949089634 0 0.0012066050949089634 0 0
          0.002277396398252386 0.002277396398252386 0 0.002277396398252386 0 0
          0.0009609810119882605 0.0009609810119882605 0 0.0009609810119882605 0 0
          0.001062983179409545 0.001062983179409545 0 0.001062983179409545 0 0
          0.0006031754735761406 0.0006031754735761406 0 0.0006031754735761406 0 0
          0.000933107806442326 0.000933107806442326 0 0.000933107806442326 0 0
          0.0013086100166619023 0.0013086100166619023 0 0.0013086100166619023 0 0
          0.0014121145059996828 0.0014121145059996828 0 0.0014121145059996828 0 0
          0.0008431848543997314 0.0008431848543997314 0 0.0008431848543997314 0 0
          0.0012161720679973865 0.0012161720679973865 0 0.0012161720679973865 0 0
          0.0007725368056663249 0.0007725368056663249 0 0.0007725368056663249 0 0
          0.0008707133661137595 0.0008707133661137595 0 0.0008707133661137595 0 0
          0.0006565806756042863 0.0006565806756042863 0 0.0006565806756042863 0 0
          0.0015166002165990658 0.0015166002165990658 0 0.0015166002165990658 0 0
          0.0005365235955791115 0.0005365235955791115 0 0.0005365235955791115 0 0
          0.0006053088570935321 0.0006053088570935321 0 0.0006053088570935321 0 0
          0.001306245265809684 0.001306245265809684 0 0.001306245265809684 0 0
          0.0016006015053698047 0.0016006015053698047 0 0.0016006015053698047 0 0
          0.0005379589545114907 0.0005379589545114907 0 0.0005379589545114907 0 0
          0.0009394561240337626 0.0009394561240337626 0 0.0009394561240337626 0 0
          0.0008316419038544009 0.0008316419038544009 0 0.0008316419038544009 0 0
          0.0005099337484682635 0.0005099337484682635 0 0.0005099337484682635 0 0
          0.0006406365722632527 0.0006406365722632527 0 0.0006406365722632527 0 0
          0.0009463175870073736 0.0009463175870073736 0 0.0009463175870073736 0 0
          0.0005765288778620271 0.0005765288778620271 0 0.0005765288778620271 0 0
          0.0005211546120128713 0.0005211546120128713 0 0.0005211546120128713 0 0
          0.0010531244321325085 0.0010531244321325085 0 0.0010531244321325085 0 0
          0.0005503826064572242 0.0005503826064572242 0 0.0005503826064572242 0 0
          0.00031683302602455624 0.00031683302602455624 0 0.00031683302602455624 0 0
          0.0010781185911481635 0.0010781185911481635 0 0.0010781185911481635 0 0
          0.0006727712555474792 0.0006727712555474792 0 0.0006727712555474792 0 0
          0.0006605160825764482 0.0006605160825764482 0 0.0006605160825764482 0 0
          0.0006479096586184323 0.0006479096586184323 0 0.0006479096586184323 0 0
          0.0004249447677859157 0.0004249447677859157 0 0.0004249447677859157 0 0
          0.0006751937797369557 0.0006751937797369557 0 0.0006751937797369557 0 0
          0.000490202805481243 0.000490202805481243 0 0.000490202805481243 0 0
          0.0004058338792499613 0.0004058338792499613 0 0.0004058338792499613 0 0
          0.00032125594427659355 0.00032125594427659355 0 0.00032125594427659355 0 0
          0.0005046167034205542 0.0005046167034205542 0 0.0005046167034205542 0 0
          0.0003459921256239992 0.0003459921256239992 0 0.0003459921256239992 0 0
          0.0007511540304260452 0.0007511540304260452 0 0.0007511540304260452 0 0
          0.0170366159977331 0.0170366159977331 0 0.0170366159977331 0 0
          0.008923406607505277 0.008923406607505277 0 0.008923406607505277 0 0
          0.007905864931548646 0.007905864931548646 0 0.007905864931548646 0 0
          0.004441666839858481 0.004441666839858481 0 0.004441666839858481 0 0
          0.002502864120158483 0.002502864120158483 0 0.002502864120158483 0 0
          0.00039345236478734267 0.00039345236478734267 0 0.00039345236478734267 0 0
          0.0017989756110699984 0.0017989756110699984 0 0.0017989756110699984 0 0
          0.001419756809384879 0.001419756809384879 0 0.001419756809384879 0 0
          0.0074128132437345715 0.0074128132437345715 0 0.0074128132437345715 0 0
          0.0027538316429499016 0.0027538316429499016 0 0.0027538316429499016 0 0
          0.0030822087068410925 0.0030822087068410925 0 0.0030822087068410925 0 0
          0.002116742698706883 0.002116742698706883 0 0.002116742698706883 0 0
          0.0007328356162034967 0.0007328356162034967 0 0.0007328356162034967 0 0
          0.0009647452521358874 0.0009647452521358874 0 0.0009647452521358874 0 0
          0.001265024490512033 0.001265024490512033 0 0.001265024490512033 0 0
          0.0018118361225383478 0.0018118361225383478 0 0.0018118361225383478 0 0
          0.0022475813645804234 0.0022475813645804234 0 0.0022475813645804234 0 0
          <InformationKey name="L2_NORM_RANGE" location="vtkDataArray" length="2">
            <Value index="0">
              0.00022241434503
            </Value>
            <Value index="1">
              0.029508284497
            </Value>
          </InformationKey>
        </DataArray>
        <DataArray type="Float64" Name="Stress" NumberOfComponents="6" format="ascii" RangeMin="0.000002132643316849714" RangeMax="0.00021759833625670998">
          -4.260009597264138e-7 -0.000006127859959141491 0 0.000004261677639910021 0 0
          -6.749350040212434e-7 -0.0000019642782231656096 0 0.000003070017899788826 0 0
          -6.76588524007227e-7 -0.0000029861419757015267 0 0.000002894642755071175 0 0
          -0.000001788513674818763 8.84374558530523e-8 0 0.0000023770656432093654 0 0
          -0.000001109430815241009 0.0000011069542643818057 0 0.000001446368915479158 0 0
          -0.000008852205126419044 0.000006798055233788368 0 -3.919300967428756e-7 0 0
          -0.0000016815134435790322 -1.7933239682452566e-8 0 0.000005531443476411142 0 0
          -0.000004443467321148441 0.0000024878740490204268 0 0.000004913614428279306 0 0
          -0.000003118072415636476 0.0000032252978658155488 0 0.0000025412422029696358 0 0
          -0.0000025918248332576006 -0.000003261308709304061 0 0.000008153053191359974 0 0
          -0.000005164294685238684 0.0000028435693542141636 0 0.000004528299105085234 0 0
          -0.000004646427655490684 0.000005759503969935561 0 -8.174722290354038e-7 0 0
          -0.0000021665740630151117 -0.000003932874007358717 0 0.000006689462842204926 0 0
          -0.00004731488794568749 0.000028618508088019753 0 0.000010878080824111027 0 0
          -0.000046042517519759425 0.000029060930855634018 0 0.00001363504915511227 0 0
          -0.00001656133763104836 0.000007410340030735844 0 0.00004033962429519678 0 0
          -0.00003652341153037509 0.00001699859608543667 0 0.00003582067524541723 0 0
          -0.000016709536991926368 0.00000920289003729018 0 0.000025338582533188178 0 0
          -0.00001712523879288135 -0.000013695830446647626 0 0.00006152532902875887 0 0
          -0.00002601069754946297 0.000018316085336580706 0 0.00000940626046245165 0 0
          -0.00002815163967605567 0.000020845183035636152 0 -0.0000024482885856853317 0 0
          -0.000017431166548704742 0.000013886178655417106 0 5.790147445486145e-7 0 0
          -0.0000228564695718519 0.000017068456709614273 0 0.000010082109634672061 0 0
          -2.537403508035695e-7 -0.000008662065685783484 0 0.000026804118389508513 0 0
          -0.00001554279519685521 -0.000001737056985274213 0 0.00003500735080106605 0 0
          -0.0000044515915395265536 -0.0000027609520385546433 0 0.00001978813159823893 0 0
          -0.000019496917988491643 0.000010755557219256726 0 0.00001941300517453149 0 0
          -0.000010659138010097478 0.000006428930975526625 0 0.000014746261902333195 0 0
          -4.891543331331972e-7 -0.000011055147910838115 0 0.000032760806329026556 0 0
          -0.000014709788770780636 0.00001152589334571691 0 0.0000068884714571352 0 0
          -0.000016029301934770272 0.000014501494983209455 0 8.204143176022789e-8 0 0
          -0.000011637866450415185 0.000009322852414389682 0 4.4765627948408545e-7 0 0
          -0.000012377180425199385 0.000010235654974690082 0 0.000006893110175349941 0 0
          0.0000024970639929439484 -0.000010209930310690674 0 0.0000208709695727378 0 0
          -0.000004543883912673656 -0.000007983362263102528 0 0.00002359473596390125 0 0
          -4.181696261877344e-7 -0.000006739399391925103 0 0.000014917630003429975 0 0
          -0.000009728649109007988 6.869852665343922e-7 0 0.000019591518177836163 0 0
          -0.000004502120185850398 -9.53648736390856e-7 0 0.000013014094250168403 0 0
          -0.000011004654728949643 0.000006512874695232984 0 0.000011192548708117485 0 0
          -0.000006044211923094143 0.000004187464886995102 0 0.000008393162609218087 0 0
          0.000002424907529888056 -0.00001550434259303233 0 0.000022688565230547954 0 0
          -0.000007420464038553868 0.00000695335736813321 0 0.000004788257045200494 0 0
          -0.000008211914357258846 0.000008840383083463946 0 -2.922183516807919e-7 0 0
          0.000007300844829826523 -0.00001407102614255518 0 0.00001953652066830131 0 0
          0.000008254345120189462 -0.00001670747201676048 0 0.000019267449195366393 0 0
          -0.000007782800508064188 0.000006668690493053978 0 0.000005101330314391627 0 0
          0.000002761783067528727 -0.000012781507930274062 0 0.000015995530392546596 0 0
          -0.000004748633632524915 -0.0000050642029808298635 0 0.000014756367138479827 0 0
          -0.0000013086290532489535 -0.00000408620951912476 0 0.000009345664277727318 0 0
          -0.000005224202335494662 2.734511564964989e-7 0 0.000011097924186181316 0 0
          -8.037696952553514e-7 -0.000011754617551782084 0 0.000016326605794273793 0 0
          1.4738732000084638e-8 -0.000008917713306313179 0 0.000011067453461187385 0 0
          -0.000007172580424617925 0.000003769842714897436 0 0.000006387237333114961 0 0
          0.00000242049240152112 -0.000017636714985005366 0 0.000014953141146863112 0 0
          -0.0000013773636827796018 -0.000008121916080873996 0 0.000010490119825732217 0 0
          -7.021673351924715e-7 -0.000005111080141748642 0 0.000006325239405038084 0 0
          0.0000060023094519486055 -0.000018212795647282133 0 0.00001563850559937899 0 0
          5.735952354757304e-7 -0.000013980126326923675 0 0.00001171919350307867 0 0
          -0.0000012386170159559958 -0.000017817029383367015 0 0.000011403281975200897 0 0
          -4.979896272353696e-7 -0.000013229256852490586 0 0.000011271040933246938 0 0
          -5.198171612588744e-7 -0.000009267122783096307 0 0.000007859249390663073 0 0
          1.8350035816466405e-7 -0.00001853001295289145 0 0.000011098749618685855 0 0
          -8.130543939740109e-7 -0.000014108221526257293 0 0.000008914582096982926 0 0
          -0.0000012760943449813734 -0.000008681788519001874 0 0.000007426380985837596 0 0
          -0.00000121671529072889 -0.000008172333645355798 0 0.000006424738384904618 0 0
          -0.0000010119228521210411 -0.000014556121026664206 0 0.000009120503528831228 0 0
          -6.912657788762012e-7 -0.000009943592357680742 0 0.000006304603191721845 0 0
          0.0000044137784051796365 -0.000016950932255214156 0 0.000008853180064091067 0 0
          -0.00006325642772890387 -0.00003191314094069514 0 0.00020574064189645544 0 0
          -0.00009191769717235677 0.00005011662847553079 0 0.000013487432005776524 0 0
          -0.00008492044466816956 0.000018727155227395013 0 0.00008773768399936956 0 0
          0.000010150714193893315 -0.000008865984978572968 0 0.00004489436190301649 0 0
          0.000014348912564591414 -0.000011564462353010461 0 0.000028404090697939706 0 0
          -2.299184064803307e-7 -0.000003307287847063218 0 0.0000028777498537977385 0 0
          0.000009203436471278907 -0.00001258243913066705 0 0.000025377790219168568 0 0
          0.000011523159315868032 -0.00000657391254194459 0 0.000013312383097658962 0 0
          0.000013838051461041522 -0.000015136041640600004 0 0.00008556573891570118 0 0
          0.000016414359418829374 -0.0000064684277523121465 0 0.000030226679958034164 0 0
          0.000016991569752247596 -0.0000064800838759469295 0 0.000032965153764360694 0 0
          0.000010236773469895076 -0.000013683143364731952 0 0.00002558544297338188 0 0
          -8.602703231037618e-7 -0.000012374657724646416 0 0.00000953243521006152 0 0
          0.000010728431553069267 -0.000015670041922700636 0 0.000008858163570436845 0 0
          0.00001299291376392255 -0.000011947252150970567 0 0.000012919789037941622 0 0
          0.000012899788246035531 -0.000012761015232546787 0 0.000021406843881869855 0 0
          0.000014935509456071925 -0.000006429579777774123 0 0.000024047130637607376 0 0
          <InformationKey name="L2_NORM_RANGE" location="vtkDataArray" length="2">
            <Value index="0">
              2.1326433168e-06
            </Value>
            <Value index="1">
              0.00021759833626
            </Value>
          </InformationKey>
        </DataArray>
        <DataArray type="Float64" Name="Strain" NumberOfComponents="6" format="ascii" RangeMin="0.012785282077593108" RangeMax="0.049467600346952585">
          0 -0.02506904094129236 0 0.037474154041499196 0 0
          -0.0031988650736071707 -0.011392247109826326 0 0.03901805064394507 0 0
          -0.0030360611643152095 -0.019026412324448853 0 0.04008251387537179 0 0
          -0.011505284320628084 0.001364050712840792 0 0.03259675082543041 0 0
          -0.009199932598036954 0.009182063034520346 0 0.023991451063124038 0 0
          -0.021529876627976924 0.017116795425655543 0 -0.0019356603108383846 0 0
          -0.005116904194773397 0.0003013725786946142 0 0.036031796533511594 0 0
          -0.01175405545791791 0.00712098941138652 0 0.02676096525944848 0 0
          -0.012928131485469115 0.013314051251706859 0 0.021025965476033255 0 0
          -0.005186639259410722 -0.006756873794824785 0 0.038245000807914445 0 0
          -0.015373209207728125 0.009182063034520346 0 0.02777110519656014 0 0
          -0.014455708096531347 0.017422274358463403 0 -0.0050085597931398326 0 0
          -0.00570226034274051 -0.011392247109826326 0 0.04309908424438444 0 0
          -0.015678944009414934 0.010146765200251345 0 0.007399488678157637 0 0
          -0.013014349000234404 0.008735772284278784 0 0.007897479523487655 0 0
          -0.004143931776987547 0.002077648095812068 0 0.02093939340686217 0 0
          -0.011827981504708485 0.006128901560193661 0 0.024036007068530315 0 0
          -0.0076198739186060516 0.004552129259843378 0 0.023804895371909492 0 0
          -0.003544488514609305 -0.0027406528075178127 0 0.02884244241032624 0 0
          -0.01591913101573067 0.011741735815839717 0 0.011739418071635435 0 0
          -0.01581080583640143 0.012179478079145418 0 -0.0027972545494943934 0 0
          -0.018594571745112642 0.015260514907622823 0 0.0012518682041621348 0 0
          -0.013539849315758577 0.010506925795443448 0 0.012144905231496346 0 0
          0.0001738884289241016 -0.004314044778350588 0 0.028613329817663347 0 0
          -0.006624251625611146 -0.00028200542486855884 0 0.03216419639623144 0 0
          -0.003272673668675618 -0.0018834639590271374 0 0.0325200783919601 0 0
          -0.012537804760043736 0.007500498755863699 0 0.02571714791413237 0 0
          -0.009165505719682082 0.005917136933225611 0 0.0260313320277663 0 0
          0.00012215921578937519 -0.0048189143579155935 0 0.030640479423948465 0 0
          -0.01607265875953648 0.013002839200886516 0 0.01526819366944705 0 0
          -0.015960218800199953 0.014628504848004598 0 0.0001643941814266081 0 0
          -0.020282772524741866 0.016726632812425354 0 0.0015808134068314994 0 0