<?xml version="1.0"?>
<VTKFile type="UnstructuredGrid" version="0.1" byte_order="LittleEndian" header_type="UInt32" compressor="vtkZLibDataCompressor">
  <UnstructuredGrid>
    <Piece NumberOfPoints="52" NumberOfCells="77">
      <PointData>
        <DataArray type="Float64" Name="Velocity" NumberOfComponents="3" format="ascii" RangeMin="2.1400891110038787e-21" RangeMax="1.9955874340518274">
          0.2815912490584939 0.008058223765944414 0 0.18267339334846147 0.011380897436764414 0
          0.0902582509052793 0.013284110299277486 0 0.02730760611259276 0.01055037277599778 0
          0.8727401300939109 1.4392589130588862 0 0.2880958330418236 0.6858816778533593 0
          2.1400891110038787e-21 0 0 1.0482136011128738 1.3750886945291467 0
          0.7752120530535991 1.2603687465048765 0 1.4184742089367408 0.7354493987288615 0
          0.334048805452504 0.6323730380667177 0 1.225685954000543 1.1070496189018364 0
          0.9513504625171364 1.1505471841351034 0 1.3222449834887051 0.8949263204301876 0
          0.6658345589248756 0.962651923503886 0 0.1854863389280818 0 0
          1.0669883904686042 1.0140935293250182 0 1.256965383393908 0.7442287269568338 0
          0.2972926337981958 0.21705198518986704 0 0.8852530947977136 0.949712362184586 0
          0.5423971389652809 0.4663077330233867 0 1.192394455517344 0.4860173353220073 0
          1.1850051852968764 0.717182010764808 0 1.0083570408775508 0.7853627462413746 0
          0.4444553671417652 0 0 0.8721446459468754 0.7065643224583099 0
          0.7903581060552548 0.5254872465520415 0 1.0122701940165404 0.14073405381903425 0
          0.7085714208024788 0.2893926594828606 0 0.704683703302417 0 0
          1.041355356714038 0.19539306580259333 0 1.048738596982788 0.33743037943510124 0
          0.9771662686735099 0.3110509085283937 0 0.9667564634849392 0.2569257000159151 0
          0.8998534337666892 0.15926948208896285 0 0.9120521606793079 0 0
          1.000000176740356 0 0 1.000000176740356 0 0
          1.0000001767403561 0 0 1.0091836159952818 0 0
          1.0000001767403564 0 0 1.0000001767403561 0 0
          1.0000001767403564 0 0 1.000000176740356 0 0
          1.5933332116279 0.5315413826337781 0 1.3166974357647387 0.2518527327071287 0
          0.9088858127696327 1.4738070486693657 0 1.3695255959436792 1.4514712704703 0
          1.500092180960797 1.1299716707113285 0 1.7161795214130438 0.9184933319594477 0
          0.376444474924712 0.004661522481018761 0 1.148853216857313 0 0
          <InformationKey name="L2_NORM_RANGE" location="vtkDataArray" length="2">
            <Value index="0">
              2.140089111e-21
            </Value>
            <Value index="1">
              1.9955874341
            </Value>
          </InformationKey>
        </DataArray>
        <DataArray type="Float64" Name="Pressure" format="ascii" RangeMin="-2.247721183096989" RangeMax="1.585853162528519">
          -0.25420312968980496 0.4225651021512629 1.0439971516155861 1.27500002524302 -1.0300463164835894 0.21285688255352214
          1.3857409824036195 -0.8982330912510788 -0.2559794021266232 -0.5224472256310972 0.9214002678997899 -0.5966505383027325
          -0.28804373045108095 -0.43515806659228196 0.5992559465865164 1.5110749163218438 -0.19859929682283517 -0.32398895685646656
          1.51076886414665 0.28434220362087864 1.3572630140948572 -0.13752877039024652 -0.10187608372647164 0.19386108310228709
          1.585853162528519 0.6968387529720439 1.2100318256385856 0.01900255700280991 1.4603175124622205 1.500677524798918
          0.05655020045560295 0.24458263302753241 0.6742378441067409 1.04148900730318 1.2879427051448151 1.4109830117085906
          0.05599262057512146 0.04723996267503267 0.1843053977353987 1.312052932616451 0.5982623089354412 0.9831221797451104
          1.2057106841872247 1.2751733917706598 -0.6650658322522152 -0.15963336363257752 -2.247721183096989 -1.7083835415227127
          -0.9112172160710683 -1.0075380697726175 -1.108021130256418 0.025693693258357873
        </DataArray>
        <DataArray type="Float64" Name="BTraction" NumberOfComponents="3" format="ascii" RangeMin="0" RangeMax="1.501230696528746">
          0.21173116640524273 -0.13923996492947768 0 -0.43854506284927475 -0.05464048219912149 0
          -1.007014699078321 0.006513733356536757 0 -1.2977873779785247 0.028877234686615887 0
          0 0 0 0 0 0
          -0.6834495607982162 0.7412266725413602 0 0 0 0
          0 0 0 0 0 0
          0 0 0 0 0 0
          0 0 0 0 0 0
          0 0 0 -0.0012123871558755806 1.4726360274118273 0
          0 0 0 0 0 0
          0 0 0 0 0 0
          0 0 0 0 0 0
          0 0 0 0 0 0
          0.00000425180952038242 1.5012306965227251 0 0 0 0
          0 0 0 0 0 0
          0 0 0 -0.0012840597209229007 1.442981743379455 0
          0 0 0 0 0 0
          0 0 0 0 0 0
          0 0 0 0.000886257836207473 1.3658240148843528 0
          0.028733645931053563 -0.03646381996044585 0 0.06630229163086304 -0.011739999618665018 0
          0.21859418158025692 -0.019181101074455 0 0.0014439617299030023 1.3077389472954157 0
          0.579459930637311 -0.023389671262239096 0 0.9534712697610745 -0.020926676683905736 0
          1.1794643116578623 -0.009720931820480923 0 0.7209759475002625 0.5448267326798749 0
          0 0 0 0 0 0
          0 0 0 0 0 0
          0 0 0 0 0 0
          1.1321062975400582 -0.27598964833964673 0 0.004183039257224204 0.0037846269521531945 0
          <InformationKey name="L2_NORM_RANGE" location="vtkDataArray" length="2">
            <Value index="0">
              0
            </Value>
            <Value index="1">
              1.5012306965
            </Value>
          </InformationKey>
        </DataArray>
        <DataArray type="Float64" Name="ALEdispl" NumberOfComponents="3" format="ascii" RangeMin="0" RangeMax="0.4316908671804702">
          0.2632609886807095 0.021839883702567325 0 0.1693178276797199 0.02125814605142174 0
          0.08171505198885168 0.01877532012143792 0 0.023703901417893667 0.01226621816457388 0
          0.3572442509420346 0.07035448352529211 0 0.22639947027257246 0.05646996773351761 0
          0 0 0 0.3915017632933804 0.07943285114426821 0
          0.28295637658081285 0.07894508170754128 0 0.36521612097768286 0.043555940119687976 0
          0.1543044452967738 0.06648529375423504 0 0.3859419886200426 0.07431083668489263 0
          0.33355572400967515 0.09557802439190571 0 0.36445945478256114 0.061891485873579365 0
          0.2210578687955865 0.09124614842370643 0 0 0 0
          0.3495641375982581 0.09229505900414339 0 0.32645024200490785 0.05307687555412021 0
          0.040511481064302614 0.03773072623699544 0 0.2707199615569633 0.10379184550524737 0
          0.09916188849920436 0.0680683417666586 0 0.25702769754928545 0.023366353935791045 0
          0.3186490661120894 0.06698287891842028 0 0.29421975925836336 0.10023395743520588 0
          0 0 0 0.21475695302367157 0.10891986198985405 0
          0.1384935214504718 0.09950250802487381 0 0.129846231289214 -0.010481013023184778 0
          0.06458333364050445 0.06117163184412403 0 0 0 0
          0.16236838154939237 0.022779483591839986 0 0.19284008753154816 0.06143679285262878 0
          0.157996020499235 0.08190673448392978 0 0.1174197121017097 0.08518311992351962 0
          0.06531629168139674 0.06404180128478901 0 0 0 0
          0 0 0 0 0 0
          0 0 0 0 0 0
          0 0 0 0 0 0
          0 0 0 0 0 0
          0.3541051472301765 0.01886658537751947 0 0.17217273314441112 -0.005410921058397294 0
          0.4180369581419971 0.0527176830926265 0 0.427559888368311 0.059578072019022384 0
          0.407055225592592 0.05809136211562575 0 0.4092644080301417 0.040215623251551535 0
          0.35255779033623535 0.02134112820481742 0 0 0 0
          <InformationKey name="L2_NORM_RANGE" location="vtkDataArray" length="2">
            <Value index="0">
              0
            </Value>
            <Value index="1">
              0.43169086718
            </Value>
          </InformationKey>
        </DataArray>
        <DataArray type="Float64" Name="ALEveloc" NumberOfComponents="3" format="ascii" RangeMin="0" RangeMax="0.4590685019266056">
          0.2815911992899651 0.008058222341731328 0 0.1826733610627066 0.0113808954253009 0
          0.0902582349530067 0.013284107951439514 0 0.027307601286237583 0.01055037091132147 0
          0.3810926339521007 0.05629437188143016 0 0.2424025526968187 0.04543831102402811 0
          0 0 0 0.41806211146057404 0.0661548666121923 0
          0.30175258288348505 0.0673538775563376 0 0.3914960144147902 0.03017140051485004 0
          0.16590008552095675 0.05893683995876042 0 0.413104616188511 0.06179166147343315 0
          0.3556719959710378 0.08465205170344986 0 0.3908686218998346 0.049597781221144666 0
          0.2358250134443935 0.08261178480340314 0 0 0 0
          0.37338658421613413 0.08191990297563806 0 0.35055952415165137 0.041509509964632305 0
          0.04418209570013912 0.035763727335760345 0 0.2882257248607366 0.09525809395531742 0
          0.10653473139528336 0.06338605482804169 0 0.2775091629040496 0.011927298254162666 0
          0.34217874107334034 0.05711952832102615 0 0.3138981875104846 0.09269132020230683 0
          0 0 0 0.22794472780666353 0.10311005686729652 0
          0.14704343909883422 0.09552563312372414 0 0.14120223953519953 -0.01930114832803023 0
          0.06873986992678405 0.059507559044363056 0 0 0 0
          0.17566911702846638 0.01648253627484428 0 0.20669049458656918 0.05698252418952088 0
          0.1677609566656072 0.07958867650409013 0 0.12389737588652511 0.08396741655770881 0
          0.06885935970164761 0.06390731089820509 0 0 0 0
          0 0 0 0 0 0
          0 0 0 0 0 0
          0 0 0 0 0 0
          0 0 0 0 0 0
          0.37753308407391417 0.006639781869472103 0 0.18256134515379574 -0.012988606277098743 0
          0.4463644666056472 0.036232510618271166 0 0.4569279930771031 0.044279776463626186 0
          0.43570668650058164 0.043947966825312434 0 0.43762843807133445 0.025525487071828112 0
          0.37644440839179316 0.004661521657139761 0 0 0 0
          <InformationKey name="L2_NORM_RANGE" location="vtkDataArray" length="2">
            <Value index="0">
              0
            </Value>
            <Value index="1">
              0.45906850193
            </Value>
          </InformationKey>
        </DataArray>
      </PointData>
      <CellData>
        <DataArray type="UInt8" Name="vtkGhostType" format="ascii" RangeMin="0" RangeMax="1">
          1 1 1 1 1 1
          1 1 0 0 1 0
          0 0 0 0 0 0
          0 1 0 0 0 0
          0 0 0 0 0 0
          0 0 0 0 0 0
          0 0 0 0 0 0
          0 0 0 1 1 1
          1 0 0 0 0 0
          0 1 0 0 0 0
          0 0 0 0 0 0
          0 0 0 0 0 0
          0 0 0 0 0
        </DataArray>
        <DataArray type="Float64" Name="PStrain" NumberOfComponents="6" format="ascii" RangeMin="0.0001691443257505218" RangeMax="0.1732050807568877">
          0.0003643791253591128 0.0003643791253591128 0 0.0003643791253591128 0 0
          0.011190937582004326 0.011190937582004326 0 0.011190937582004326 0 0
          0.0042323546501203575 0.0042323546501203575 0 0.0042323546501203575 0 0
          0.009973380438562643 0.009973380438562643 0 0.009973380438562643 0 0
          0.0014381767754499523 0.0014381767754499523 0 0.0014381767754499523 0 0
          0.004212631032089157 0.004212631032089157 0 0.004212631032089157 0 0
          0.005836277530029306 0.005836277530029306 0 0.005836277530029306 0 0
          0.0012214336135945767 0.0012214336135945767 0 0.0012214336135945767 0 0
          0.0030801376886042025 0.0030801376886042025 0 0.0030801376886042025 0 0
          0.00039606237765498284 0.00039606237765498284 0 0.00039606237765498284 0 0
          0.008526031349761922 0.008526031349761922 0 0.008526031349761922 0 0
          0.0014891315857577094 0.0014891315857577094 0 0.0014891315857577094 0 0
          0.0033978365229043045 0.0033978365229043045 0 0.0033978365229043045 0 0
          0.0033458954614960846 0.0033458954614960846 0 0.0033458954614960846 0 0
          0.0016180764781383102 0.0016180764781383102 0 0.0016180764781383102 0 0
          0.0005085560739959386 0.0005085560739959386 0 0.0005085560739959386 0 0
          0.002257357396683812 0.002257357396683812 0 0.002257357396683812 0 0
          0.0007347423215083535 0.0007347423215083535 0 0.0007347423215083535 0 0
          0.0012346174614219921 0.0012346174614219921 0 0.0012346174614219921 0 0
          0.0007059034684647055 0.0007059034684647055 0 0.0007059034684647055 0 0
          0.09999999999999999 0.09999999999999999 0 0.09999999999999999 0 0
          0.00016486252001652853 0.00016486252001652853 0 0.00016486252001652853 0 0
          0.00038673910118733687 0.00038673910118733687 0 0.00038673910118733687 0 0
          0.0002564420140961876 0.0002564420140961876 0 0.0002564420140961876 0 0
          0.0001855536408709947 0.0001855536408709947 0 0.0001855536408709947 0 0
          0.00046048920076737475 0.00046048920076737475 0 0.00046048920076737475 0 0
          0.0008786857547421203 0.0008786857547421203 0 0.0008786857547421203 0 0
          0.0010406762912181736 0.0010406762912181736 0 0.0010406762912181736 0 0
          0.0004332190179211084 0.0004332190179211084 0 0.0004332190179211084 0 0
          0.0013480722119438586 0.0013480722119438586 0 0.0013480722119438586 0 0
          0.0006360050694533381 0.0006360050694533381 0 0.0006360050694533381 0 0
          0.0017405506085636621 0.0017405506085636621 0 0.0017405506085636621 0 0
          0.0004056200609289988 0.0004056200609289988 0 0.0004056200609289988 0 0
          0.0002669099386042575 0.0002669099386042575 0 0.0002669099386042575 0 0
          0.0015092298000566112 0.0015092298000566112 0 0.0015092298000566112 0 0
          0.0009926253501154484 0.0009926253501154484 0 0.0009926253501154484 0 0
          0.001095571721479258 0.001095571721479258 0 0.001095571721479258 0 0
          0.00077833207154157 0.00077833207154157 0 0.00077833207154157 0 0
          0.0008667651737890932 0.0008667651737890932 0 0.0008667651737890932 0 0
          0.000889195020749604 0.000889195020749604 0 0.000889195020749604 0 0
          0.000831129152150345 0.000831129152150345 0 0.000831129152150345 0 0
          0.00036566120390997976 0.00036566120390997976 0 0.00036566120390997976 0 0
          0.0004833058707597956 0.0004833058707597956 0 0.0004833058707597956 0 0
          0.00033918777815910336 0.00033918777815910336 0 0.00033918777815910336 0 0
          0.00011264137916488273 0.00011264137916488273 0 0.00011264137916488273 0 0
          0.0002994739764648161 0.0002994739764648161 0 0.0002994739764648161 0 0
          0.0001514131634919864 0.0001514131634919864 0 0.0001514131634919864 0 0
          0.00009765552200396151 0.00009765552200396151 0 0.00009765552200396151 0 0
          0.0020878257244733686 0.0020878257244733686 0 0.0020878257244733686 0 0
          0.005641710379694605 0.005641710379694605 0 0.005641710379694605 0 0
          0.005097695016421504 0.005097695016421504 0 0.005097695016421504 0 0
          0.0045495692331044 0.0045495692331044 0 0.0045495692331044 0 0
          0.0027322152012607018 0.0027322152012607018 0 0.0027322152012607018 0 0
          0.002473567382597708 0.002473567382597708 0 0.002473567382597708 0 0
          0.005712566320507962 0.005712566320507962 0 0.005712566320507962 0 0
          0.001992123279406846 0.001992123279406846 0 0.001992123279406846 0 0
          0.001389450886630061 0.001389450886630061 0 0.001389450886630061 0 0
          0.002092370905062402 0.002092370905062402 0 0.002092370905062402 0 0
          0.0016269528381932855 0.0016269528381932855 0 0.0016269528381932855 0 0
          0.0010213846286938391 0.0010213846286938391 0 0.0010213846286938391 0 0
          0.002655709229880287 0.002655709229880287 0 0.002655709229880287 0 0
          0.002826999433071236 0.002826999433071236 0 0.002826999433071236 0 0
          0.003297919612767878 0.003297919612767878 0 0.003297919612767878 0 0
          0.0028420839572774114 0.0028420839572774114 0 0.0028420839572774114 0 0
          0.0007703647643000531 0.0007703647643000531 0 0.0007703647643000531 0 0
          0.001587034040044301 0.001587034040044301 0 0.001587034040044301 0 0
          0.002111722404877101 0.002111722404877101 0 0.002111722404877101 0 0
          0.002117165467554905 0.002117165467554905 0 0.002117165467554905 0 0
          0.0005312664512626007 0.0005312664512626007 0 0.0005312664512626007 0 0
          0.002220820009227692 0.002220820009227692 0 0.002220820009227692 0 0
          0.0004883726658106104 0.0004883726658106104 0 0.0004883726658106104 0 0
          0.0012014185591044434 0.0012014185591044434 0 0.0012014185591044434 0 0
          0.00038673910118733714 0.00038673910118733714 0 0.00038673910118733714 0 0
          0.0004926441299482431 0.0004926441299482431 0 0.0004926441299482431 0 0
          0.0013289523885790474 0.0013289523885790474 0 0.0013289523885790474 0 0
          0.0008318765973066328 0.0008318765973066328 0 0.0008318765973066328 0 0
          0.0011513624819775334 0.0011513624819775334 0 0.0011513624819775334 0 0
          <InformationKey name="L2_NORM_RANGE" location="vtkDataArray" length="2">
            <Value index="0">
              0.00016914432575
            </Value>
            <Value index="1">
              0.17320508076
            </Value>
          </InformationKey>
        </DataArray>
        <DataArray type="Float64" Name="Stress" NumberOfComponents="6" format="ascii" RangeMin="0" RangeMax="0.00023534693230830244">
          0.000010438533477434219 -0.0000029948745774474925 0 -0.000008500304082566464 0 0
          0.00022537328038856432 -0.00006143167263592824 0 0.000006464743673373602 0 0
          0.0001307595763275659 -0.00004031134158206851 0 0.000007534148094078431 0 0
          0.0002043678326351725 -0.00003435430728986279 0 0.00011154258873436861 0 0
          0.000044098113012940176 -0.000016549051428678855 0 -0.000014554785274047746 0 0
          0.00012402822661319046 -0.00003157785891516706 0 -0.000020135929191582756 0 0
          0.000024288755324743322 0.000002015593394628126 0 0.00006605557436585417 0 0
          0.00003214291848006749 -0.000010050283536023867 0 -0.000021233969526928194 0 0
          -6.681179338077558e-7 0.000006559120772066454 0 0.00003525897069209378 0 0
          2.2672725898030048e-7 0.0000032613844176397076 0 0.000002932167566272321 0 0
          0.000037480501534930306 -4.236557134544455e-8 0 0.00010426286812584274 0 0
          -0.000010721553562142398 0.000005153805890639134 0 0.00001713018207095903 0 0
          -0.000003709796248112196 -0.0000020364162151681684 0 0.00003195081875302644 0 0
          -0.000011952972237052637 2.3157131358404314e-7 0 0.0000367754248575594 0 0
          -0.000009305824630681233 0.0000068501331600105336 0 0.000018162470121228933 0 0
          -0.0000030332099621229514 0.000009803281754096436 0 0.0000030126820347504015 0 0
          -0.000012238102694284461 0.000002110327433887332 0 0.00002424602776658235 0 0
          -0.000005149445440349336 0.000008820941965562594 0 0.000006601574760882668 0 0
          -0.000009246953934008936 0.000013238889205980841 0 0.000014797046424206121 0 0
          0.000020041222292764874 -0.000008407149431898587 0 -0.000011619672117286413 0 0
          0 0 0 0 0 0
          3.447298134904961e-7 0.0000049588057786709825 0 0.0000023529501476829337 0 0
          8.630057987319213e-7 0.00001241400648945148 0 0.000006097615095436574 0 0
          0.0000013367203738547235 0.000007865050445310845 0 0.000003963664976119509 0 0
          0.000004593139740096891 0.00000345069085885063 0 0.000003488488706514674 0 0
          0.0000022597774278768895 0.000008699331637163882 0 0.000007837610648943625 0 0
          0.000015607576083289536 0.000004665975624510417 0 0.00001649360691475051 0 0
          0.00003058912568978981 0.0000012318540503780892 0 0.000013366686292036645 0 0
          0.000006790426459042053 0.000004705847547171039 0 0.000006456723455162312 0 0
          0.000045788369033517926 -0.0000012001840260656582 0 0.00002498239379316168 0 0
          0.000030053076951654398 0.0000020541237618734088 0 0.000014773500059697524 0 0
          0.000084750173243196 -0.000005997645884621183 0 0.000017842057779759025 0 0
          0.000018157723048543404 0.0000012623016023051564 0 0.000006128462953335593 0 0
          0.0000066552240723889265 0.0000035499693802756366 0 0.000005870540452980303 0 0
          0.00007225776094110113 -0.00001268685758582992 0 0.000012855004209437542 0 0
          0.00006412863565591176 -0.000002874179537799601 0 0.000018115477767780032 0 0
          0.0000622237757364276 -0.000009024649949265911 0 0.000002067606544961144 0 0
          0.00004867320572951534 0.000003383698794030478 0 0.000011739269152955707 0 0
          0.000041885930478154334 -0.000009129467042914976 0 -0.000004368034609705937 0 0
          0.00006281767356629327 -0.000005881844242436649 0 0.000005722649816736626 0 0
          0.00006102376032107952 0.000004242293498256864 0 0.000009044984525044525 0 0
          0.000017427915128338354 -0.000002732142657336166 0 -0.0000019309250719801395 0 0
          0.00003268991501923508 0.0000022725609371660753 0 0.0000021337024228725855 0 0
          0.000017274878678449467 -0.0000020976098077357524 0 -0.000002792419458032192 0 0
          0.000004802484265783074 3.3386254254106925e-7 0 -1.8035056548027952e-7 0 0
          0.0000063428203450608645 -0.0000035644365095647502 0 -0.00000562772541992785 0 0
          0.000003678916569919516 7.095865741770889e-7 0 -0.000003745714491647216 0 0
          2.3278606127177742e-8 3.34853795829403e-7 0 -0.000001930007340729483 0 0
          0.00007550618836276535 -0.00002373640250517624 0 -0.000009351096922423469 0 0
          0.0000803555194217898 -0.000013644640449922063 0 0.00005844347808444723 0 0
          0.00014846649865628574 -0.00003896897616947108 0 0.000013669867402120597 0 0
          0.0001267778455132634 -0.000030376150493473642 0 0.00005084139513265782 0 0
          0.0000711464678311671 -0.000009137401623935153 0 0.00003575175911947014 0 0
          0.00010005220987729618 -0.00002469192155599897 0 0.000009502626334145865 0 0
          0.00007984386732339877 0.0000034884420891410386 0 0.00007611821796510683 0 0
          0.00006880799170622184 -0.000021608724050628637 0 -0.000017689294907514664 0 0
          0.00005317220304319226 -0.000015590454771189458 0 -0.000012264230447442036 0 0
          0.00007223945661177553 -0.000019665015576758242 0 -0.000005383226012333573 0 0
          0.00006062556119429985 -0.000014420461444183758 0 -0.000012749171448473446 0 0
          0.00004459444301376665 -0.000011089187686075962 0 -0.000007898955944116018 0 0
          0.00002250132428159677 0.000006952217698075658 0 0.00003490560000394604 0 0
          0.00010996574408085041 -0.0000255288735145911 0 0.000011981253225743538 0 0
          0.00008706591810818164 -0.000008573821001804234 0 0.000045831549371482336 0 0
          0.00002361595930785767 0.0000011408802287300315 0 0.000036701644937527957 0 0
          0.00003082741188447394 -0.000010272368531203492 0 -0.000008711160710403158 0 0
          0.00001737257569057685 0.00000827124084268623 0 0.00002695060498397797 0 0
          0.0000463946403876199 -0.000003641088405179577 0 0.000027784695819080987 0 0
          2.484656118101706e-8 0.000007926291543534663 0 0.00002633588153253826 0 0
          9.530999499045627e-7 0.000013709976202473326 0 0.0000068485290675224595 0 0
          3.392041892559719e-7 0.000007337391591450397 0 0.000025206514492051768 0 0
          -0.0000010841526974554208 0.000013604398389601138 0 0.000005851863091582115 0 0
          -0.0000016790180629780906 0.00001063520123251074 0 0.000017902434970870475 0 0
          8.630057987319217e-7 0.00001241400648945149 0 0.000006097615095436577 0 0
          1.1544733786355186e-8 0.000009139522503973641 0 0.0000067324657868769075 0 0
          0.000011978568886610247 0.000006248688377674547 0 0.00001563295651344802 0 0
          -0.0000012275054731458683 0.00001456780245236139 0 0.00001257668522513176 0 0
          -2.3057343148483736e-7 0.00000927963970890978 0 0.00001312466908121835 0 0
          <InformationKey name="L2_NORM_RANGE" location="vtkDataArray" length="2">
            <Value index="0">
              0
            </Value>
            <Value index="1">
              0.00023534693231
            </Value>
          </InformationKey>
        </DataArray>
        <DataArray type="Float64" Name="Strain" NumberOfComponents="6" format="ascii" RangeMin="0" RangeMax="0.07636243772765487">
          0.029095384801934895 -0.010167510854750195 0 -0.04968903659896159 0 0
          0.02043382729476262 -0.006860335748578937 0 0.0012304513293353164 0 0
          0.031424037145568226 -0.011623047192834156 0 0.0037916802269702746 0 0
          0.020643206857764405 -0.00484855900701027 0 0.023821984478358656 0 0
          0.0313295328778439 -0.013580961598828966 0 -0.021556246188179775 0 0
          0.02983650447469144 -0.009502445417987743 0 -0.010181173915153253 0 0
          0.004120195750977662 0.00005580413602758027 0 0.024107553603360407 0 0
          0.026774148969937663 -0.010015210391882367 0 -0.03702890979007348 0 0
          -0.00036340916678012647 0.002135508089494873 0 0.024382548823066685 0 0
          0 0.008160103196642534 0 0.01576902343802175 0 0
          0.004377778786101211 -0.0003092616233032839 0 0.02604727803566501 0 0
          -0.007409034444399314 0.0039447357522146235 0 0.0245023933144075 0 0
          -0.0010457099458781038 -0.0005212145138371021 0 0.020028993003399713 0 0
          -0.0035621260707902405 0.0003162195113594578 0 0.02341126787971321 0 0
          -0.006019930529381141 0.004613741784354811 0 0.02390867297121095 0 0
          -0.007273586962388437 0.019608136365298783 0 0.012618102628481447 0 0
          -0.0054632395141013534 0.00130621494133922 0 0.02287809596242424 0 0
          -0.0078099744263400075 0.012439931087136043 0 0.019137803593256356 0 0
          -0.008200392409208983 0.01119624152184465 0 0.02552831939316489 0 0
          0.029095384801934895 -0.013824812137544273 0 -0.03506131180180981 0 0
          0 0 0 0 0 0
          0 0.02980659826396296 0 0.03039977682048161 0 0
          0 0.031809081879355446 0 0.03358315751731692 0 0
          0.003067417076608579 0.03017947806476213 0 0.03292208739230951 0 0
          0.023361760133851737 0.016804583175124326 0 0.04004492129605942 0 0
          0.0035788431800683395 0.018471972533508192 0 0.03625299063350517 0 0
          0.017319766286864775 0.004058137285015679 0 0.03998173697345199 0 0
          0.029187377279017025 -0.0008560613577711339 0 0.02735821123464916 0 0
          0.014856168230296191 0.009731562778309964 0 0.03174565379306639 0 0
          0.03388393849294625 -0.0032378184612283853 0 0.039473032904301465 0 0
          0.04682966758381026 -0.00005499824557821109 0 0.04947689356344733 0 0
          0.048724403864126124 -0.006801949058688269 0 0.02183423043484387 0 0
          0.04436078383064344 0 0 0.032181904565340924 0 0
          0.023908285894872677 0.011517978271281246 0 0.0468482036683837 0 0
          0.04825687884957755 -0.011684966141681019 0 0.018142471719730754 0 0
          0.06453256230189924 -0.007355585802522272 0 0.0388726397536429 0 0
          0.05712598312794627 -0.012134268727413619 0 0.00401982075150761 0 0
          0.061970111023126814 0 0 0.032125932118242634 0 0
          0.04884938972897933 -0.013833560628182886 0 -0.010734065004020955 0 0
          0.07080498438923183 -0.011477287507228266 0 0.01370817854937301 0 0
          0.07275916385539939 0 0 0.023180292724060046 0 0
          0.04797723842394323 -0.010739577339287333 0 -0.011247762571853882 0 0
          0.06702687481630787 0 0 0.009403540150616915 0 0
          0.05114305547541424 -0.009683724161998022 0 -0.01753557713043128 0 0
          0.04224985676255314 0 0 -0.003410351571696289 0 0
          0.021914324990601093 -0.013318213992350898 0 -0.04002703435520258 0 0
          0.02387013079616082 0.002984651802565568 0 -0.05269272289942498 0 0
          0 0.0033979397193679315 0 -0.042096089922974714 0 0
          0.03679920516341617 -0.013824445094086906 0 -0.009539989957632146 0 0
          0.014350358692422124 -0.0033942902749699716 0 0.02206504764369191 0 0
          0.02953037688403512 -0.009628258547544719 0 0.005711761388769075 0 0
          0.02821036268664589 -0.008577517038171618 0 0.023802730782638937 0 0
          0.02616133992630437 -0.005132798591858959 0 0.027871613806018505 0 0
          0.04096867878887292 -0.012740187567918771 0 0.008182754281985352 0 0
          0.013875556997172571 -0.00035946861339287983 0 0.028381605598805683 0 0
          0.03514498454358417 -0.013192286184820342 0 -0.018913587598968724 0 0
          0.03888356201485149 -0.013822317175979166 0 -0.018800816282473397 0 0
          0.03502990575598064 -0.011748733080936933 0 -0.00548003768286414 0 0
          0.03771939370404598 -0.011405579210804977 0 -0.016691163104275725 0 0
          0.0442278836400454 -0.013833560628182886 0 -0.016472517490774143 0 0
          0.008255794222376541 0.002020247677924289 0 0.027995884177333882 0 0
          0.039359178420589586 -0.011684966141681019 0 0.009027263703094866 0 0
          0.0264686825673602 -0.004416340147504867 0 0.029600842841443868 0 0
          0.008246485606428012 -0.000175489106170032 0 0.027506050099878894 0 0
          0.04077064818686495 -0.016048235764125028 0 -0.02408569702693688 0 0
          0.01053953443272225 0.004431964356447805 0 0.0361711136418162 0 0
          0.021996583106544315 -0.0032378184612283853 0 0.02802518075195909 0 0
          -0.00024747992335538694 0.0037271923614354135 0 0.02649553307190987 0 0
          0 0.025572992942989817 0 0.027457722728688586 0 0