<?xml version="1.0"?>
<VTKFile type="UnstructuredGrid" version="0.1" byte_order="LittleEndian" header_type="UInt32" compressor="vtkZLibDataCompressor">
  <UnstructuredGrid>
    <Piece NumberOfPoints="63" NumberOfCells="98">
      <PointData>
        <DataArray type="Float64" Name="Velocity" NumberOfComponents="3" format="ascii" RangeMin="0.3207594536221946" RangeMax="2.461682596505144">
          1.347518949580379 -0.40912910772795813 0 1.5473885806767576 -0.16399553734983455 0
          1.3846889858327318 -0.7099543510640632 0 1.6174749600494136 -0.5542138263390908 0
          1.5685482408516784 -0.3504689568616606 0 1.6494225533031686 0 0
          1.6866331870819626 -0.8409228607058225 0 1.9225108217247613 -0.5514076836521269 0
          1.7378102006101317 -0.09537963500382468 0 2.062262062066103 -0.8760371970038275 0
          1.8810967295561942 -0.22662931548119272 0 2.294886235605658 -0.5979554269564166 0
          1.5122936212425173 -0.550270717548819 0 2.075909449106502 -0.3834345936121821 0
          1.7594258399340037 0 0 2.449819422814689 -0.22234537368857213 0
          1.814777879037212 0.014056262447983033 0 2.2814908547188355 -0.011925761392455998 0
          1.2285884712818202 0.14386522537741908 0 1.9391836154499205 0.08163606502333146 0
          2.451103359729827 0.22797702923203203 0 0.5421200326967535 0.585016021775867 0
          1.915732312588733 0.20582275838412598 0 0.9262186534927459 0.2890694926520609 0
          1.9418322299166528 0.416848146997015 0 0.4528516808269958 -0.03677846624788401 0
          2.36545388447112 0.647035638467738 0 1.7116865617460642 0.18533389719923418 0
          1.109804582620649 0.3329641034456649 0 1.9713249724504616 0.5177509898106222 0
          2.0728663536300824 1.003661326569088 0 0.45562073718958873 0.003842190726663858 0
          0.3945965923771531 0.00926067135311528 0 1.9871006955678399 0.8192935485101422 0
          1.558716881380605 1.2659648229729445 0 1.5120434963924592 0 0
          1.7907222849366484 1.1885102663191438 0 0.9306693110950027 1.4315640109830725 0
          1.5797961064632542 0.5662581787433073 0 1.6984098151722231 0.949611788427843 0
          1.3771924166009712 1.4430625621053201 0 1.4719333190588446 1.1388307706177512 0
          1.278378500211791 0.24654946967576144 0 1.1184727130597862 0 0
          1.3493440114227584 -0.26935609894117796 0 1.444852349230535 0 0
          1.2191476505050822 -0.6922661374744616 0 1.0767593103477868 -0.406037308809165 0
          0.7898964459083677 0.099091749709844 0 0.896939961121213 -0.8214318962271113 0
          1.5404637111166881 -1.145193234050835 0 1.3127130678992038 -1.0066316687566126 0
          1.1776742308260237 0.4467740643005255 0 0.39122936550606996 -0.03379419457697679 0
          1.0809027810031593 1.3714534099474982 0 0.3334702590987972 0.5670346382699206 0
          1.236983667951076 1.0989880828160603 0 0.9034845731065919 1.409674032480627 0
          1.4023383608228985 0.7361214158426405 0 0.3203112038900436 0.016951688721768977 0
          1.0079748673875328 0.1151030379175838 0 1.0000000016092834 0 0
          1.2990283673487057 0.8786912927618012 0
          <InformationKey name="L2_NORM_RANGE" location="vtkDataArray" length="2">
            <Value index="0">
              0.32075945362
            </Value>
            <Value index="1">
              2.4616825965
            </Value>
          </InformationKey>
        </DataArray>
        <DataArray type="Float64" Name="Pressure" format="ascii" RangeMin="-3.636076852467734" RangeMax="0.8216295485712894">
          -0.16728294751682127 -0.15143916944582292 -0.36156078526615115 -0.400658655346167 -0.3453011672836595 -0.1999750846404387
          -1.091958625408907 -0.996971567881136 -0.31596042115113115 -2.1929958551852127 -0.8548611777018172 -1.66867478680495
          -3.536702960286421 -3.088211863863999 -0.11917378901655322 -2.011021557235204 -0.33743586027649947 -1.3153872311624772
          -3.608441114862538 -3.2831565477412807 -2.0285528818567347 -3.115338753702354 -0.6890221283997691 -3.3620267404800117
          -3.0807094520080143 -3.006905564498627 -1.5452185994217187 0.06009469040402239 -3.2912134722214565 -0.5868946545655089
          -2.332054304653595 -1.9532378776474715 -0.1425924454957554 -0.7478686372861404 -2.428234094515216 0.35663299635572887
          -1.0855989287257182 -1.142482570479367 0.09899096601209677 -0.18268833548380198 -0.738790842385818 -0.03596247347861209
          0.5912663948993896 0.771858246794224 0.012743247892625804 -0.03232770154378623 -0.2582032867676158 0.011038685545240397
          -3.636076852467734 -3.247309192070249 -2.3216603194953125 -0.9625011292388551 0.6505871353292018 -2.0651340864416468
          0.07771750717233898 -2.7352182182650964 0.3011769588624971 0.01611095770424165 0.2946307702396151 0.6309778515296337
          0.7863588178825629 0.8216295485712894 0.42517463287050583
        </DataArray>
        <DataArray type="Float64" Name="BTraction" NumberOfComponents="3" format="ascii" RangeMin="0" RangeMax="2.0684816941491375">
          0 0 0 0 0 0
          0 0 0 0 0 0
          0 0 0 -0.0018783527889829434 0.17926971849342235 0
          0 0 0 0 0 0
          0 0 0 0 0 0
          0 0 0 0 0 0
          0 0 0 0 0 0
          -0.0064498495120559685 0.043248229825933716 0 0 0 0
          0 0 0 0 0 0
          0 0 0 0 0 0
          0 0 0 0 0 0
          0 0 0 0 0 0
          0 0 0 -1.7619713300838884 -1.0835467461039692 0
          0 0 0 0 0 0
          0 0 0 0 0 0
          0 0 0 0.5886328750245028 -1.194550645217066 0
          0.16642873716329487 -0.22117523081771207 0 0 0 0
          0 0 0 -0.0025358680716403895 -0.3863497587541285 0
          0 0 0 0 0 0
          0 0 0 0 0 0
          0 0 0 0 0 0
          0 0 0 0.004039813451798867 -0.7411634448422254 0
          0 0 0 0.0013778191591930133 0.06481316709739945 0
          0 0 0 0 0 0
          0 0 0 0 0 0
          0 0 0 0 0 0
          0 0 0 -2.0311862435612693 0.04193423418529036 0
          0 0 0 0 0 0
          0 0 0 0 0 0
          0 0 0 -0.6918121866371044 -0.07848668423727226 0
          0 0 0 0.41320002718498666 -0.4139176350836979 0
          0 0 0
          <InformationKey name="L2_NORM_RANGE" location="vtkDataArray" length="2">
            <Value index="0">
              0
            </Value>
            <Value index="1">
              2.0684816941
            </Value>
          </InformationKey>
        </DataArray>
        <DataArray type="Float64" Name="ALEdispl" NumberOfComponents="3" format="ascii" RangeMin="0" RangeMax="0.6241544299906362">
          0.41535485150556944 -0.05908577824723824 0 0.20383924538467402 -0.004584213843389034 0
          0.46821500157135565 -0.10192857125730075 0 0.46069681707105775 -0.0772478133524696 0
          0.399687821405774 -0.0489216884078893 0 0 0 0
          0.5136355061240471 -0.1118764143000397 0 0.5090562026661101 -0.08916176713846154 0
          0.25248732222084125 -0.01829365060613393 0 0.550857237028008 -0.111836142584117 0
          0.46716795367872704 -0.0613772798762437 0 0.5461179264614625 -0.09072596173329138 0
          0.564465821280878 -0.12264545085323011 0 0.5823323456304528 -0.09876992603166408 0
          0 0 0 0.5699185423603265 -0.0754066163294542 0
          0.321037622818291 -0.027420854673086782 0 0.5396856024775777 -0.05317294748175917 0
          0.5912006755847239 -0.09942312741313632 0 0.6089109507567948 -0.07408471164013673 0
          0.5898404334225881 -0.050181682277333925 0 0.5688221945176002 -0.0898416043923294 0
          0.503488454101466 -0.03281749598604159 0 0.6119992678179943 -0.06531772013345712 0
          0.6232667288900317 -0.03327667554993783 0 0.5875021397952334 -0.049819812533492415 0
          0.596716024490793 -0.012556274089186395 0 0.27176602851553505 -0.013957169410095102 0
          0.6212523516622446 -0.013151615237834756 0 0.5370058347291335 -0.003153580851179858 0
          0.6183389543064273 0.008017437492982045 0 0.5898763892159112 0.02101680483491851 0
          0.48408998758361377 0.024428018650888166 0 0.5741908457230942 0.02104854489290744 0
          0.6074221303900458 0.03663443361853254 0 0 0 0
          0.5905599432179736 0.045239059000443595 0 0.5632099268888069 0.061265143705005985 0
          0.46690901635898313 0.019659525797083396 0 0.5429953469203915 0.04555277108949615 0
          0.5721832875537296 0.06963736445392103 0 0.5425508331171552 0.06766615085203444 0
          0.22612605028054142 -0.010500115324674547 0 0 0 0
          0.33166230822050236 -0.009291258160057402 0 0 0 0
          0.46614832424287955 -0.12442224740032515 0 0.4268244010685754 -0.1110715543085842 0
          0.5501790006725776 -0.12438541303424402 0 0.5233580129230143 -0.14688046448124287 0
          0.5341793855837893 -0.13488581251781995 0 0.5002894992003318 -0.13567266051726257 0
          0.34097614598614245 0.023593713212965748 0 0.48095354594762024 -0.0464075220292203 0
          0.526646825561267 0.0953699715257965 0 0.4983427958843624 -0.11055465663645446 0
          0.5163960223504832 0.0885206267629993 0 0.48511026037788924 0.08480684536697823 0
          0.48499775198225964 0.04919688371659133 0 0.3700313898055669 0.02749044660073029 0
          0.17230203625806992 -0.018337526646230576 0 0 0 0
          0.48594785930669565 0.07267824199559113 0
          <InformationKey name="L2_NORM_RANGE" location="vtkDataArray" length="2">
            <Value index="0">
              0
            </Value>
            <Value index="1">
              0.62415442999
            </Value>
          </InformationKey>
        </DataArray>
        <DataArray type="Float64" Name="ALEveloc" NumberOfComponents="3" format="ascii" RangeMin="0" RangeMax="0.46898998570335615">
          0.3112966935980146 -0.031189864661200217 0 0.1501675404356892 0.0012658246882603311 0
          0.3531394218525361 -0.060167711035518934 0 0.34393662948779347 -0.04335142429969896 0
          0.2954932085494979 -0.02539690092288814 0 0 0 0
          0.38640971027310544 -0.06611585237097678 0 0.3787147355666032 -0.0510991479956977 0
          0.18275702612749367 -0.009328794943772464 0 0.41350692030545844 -0.06640746721722823 0
          0.340643700031241 -0.03623292922918728 0 0.40472235655116284 -0.05376845365677213 0
          0.4288949227308019 -0.07418502205577787 0 0.4356666952299728 -0.059469692205048275 0
          0 0 0 0.4199307120588689 -0.04586064625908795 0
          0.23055228257609262 -0.017805568794894547 0 0.3938934251059145 -0.033762205438906095 0
          0.4480647111943168 -0.061020242332518015 0 0.45366252945541596 -0.04673418999672996 0
          0.4325337818689605 -0.03366615462518746 0 0.4401902987241606 -0.056713659328070876 0
          0.36353203042969673 -0.02374477509827576 0 0.46234653333395737 -0.04329763886717522 0
          0.46266986248739217 -0.025204235952926368 0 0.4528516800982292 -0.03677846618869701 0
          0.4375240636971336 -0.013771491643012591 0 0.19320713770076747 -0.01177898045803738 0
          0.4687422249685482 -0.015242480820690733 0 0.39089563660375504 -0.009258437848329252 0
          0.4591395580465467 -0.0037379332278798458 0 0.4556207364563658 0.0038421907204806843 0
          0.39459659174213524 0.009260671338212234 0 0.42145302342365043 0.003281331010765373 0
          0.4593957965169828 0.011229907278880694 0 0 0 0
          0.4405227724867673 0.015896060710060167 0 0.43551890624042944 0.02564238183713846 0
          0.33841160738642007 0.0023788212586917795 0 0.4011928166707497 0.01601144351383385 0
          0.4338701975562558 0.030177877304695927 0 0.40648682257368973 0.028724366209226082 0
          0.16185995140839093 -0.015267582798831756 0 0 0 0
          0.2479305109500406 0.0011117311818138152 0 0 0 0
          0.35442429501938744 -0.0767850156819454 0 0.3250445916556194 -0.0693812659152574 0
          0.4251301768462419 -0.07641595168800203 0 0.404237566580405 -0.09094220559987803 0
          0.4063170880082865 -0.08190450802586419 0 0.38059081372881964 -0.08310744151242117 0
          0.251845345310571 0.0006820778315241166 0 0.3912293648764711 -0.033794194522592344 0
          0.40543518680365986 0.04781136114458487 0 0.39567941438831444 -0.06995701766782092 0
          0.391362101191322 0.04262937023431995 0 0.38359802830756395 0.04335708552505835 0
          0.3593448930137302 0.016922830790710053 0 0.3203112033745721 0.016951688694488903 0
          0.12736741490656778 -0.023569540869137394 0 0 0 0
          0.36446521357240336 0.03236026836603528 0
          <InformationKey name="L2_NORM_RANGE" location="vtkDataArray" length="2">
            <Value index="0">
              0
            </Value>
            <Value index="1">
              0.4689899857
            </Value>
          </InformationKey>
        </DataArray>
      </PointData>
      <CellData>
        <DataArray type="UInt8" Name="vtkGhostType" format="ascii" RangeMin="0" RangeMax="1">
          1 1 1 0 0 1
          1 1 1 0 0 0
          0 0 0 0 0 0
          0 0 0 1 0 0
          0 0 1 0 0 1
          0 1 1 0 0 0
          0 0 0 1 1 0
          0 1 0 0 0 0
          0 0 0 0 0 0
          0 0 0 1 0 0
          0 0 0 0 0 0
          0 0 1 0 0 0
          0 0 0 0 1 0
          0 0 0 0 0 1
          0 0 0 0 0 0
          0 0 0 0 0 0
          0 0
        </DataArray>
        <DataArray type="Float64" Name="PStrain" NumberOfComponents="6" format="ascii" RangeMin="0.0003158520290815658" RangeMax="0.12627106410734995">
          0.0005981864854609129 0.0005981864854609129 0 0.0005981864854609129 0 0
          0.00038814758759158735 0.00038814758759158735 0 0.00038814758759158735 0 0
          0.0004664579697091267 0.0004664579697091267 0 0.0004664579697091267 0 0
          0.0006187941128793517 0.0006187941128793517 0 0.0006187941128793517 0 0
          0.0008320923885180069 0.0008320923885180069 0 0.0008320923885180069 0 0
          0.0007967825422009672 0.0007967825422009672 0 0.0007967825422009672 0 0
          0.0006481775346197156 0.0006481775346197156 0 0.0006481775346197156 0 0
          0.00044498780941984526 0.00044498780941984526 0 0.00044498780941984526 0 0
          0.0004639638185942322 0.0004639638185942322 0 0.0004639638185942322 0 0
          0.0006654513634816085 0.0006654513634816085 0 0.0006654513634816085 0 0
          0.0008117186209373308 0.0008117186209373308 0 0.0008117186209373308 0 0
          0.0008632956872298815 0.0008632956872298815 0 0.0008632956872298815 0 0
          0.0008165764746171245 0.0008165764746171245 0 0.0008165764746171245 0 0
          0.0005723500197954241 0.0005723500197954241 0 0.0005723500197954241 0 0
          0.000542884762255247 0.000542884762255247 0 0.000542884762255247 0 0
          0.0004844776554594827 0.0004844776554594827 0 0.0004844776554594827 0 0
          0.0005666941828247716 0.0005666941828247716 0 0.0005666941828247716 0 0
          0.0005276428300927283 0.0005276428300927283 0 0.0005276428300927283 0 0
          0.0006106986986889161 0.0006106986986889161 0 0.0006106986986889161 0 0
          0.005017248546748603 0.005017248546748603 0 0.005017248546748603 0 0
          0.0033947295906925938 0.0033947295906925938 0 0.0033947295906925938 0 0
          0.005627048579172322 0.005627048579172322 0 0.005627048579172322 0 0
          0.005808240751460028 0.005808240751460028 0 0.005808240751460028 0 0
          0.002947134820418736 0.002947134820418736 0 0.002947134820418736 0 0
          0.00354908427784601 0.00354908427784601 0 0.00354908427784601 0 0
          0.0026965653582608903 0.0026965653582608903 0 0.0026965653582608903 0 0
          0.0066627246248344065 0.0066627246248344065 0 0.0066627246248344065 0 0
          0.001553893140301572 0.001553893140301572 0 0.001553893140301572 0 0
          0.0013680515004849702 0.0013680515004849702 0 0.0013680515004849702 0 0
          0.0030956430618206 0.0030956430618206 0 0.0030956430618206 0 0
          0.0015923061261262834 0.0015923061261262834 0 0.0015923061261262834 0 0
          0.003390735739526116 0.003390735739526116 0 0.003390735739526116 0 0
          0.0018010090699193647 0.0018010090699193647 0 0.0018010090699193647 0 0
          0.002743198409815055 0.002743198409815055 0 0.002743198409815055 0 0
          0.001615862077396743 0.001615862077396743 0 0.001615862077396743 0 0
          0.0014702822378426753 0.0014702822378426753 0 0.0014702822378426753 0 0
          0.0018078152274390315 0.0018078152274390315 0 0.0018078152274390315 0 0
          0.0011161111400861104 0.0011161111400861104 0 0.0011161111400861104 0 0
          0.0016186606662779333 0.0016186606662779333 0 0.0016186606662779333 0 0
          0.0019523803113635787 0.0019523803113635787 0 0.0019523803113635787 0 0
          0.0011096876713851216 0.0011096876713851216 0 0.0011096876713851216 0 0
          0.001104656901648291 0.001104656901648291 0 0.001104656901648291 0 0
          0.0010203444417027393 0.0010203444417027393 0 0.0010203444417027393 0 0
          0.001122207206554749 0.001122207206554749 0 0.001122207206554749 0 0
          0.0009964709616231706 0.0009964709616231706 0 0.0009964709616231706 0 0
          0.0005328273392604712 0.0005328273392604712 0 0.0005328273392604712 0 0
          0.0007687649125225027 0.0007687649125225027 0 0.0007687649125225027 0 0
          0.0003609592355724977 0.0003609592355724977 0 0.0003609592355724977 0 0
          0.0006677360644414636 0.0006677360644414636 0 0.0006677360644414636 0 0
          0.00043899080908892357 0.00043899080908892357 0 0.00043899080908892357 0 0
          0.07290263285323899 0.07290263285323899 0 0.07290263285323899 0 0
          0.045882831669096985 0.045882831669096985 0 0.045882831669096985 0 0
          0.0486180406644517 0.0486180406644517 0 0.0486180406644517 0 0
          0.05270009239519846 0.05270009239519846 0 0.05270009239519846 0 0
          0.012007739322166706 0.012007739322166706 0 0.012007739322166706 0 0
          0.012776724703186387 0.012776724703186387 0 0.012776724703186387 0 0
          0.06118147201039571 0.06118147201039571 0 0.06118147201039571 0 0
          0.029032212707318913 0.029032212707318913 0 0.029032212707318913 0 0
          0.009274323999023337 0.009274323999023337 0 0.009274323999023337 0 0
          0.0128495466276371 0.0128495466276371 0 0.0128495466276371 0 0
          0.0033265284224451887 0.0033265284224451887 0 0.0033265284224451887 0 0
          0.015852649189822324 0.015852649189822324 0 0.015852649189822324 0 0
          0.012927517392104494 0.012927517392104494 0 0.012927517392104494 0 0
          0.010133466287931516 0.010133466287931516 0 0.010133466287931516 0 0
          0.03282730825688247 0.03282730825688247 0 0.03282730825688247 0 0
          0.010106828418244127 0.010106828418244127 0 0.010106828418244127 0 0
          0.012459353820623183 0.012459353820623183 0 0.012459353820623183 0 0
          0.006266229552746265 0.006266229552746265 0 0.006266229552746265 0 0
          0.015910833265601342 0.015910833265601342 0 0.015910833265601342 0 0
          0.0042237238812993395 0.0042237238812993395 0 0.0042237238812993395 0 0
          0.0035139213891414037 0.0035139213891414037 0 0.0035139213891414037 0 0
          0.020119090008694593 0.020119090008694593 0 0.020119090008694593 0 0
          0.004268436419056844 0.004268436419056844 0 0.004268436419056844 0 0
          0.0013204489155798518 0.0013204489155798518 0 0.0013204489155798518 0 0
          0.0041904070610027 0.0041904070610027 0 0.0041904070610027 0 0
          0.0014622655302103625 0.0014622655302103625 0 0.0014622655302103625 0 0
          0.013832763882072167 0.013832763882072167 0 0.013832763882072167 0 0
          0.007685387741954878 0.007685387741954878 0 0.007685387741954878 0 0
          0.004084836572743913 0.004084836572743913 0 0.004084836572743913 0 0
          0.01766309868657322 0.01766309868657322 0 0.01766309868657322 0 0
          0.004632136914140569 0.004632136914140569 0 0.004632136914140569 0 0
          0.0026318229078285626 0.0026318229078285626 0 0.0026318229078285626 0 0
          0.007664254069584951 0.007664254069584951 0 0.007664254069584951 0 0
          0.007993108264800399 0.007993108264800399 0 0.007993108264800399 0 0
          0.0016442688196698632 0.0016442688196698632 0 0.0016442688196698632 0 0
          0.01070151342287583 0.01070151342287583 0 0.01070151342287583 0 0
          0.0017931368206105707 0.0017931368206105707 0 0.0017931368206105707 0 0
          0.0014722010567469162 0.0014722010567469162 0 0.0014722010567469162 0 0
          0.001764949721264049 0.001764949721264049 0 0.001764949721264049 0 0
          0.0022312137037249066 0.0022312137037249066 0 0.0022312137037249066 0 0
          0.015257453892438603 0.015257453892438603 0 0.015257453892438603 0 0
          0.0016202647395924196 0.0016202647395924196 0 0.0016202647395924196 0 0
          0.0013007829733998311 0.0013007829733998311 0 0.0013007829733998311 0 0
          0.0005551234237554397 0.0005551234237554397 0 0.0005551234237554397 0 0
          0.00028152592794795635 0.00028152592794795635 0 0.00028152592794795635 0 0
          0.0001823572540143315 0.0001823572540143315 0 0.0001823572540143315 0 0
          0.0038265658831793522 0.0038265658831793522 0 0.0038265658831793522 0 0
          0.0036410325729930365 0.0036410325729930365 0 0.0036410325729930365 0 0
          <InformationKey name="L2_NORM_RANGE" location="vtkDataArray" length="2">
            <Value index="0">
              0.00031585202908
            </Value>
            <Value index="1">
              0.12627106411
            </Value>
          </InformationKey>
        </DataArray>
        <DataArray type="Float64" Name="Stress" NumberOfComponents="6" format="ascii" RangeMin="0.000004906528010040954" RangeMax="0.001222455113305829">
          -0.000010410787973161462 0.000007252196503040091 0 -0.000016771090897252777 0 0
          -0.000006176132378299715 2.946204180867186e-7 0 -0.000012366663869594986 0 0
          6.049374628870604e-8 8.701792735375407e-7 0 -0.000018001525726304124 0 0
          -0.000013094164105730419 0.000014727344590829188 0 -0.000003571557389587388 0 0
          -0.000015312825218496352 0.000015236447706610837 0 -0.000013675454919775068 0 0
          -0.000021692937075268 0.000016391983758027106 0 -0.0000015311636691183967 0 0
          -0.000011587649128111346 0.000014011392233163587 0 -0.0000024536396543273606 0 0
          -0.0000074010402518899025 0.000010335852383304192 0 -0.00000621001402183477 0 0
          -0.000013890108304453507 0.00001044301405359667 0 -0.0000027148620813937556 0 0
          -0.000008103966750863369 0.0000060492669658504916 0 -0.000028888499861139953 0 0
          -0.000009410592164009252 0.000013591414314165044 0 -0.000031170358618251267 0 0
          1.5962344154148533e-7 0.0000047854407312474035 0 -0.00003864113888848849 0 0
          -0.000017342730929271025 0.000011745238370828346 0 -0.000028272671275395692 0 0
          -0.000007676277066181337 0.000008593980181323457 0 -0.000018175978475415846 0 0
          -0.000004415715304420316 0.000004629050657805371 0 -0.00002662319981457001 0 0
          -0.0000012956536977295404 0.0000043938421660495066 0 -0.000024971788335626113 0 0
          2.2528824508009857e-7 0.0000032406847561521868 0 -0.0000293570390290218 0 0
          -0.00000716320793259348 0.000001962688508635285 0 -0.00002131769035103421 0 0
          3.0432240327433634e-7 0.0000043775607240231465 0 -0.000028109234687917976 0 0
          -0.00010120064564329479 0.00006622213466631311 0 -0.000032136134882071236 0 0
          -0.00004792983801077779 0.000038466997505425225 0 -0.00006347093705217499 0 0
          -0.00011176196389925362 0.00006555873237346425 0 0.000021949364096744727 0 0
          -0.00011443744674589546 0.00006830325686037672 0 -0.0000325666009729744 0 0
          -0.00006430421831783606 0.00004621685619608134 0 -0.000008169061131517482 0 0
          -0.00006829785270765526 0.00003971888794235914 0 -0.00006109523448508007 0 0
          -0.000052908859966641276 0.00003783793322422007 0 -0.00003589956386916375 0 0
          -0.00011419878977234426 0.00006926801438193138 0 0.000027410924536049677 0 0
          -0.00002100113720213495 0.000019968191417350303 0 -0.000048762206287085306 0 0
          -0.000019075961046229366 0.000021948841979829724 0 -0.00004027950147248381 0 0
          -0.00006278130540550398 0.00004345289749273924 0 0.00002014103547917225 0 0
          -0.000019529530393401195 0.000012487047410842087 0 -0.00004603787375214104 0 0
          -0.00006818112112009735 0.00004899612649015681 0 -0.000008515797619786236 0 0
          -0.00004188319598784207 0.00003274740500809636 0 -7.471211233312868e-8 0 0
          -0.000056589085306839334 0.00003626801911323775 0 -0.000034326832639772624 0 0
          -0.00003501737968455674 0.00002959614538065865 0 -0.000013709521948977342 0 0
          -0.0000317061333132706 0.000019559572843355142 0 -0.000037679419007647273 0 0
          -0.00003953081944610593 0.0000338829784034395 0 -0.000015663804689876977 0 0
          -0.000028716668895095218 0.000024270512098698688 0 -0.000007743665402296294 0 0
          -0.00003130131501314802 0.000022976815890430868 0 -0.00003313935424965373 0 0
          -0.000039457514587919664 0.000034707089878198096 0 -0.0000013871461509387617 0 0
          -0.000028235338881501504 0.000022322307568106865 0 2.07304683817934e-7 0 0
          -0.000026523302901110264 0.00002443715432378629 0 -0.000008540143664286806 0 0
          -0.000023550011042903364 0.00001795444403433481 0 -0.000018339633389486396 0 0
          -0.000020482237137222244 0.000021412096675125795 0 -0.0000015394570784858594 0 0
          -0.000020883043401613896 0.000018365455180683433 0 -0.000019084822915120553 0 0
          0.000006459980194048471 -1.52789198365938e-7 0 -0.00002569499408187483 0 0
          0.0000072709051211034096 -0.000009031240192801923 0 -0.000030805325849272946 0 0
          0.000003649141119870722 0.0000021560285479944977 0 -0.00001798476218996265 0 0
          0.000024857536431170886 -0.000006505428164222911 0 -0.000020595972372447408 0 0
          1.367991077312787e-7 0.0000019678025496730086 0 -0.000019715858520305977 0 0
          -0.00016762981983477378 0.00008909281288151308 0 -0.0011974389828486708 0 0
          -0.00035770070379431115 0.0006135362314018527 0 -0.0003401949178539484 0 0
          0.0005901661149544403 -0.0005602455374357556 0 -0.0004226058967272506 0 0
          -0.0005894850377626258 0.0002916010227632885 0 -0.0000531423229745855 0 0
          -0.00009894390996145862 0.00006222717858077445 0 -0.00023408203453451494 0 0
          0.00016152383651686812 -0.000033744723739933334 0 -0.00025181180080294176 0 0
          0.0011754486599905474 -0.00030498050320528706 0 -0.00014037038305370368 0 0
          -0.00015512534055082996 -0.00007696763776227108 0 0.0004505823743333996 0 0
          -0.00010426302223961838 0.00011683270505866112 0 -0.00012896345907914783 0 0
          0.00005991704069268547 0.00001089096805209478 0 -0.0002344714359176901 0 0
          0.0000154054236742458 0.0000012936227920931701 0 -0.00009422904081214302 0 0
          0.0004647588859179488 -0.00012970236366778012 0 -0.000004705803622235231 0 0
          -0.00022185732451856106 0.00010996684216347762 0 0.00001694504052004439 0 0
          0.00022999443956694672 -0.00010147731187788924 0 -0.00015755316533377136 0 0
          0.00041616984775854406 -0.00004636239815462203 0 0.0005175562854270421 0 0
          -0.0001716774513766327 0.00008659153076119133 0 -0.00009726690790001312 0 0
          0.00036377485893884125 -0.00009072710140517176 0 -0.00014942250084043002 0 0
          0.00022956883353850388 -0.00007567389377810736 0 -0.000059416464326683156 0 0
          -0.0002240322137748438 0.0001157507670900436 0 0.000022672977462893367 0 0
          0.00009664352185650402 -0.000024668835140965123 0 -0.00010655582618208715 0 0
          -0.00004059624257368586 0.00002234830754770199 0 -0.00008841618820271643 0 0
          0.0005580724339598499 -0.00014523910848059467 0 -8.159353904259634e-8 0 0
          -0.000007876758144795956 0.00001814081511683123 0 -0.0001098991344274337 0 0
          0.0000010817067564088108 0.000003455295765599254 0 -0.00004743038241799403 0 0
          0.00006255651677277926 -0.00001777164381171951 0 -0.00010745762009499186 0 0
          0.00001786925862334117 -0.000010647092194661466 0 -0.00005356017065377748 0 0
          -0.0002024610343633927 0.00004658924557260675 0 0.00019505003326291447 0 0
          0.0003164318610231733 -0.0000948694270570682 0 0.000012054270982524121 0 0
          0.00011492499331666113 -0.00004173130410763074 0 -0.00008424777780500569 0 0
          0.0004973176574793013 -0.00009180562820156651 0 0.00024646566548390547 0 0
          0.00016698698769369603 -0.00004093685164700296 0 -0.00008185152466885633 0 0
          0.00010491268017910082 -0.00003760623369977391 0 -0.00003654511199467432 0 0
          0.0003008291630428051 -0.00007335011397564977 0 -0.000054647930539683794 0 0
          0.000011125227610803732 -0.000016035128849837018 0 0.00010294477374790284 0 0
          0.00004958067187218591 -0.000013663449388233651 0 -0.00004795351093143557 0 0
          0.0000861505030564257 -0.000009938086017269515 0 0.00015460715483500793 0 0
          0.000018989282986087963 -0.000002697019824787736 0 -0.00005875728043766813 0 0
          0.000019297984401506384 -0.00001611526896039579 0 -0.00005069107576435187 0 0
          -0.000019454362644174683 0.00001060817675660784 0 -0.00005103277320218487 0 0
          0.00007641860285340921 -0.000022003493784033877 0 -0.00005190765219657874 0 0
          0.0001297386758746908 -0.000020076182694228048 0 0.0002464470815542858 0 0
          0.000019338516716043132 -0.000004859355928266317 0 -0.000054030377006215955 0 0
          0.00004799819110209685 -0.00001879387862994714 0 -0.000028798167221466137 0 0