<?xml version="1.0"?>
<VTKFile type="UnstructuredGrid" version="0.1" byte_order="LittleEndian" header_type="UInt32" compressor="vtkZLibDataCompressor">
  <UnstructuredGrid>
    <Piece NumberOfPoints="63" NumberOfCells="98">
      <PointData>
        <DataArray type="Float64" Name="Velocity" NumberOfComponents="3" format="ascii" RangeMin="0.28170652551296144" RangeMax="2.5145326337074048">
          1.3233039215845637 -0.3923655306736969 0 1.519701816680129 -0.16049610934849964 0
          1.3524740030123417 -0.6530982709332822 0 1.5470811174524544 -0.5248336987456058 0
          1.5469211335024164 -0.34308478816659743 0 1.618188477129061 0 0
          1.6383356252046697 -0.808788014780319 0 1.831091723587972 -0.5333503161123749 0
          1.7106839884558003 -0.10281478107689805 0 2.075066168687427 -0.954413481447559 0
          1.844053918156569 -0.22982337231323552 0 2.256934133630436 -0.6534098669704653 0
          1.6042723406696706 -0.7671528720654175 0 2.1983076900134675 -0.5350940198878735 0
          1.7463492699938294 0 0 2.4667229924370018 -0.29616809262567523 0
          1.7960422509479783 -0.006081499492039334 0 2.3030602848941935 -0.05869207988429707 0
          1.3575312450573043 -0.009676697747487273 0 2.1272033341914334 -0.0033009378853248923 0
          2.5081864202875144 0.178536402632071 0 0.5185637094478635 0.5682639590434692 0
          1.9017393159578446 0.1528744742289301 0 1.0102553180959097 0.29256123086951386 0
          2.099345357092967 0.41546539487437806 0 0.46483727824632665 -0.060810643018359894 0
          2.419822806383387 0.6210841071962505 0 1.7240541323994243 0.15368485713221106 0
          1.162803781624405 0.36067785769457467 0 1.97568962311952 0.4641280089754047 0
          2.1834422595066583 1.004209708280671 0 0.4679095790424999 0.00045779497431593666 0
          0.376444474924712 0.004661522481018761 0 2.0063150735685253 0.7702499532174311 0
          1.5902688166889165 1.2869205760149593 0 1.5488941694418998 0 0
          1.853772422077961 1.16585459909712 0 0.9088858127696327 1.4738070486693657 0
          1.5933332116279 0.5315413826337781 0 1.7161795214130438 0.9184933319594477 0
          1.3695255959436792 1.4514712704703 0 1.500092180960797 1.1299716707113285 0
          1.3166974357647387 0.2518527327071287 0 1.148853216857313 0 0
          1.3300031448256298 -0.2591453064891607 0 1.4178480350302582 0 0
          1.208776778408181 -0.6386252096253401 0 1.0769649838356736 -0.389855109114665 0
          0.8150825804817557 -0.12485642963459415 0 0.9394543760819669 -1.0157534601547793 0
          1.5634062628216598 -1.2143680376028827 0 1.307522814309876 -0.9479901980063494 0
          1.192394455517344 0.4860173353220073 0 0.37298549843880313 -0.05550818722354249 0
          1.0482136011128738 1.3750886945291467 0 0.2815448899710688 0.45359830531630185 0
          1.225685954000543 1.1070496189018364 0 0.8727401300939109 1.4392589130588862 0
          1.4184742089367408 0.7354493987288615 0 0.2815912490584939 0.008058223765944414 0
          1.0122701940165404 0.14073405381903425 0 1.000000176740356 0 0
          1.3222449834887051 0.8949263204301876 0
          <InformationKey name="L2_NORM_RANGE" location="vtkDataArray" length="2">
            <Value index="0">
              0.28170652551
            </Value>
            <Value index="1">
              2.5145326337
            </Value>
          </InformationKey>
        </DataArray>
        <DataArray type="Float64" Name="Pressure" format="ascii" RangeMin="-4.408017468250005" RangeMax="0.05599262057512146">
          -0.5316596086101247 -0.575620454469533 -0.6828470744426992 -0.7639985183182425 -0.7512933906538132 -0.6614596365807837
          -1.3246028444454563 -1.3249211190040053 -0.8080046569305546 -2.4130371531231245 -1.328879577875815 -2.00056426759288
          -3.967403908748442 -3.580845859320496 -0.729252413653514 -2.478913735809198 -0.9290775274710188 -1.856823907958112
          -4.408017468250005 -4.084455371999437 -2.675082299618601 -3.754908368542331 -1.3309736241105332 -4.24559915133367
          -3.970322607391837 -3.796910815470489 -2.2830308020421306 -0.6426575137529764 -4.298887805028454 -1.3086952765232667
          -3.2348121447392786 -2.9905320431466307 -1.108021130256418 -1.5308706786474657 -3.4895140234305257 -0.37491184130669586
          -1.9897251672243577 -2.247721183096989 -0.6650658322522152 -1.0075380697726175 -1.7083835415227127 -0.9112172160710683
          -0.15963336363257752 0.025693693258357873 -0.3606131384320323 -0.43758102101389607 -0.5577211181129564 -0.32297862104335073
          -4.203677210673183 -3.4527153234205987 -2.434530521165124 -1.151237464078503 -0.13752877039024652 -2.52241193170765
          -0.8982330912510788 -3.114604666405141 -0.5966505383027325 -1.0300463164835894 -0.5224472256310972 -0.25420312968980496
          0.01900255700280991 0.05599262057512146 -0.43515806659228196
        </DataArray>
        <DataArray type="Float64" Name="BTraction" NumberOfComponents="3" format="ascii" RangeMin="0" RangeMax="2.6063094920684073">
          0 0 0 0 0 0
          0 0 0 0 0 0
          0 0 0 -0.0017133579937233692 0.6570379297092575 0
          0 0 0 0 0 0
          0 0 0 0 0 0
          0 0 0 0 0 0
          0 0 0 0 0 0
          -0.006246357486504325 0.6529366823177046 0 0 0 0
          0 0 0 0 0 0
          0 0 0 0 0 0
          0 0 0 0 0 0
          0 0 0 0 0 0
          0 0 0 -2.1713783216002596 -1.4415149506440506 0
          0 0 0 0 0 0
          0 0 0 0 0 0
          0 0 0 1.188809201291503 -1.6118503228834438 0
          1.1321062975400582 -0.27598964833964673 0 0 0 0
          0 0 0 -0.0028739759371398757 0.3299505712690295 0
          0 0 0 0 0 0
          0 0 0 0 0 0
          0 0 0 0 0 0
          0 0 0 0.004183039257224204 0.0037846269521531945 0
          0 0 0 0.0013913901250823676 0.4734143578416513 0
          0 0 0 0 0 0
          0 0 0 0 0 0
          0 0 0 0 0 0
          0 0 0 -2.5084936125251533 0.04176303849160604 0
          0 0 0 0 0 0
          0 0 0 0 0 0
          0 0 0 0.21173116640524273 -0.13923996492947768 0
          0 0 0 0.028733645931053563 -0.03646381996044585 0
          0 0 0
          <InformationKey name="L2_NORM_RANGE" location="vtkDataArray" length="2">
            <Value index="0">
              0
            </Value>
            <Value index="1">
              2.6063094921
            </Value>
          </InformationKey>
        </DataArray>
        <DataArray type="Float64" Name="ALEdispl" NumberOfComponents="3" format="ascii" RangeMin="0" RangeMax="0.46970259596089736">
          0.31158928697289795 -0.048689156693504834 0 0.15378339857277762 -0.005006155406142478 0
          0.3505018609538436 -0.08187266757879443 0 0.34605127390845997 -0.06279733858590326 0
          0.3011900852226081 -0.04045605476692658 0 0 0 0
          0.3848322693663453 -0.08983779684304743 0 0.38281795747724234 -0.07212871780656231 0
          0.1915683135116767 -0.015184052291543107 0 0.41302159692618856 -0.08970032017837426 0
          0.3536200536683134 -0.049299636799847946 0 0.4112104742777416 -0.07280314384770066 0
          0.42150084703727736 -0.09791711016797083 0 0.4371101138871285 -0.078946695296648 0
          0 0 0 0.42994163834070354 -0.06011973424309154 0
          0.2441868619595935 -0.021485665074788603 0 0.40838779410893955 -0.041918879002123814 0
          0.441845771853285 -0.07908304663563032 0 0.4576901076049894 -0.05850664830789341 0
          0.44566250613293457 -0.03895963073560477 0 0.42209209494287997 -0.07093705128297244 0
          0.3823111106249004 -0.024902570953283007 0 0.45788375670667514 -0.050885173844398716 0
          0.46904344139423426 -0.024875263565629045 0 0.4365515797624903 -0.037560323803926744 0
          0.4508746699250818 -0.007965776874848866 0 0.20736364928194592 -0.010030842590749309 0
          0.4650049433393952 -0.008070788297604511 0 0.4067072891945485 -0.00006743490173677395 0
          0.4652924349575783 0.00926341523560866 0 0.4380028103971226 0.01973607459475828 0
          0.35255779033623535 0.02134112820481742 0 0.43370650458187743 0.01995476788931898 0
          0.45429019821771816 0.03289113119223897 0 0 0 0
          0.4437190190557178 0.039940372097090206 0 0.4180369581419971 0.0527176830926265 0
          0.3541051472301765 0.01886658537751947 0 0.4092644080301417 0.040215623251551535 0
          0.427559888368311 0.059578072019022384 0 0.407055225592592 0.05809136211562575 0
          0.17217273314441112 -0.005410921058397294 0 0 0 0
          0.24901880457048883 -0.009661835220662007 0 0 0 0
          0.34800689256975037 -0.09882724217301002 0 0.3184762038500356 -0.08794446567016508 0
          0.4084689417238304 -0.09891342913824336 0 0.3886121573962127 -0.11656639594795018 0
          0.39874035624769383 -0.10758430984253188 0 0.3734258946240586 -0.10797018001312218 0
          0.25702769754928545 0.023366353935791045 0 0.35054375765546325 -0.03514279052168952 0
          0.3915017632933804 0.07943285114426821 0 0.3664496577549243 -0.08723565074718082 0
          0.3859419886200426 0.07431083668489263 0 0.3572442509420346 0.07035448352529211 0
          0.36521612097768286 0.043555940119687976 0 0.2632609886807095 0.021839883702567325 0
          0.129846231289214 -0.010481013023184778 0 0 0 0
          0.36445945478256114 0.061891485873579365 0
          <InformationKey name="L2_NORM_RANGE" location="vtkDataArray" length="2">
            <Value index="0">
              0
            </Value>
            <Value index="1">
              0.46970259596
            </Value>
          </InformationKey>
        </DataArray>
        <DataArray type="Float64" Name="ALEveloc" NumberOfComponents="3" format="ascii" RangeMin="0" RangeMax="0.5021591813993633">
          0.3290512788384725 -0.06236893785049756 0 0.16182923476930655 -0.011410484184145003 0
          0.3708369128908564 -0.09939195607104007 0 0.3658009721841389 -0.07930428935868951 0
          0.31791238288503143 -0.05424565033750542 0 0 0 0
          0.4076815560775452 -0.1100843318001154 0 0.4053516920993042 -0.09139316709504394 0
          0.20212553554250678 -0.023200270405449655 0 0.43813060883094257 -0.11188674825845227 0
          0.37457085232275333 -0.06598628144803391 0 0.43613578142023823 -0.09371808345758229 0
          0.4479159576401779 -0.12198320435488882 0 0.4644260535548367 -0.10208273084072977 0
          0 0 0 0.4566400156873224 -0.08092325787597789 0
          0.2588242368547951 -0.03011631279247863 0 0.4338103655635035 -0.05942003979425478 0
          0.47016549047028167 -0.10364515734646113 0 0.48722537857286896 -0.08149246262838811 0
          0.47427990150966626 -0.058594672468943135 0 0.4495375314900958 -0.0958447061884464 0
          0.40616628363403495 -0.03840890777665836 0 0.4879361343051958 -0.07465076161551792 0
          0.5000621131339287 -0.04584459043015486 0 0.46483719609083507 -0.060810632270667075 0
          0.48040077046355467 -0.0256653708590602 0 0.21922611368549283 -0.013766220823962148 0
          0.49602102064313724 -0.028912483445749065 0 0.43290861062795283 -0.01465821724498623 0
          0.49628997031633315 -0.009464084918753883 0 0.4679094963440088 0.0004577948934051043 0
          0.37644440839179316 0.004661521657139761 0 0.46271481081498744 0.003924726281464522 0
          0.48492648572783925 0.014856796225827876 0 0 0 0
          0.47396301589468126 0.02351409982366362 0 0.4463644666056472 0.036232510618271166 0
          0.37753308407391417 0.006639781869472103 0 0.43762843807133445 0.025525487071828112 0
          0.4569279930771031 0.044279776463626186 0 0.43570668650058164 0.043947966825312434 0
          0.18256134515379574 -0.012988606277098743 0 0 0 0
          0.26234433613091507 -0.018147526942574762 0 0 0 0
          0.36850993650018515 -0.11672533673096541 0 0.3369618092986897 -0.10295794366083466 0
          0.4348112953286678 -0.12393986219861977 0 0.4133096776225281 -0.14073534500826645 0
          0.4232278865719037 -0.13032019030980518 0 0.39590026552167223 -0.1286130475554358 0
          0.2775091629040496 0.011927298254162666 0 0.3729854325172248 -0.05550817741300744 0
          0.41806211146057404 0.0661548666121923 0 0.3903328742296269 -0.1114209655577047 0
          0.413104616188511 0.06179166147343315 0 0.3810926339521007 0.05629437188143016 0
          0.3914960144147902 0.03017140051485004 0 0.2815911992899651 0.008058222341731328 0
          0.14120223953519953 -0.01930114832803023 0 0 0 0
          0.3908686218998346 0.049597781221144666 0
          <InformationKey name="L2_NORM_RANGE" location="vtkDataArray" length="2">
            <Value index="0">
              0
            </Value>
            <Value index="1">
              0.5021591814
            </Value>
          </InformationKey>
        </DataArray>
      </PointData>
      <CellData>
        <DataArray type="UInt8" Name="vtkGhostType" format="ascii" RangeMin="0" RangeMax="1">
          1 1 1 0 0 1
          1 1 1 0 0 0
          0 0 0 0 0 0
          0 0 0 1 0 0
          0 0 1 0 0 1
          0 1 1 0 0 0
          0 0 0 1 1 0
          0 1 0 0 0 0
          0 0 0 0 0 0
          0 0 0 1 0 0
          0 0 0 0 0 0
          0 0 1 0 0 0
          0 0 0 0 1 0
          0 0 0 0 0 1
          0 0 0 0 0 0
          0 0 0 0 0 0
          0 0
        </DataArray>
        <DataArray type="Float64" Name="PStrain" NumberOfComponents="6" format="ascii" RangeMin="0.0001691443257505218" RangeMax="0.07348952241068445">
          0.00032374094366650094 0.00032374094366650094 0 0.00032374094366650094 0 0
          0.00020934561145269137 0.00020934561145269137 0 0.00020934561145269137 0 0
          0.0002518897274406657 0.0002518897274406657 0 0.0002518897274406657 0 0
          0.0003344408236183058 0.0003344408236183058 0 0.0003344408236183058 0 0
          0.0004498576266398355 0.0004498576266398355 0 0.0004498576266398355 0 0
          0.0004312797557443056 0.0004312797557443056 0 0.0004312797557443056 0 0
          0.0003476480105579121 0.0003476480105579121 0 0.0003476480105579121 0 0
          0.000238585048500878 0.000238585048500878 0 0.000238585048500878 0 0
          0.00024998321288438943 0.00024998321288438943 0 0.00024998321288438943 0 0
          0.0003678606250730616 0.0003678606250730616 0 0.0003678606250730616 0 0
          0.00044319337878745684 0.00044319337878745684 0 0.00044319337878745684 0 0
          0.00047412844396172175 0.00047412844396172175 0 0.00047412844396172175 0 0
          0.00044710447764912114 0.00044710447764912114 0 0.00044710447764912114 0 0
          0.0003098816717719964 0.0003098816717719964 0 0.0003098816717719964 0 0
          0.0002981145645505166 0.0002981145645505166 0 0.0002981145645505166 0 0
          0.0002661821529536135 0.0002661821529536135 0 0.0002661821529536135 0 0
          0.000309068489653399 0.000309068489653399 0 0.000309068489653399 0 0
          0.00028751251324266096 0.00028751251324266096 0 0.00028751251324266096 0 0
          0.00033231297856430963 0.00033231297856430963 0 0.00033231297856430963 0 0
          0.0027887970404613742 0.0027887970404613742 0 0.0027887970404613742 0 0
          0.0018864830878569023 0.0018864830878569023 0 0.0018864830878569023 0 0
          0.0031313396321224667 0.0031313396321224667 0 0.0031313396321224667 0 0
          0.003229642501813974 0.003229642501813974 0 0.003229642501813974 0 0
          0.00162366251557637 0.00162366251557637 0 0.00162366251557637 0 0
          0.0019813337997383797 0.0019813337997383797 0 0.0019813337997383797 0 0
          0.0014855452774401947 0.0014855452774401947 0 0.0014855452774401947 0 0
          0.0036774586897014754 0.0036774586897014754 0 0.0036774586897014754 0 0
          0.0008666056215591081 0.0008666056215591081 0 0.0008666056215591081 0 0
          0.0007543660377286967 0.0007543660377286967 0 0.0007543660377286967 0 0
          0.0017066718863544877 0.0017066718863544877 0 0.0017066718863544877 0 0
          0.0008798778840124744 0.0008798778840124744 0 0.0008798778840124744 0 0
          0.0018642760589851742 0.0018642760589851742 0 0.0018642760589851742 0 0
          0.000985168727656908 0.000985168727656908 0 0.000985168727656908 0 0
          0.0015144629287993402 0.0015144629287993402 0 0.0015144629287993402 0 0
          0.0008830559144427342 0.0008830559144427342 0 0.0008830559144427342 0 0
          0.0008136953664272783 0.0008136953664272783 0 0.0008136953664272783 0 0
          0.0009899247129629065 0.0009899247129629065 0 0.0009899247129629065 0 0
          0.0006069498832976074 0.0006069498832976074 0 0.0006069498832976074 0 0
          0.0008880535872630056 0.0008880535872630056 0 0.0008880535872630056 0 0
          0.001062983179409545 0.001062983179409545 0 0.001062983179409545 0 0
          0.0006031754735761406 0.0006031754735761406 0 0.0006031754735761406 0 0
          0.0005998045717054113 0.0005998045717054113 0 0.0005998045717054113 0 0
          0.0005561366295991449 0.0005561366295991449 0 0.0005561366295991449 0 0
          0.0006053088570935321 0.0006053088570935321 0 0.0006053088570935321 0 0
          0.0005418426334245716 0.0005418426334245716 0 0.0005418426334245716 0 0
          0.0002938709406055234 0.0002938709406055234 0 0.0002938709406055234 0 0
          0.00041833286696916746 0.00041833286696916746 0 0.00041833286696916746 0 0
          0.0001968652845720299 0.0001968652845720299 0 0.0001968652845720299 0 0
          0.0003643791253591128 0.0003643791253591128 0 0.0003643791253591128 0 0
          0.0002368342482428397 0.0002368342482428397 0 0.0002368342482428397 0 0
          0.0424291955464257 0.0424291955464257 0 0.0424291955464257 0 0
          0.02624449690387715 0.02624449690387715 0 0.02624449690387715 0 0
          0.027758734549644573 0.027758734549644573 0 0.027758734549644573 0 0
          0.030075684550817522 0.030075684550817522 0 0.030075684550817522 0 0
          0.006881095142717768 0.006881095142717768 0 0.006881095142717768 0 0
          0.007292648354283867 0.007292648354283867 0 0.007292648354283867 0 0
          0.034579576807890006 0.034579576807890006 0 0.034579576807890006 0 0
          0.0170366159977331 0.0170366159977331 0 0.0170366159977331 0 0
          0.005213167051296604 0.005213167051296604 0 0.005213167051296604 0 0
          0.0072649518562039675 0.0072649518562039675 0 0.0072649518562039675 0 0
          0.0018779477847096437 0.0018779477847096437 0 0.0018779477847096437 0 0
          0.00882925091173284 0.00882925091173284 0 0.00882925091173284 0 0
          0.007283049823175397 0.007283049823175397 0 0.007283049823175397 0 0
          0.005647462258392516 0.005647462258392516 0 0.005647462258392516 0 0
          0.019131307550385498 0.019131307550385498 0 0.019131307550385498 0 0
          0.0056946706796368405 0.0056946706796368405 0 0.0056946706796368405 0 0
          0.006925123623717394 0.006925123623717394 0 0.006925123623717394 0 0
          0.0034449185720646152 0.0034449185720646152 0 0.0034449185720646152 0 0
          0.008923406607505277 0.008923406607505277 0 0.008923406607505277 0 0
          0.0023633206630986167 0.0023633206630986167 0 0.0023633206630986167 0 0
          0.0019851482504527926 0.0019851482504527926 0 0.0019851482504527926 0 0
          0.011190937582004326 0.011190937582004326 0 0.011190937582004326 0 0
          0.002387510344525469 0.002387510344525469 0 0.002387510344525469 0 0
          0.0007394633172900661 0.0007394633172900661 0 0.0007394633172900661 0 0
          0.0023343198108488803 0.0023343198108488803 0 0.0023343198108488803 0 0
          0.0008153218771834073 0.0008153218771834073 0 0.0008153218771834073 0 0
          0.007905864931548646 0.007905864931548646 0 0.007905864931548646 0 0
          0.0042323546501203575 0.0042323546501203575 0 0.0042323546501203575 0 0
          0.0022483652208255744 0.0022483652208255744 0 0.0022483652208255744 0 0
          0.009973380438562643 0.009973380438562643 0 0.009973380438562643 0 0
          0.0025514272856842447 0.0025514272856842447 0 0.0025514272856842447 0 0
          0.0014381767754499523 0.0014381767754499523 0 0.0014381767754499523 0 0
          0.004212631032089157 0.004212631032089157 0 0.004212631032089157 0 0
          0.004441666839858481 0.004441666839858481 0 0.004441666839858481 0 0
          0.0009075189153652415 0.0009075189153652415 0 0.0009075189153652415 0 0
          0.005836277530029306 0.005836277530029306 0 0.005836277530029306 0 0
          0.000994080466355681 0.000994080466355681 0 0.000994080466355681 0 0
          0.0008113035185974625 0.0008113035185974625 0 0.0008113035185974625 0 0
          0.0009800995902968681 0.0009800995902968681 0 0.0009800995902968681 0 0
          0.0012214336135945767 0.0012214336135945767 0 0.0012214336135945767 0 0
          0.008526031349761922 0.008526031349761922 0 0.008526031349761922 0 0
          0.0008945358981462487 0.0008945358981462487 0 0.0008945358981462487 0 0
          0.0007059034684647055 0.0007059034684647055 0 0.0007059034684647055 0 0
          0.0002994739764648161 0.0002994739764648161 0 0.0002994739764648161 0 0
          0.0001514131634919864 0.0001514131634919864 0 0.0001514131634919864 0 0
          0.00009765552200396151 0.00009765552200396151 0 0.00009765552200396151 0 0
          0.0020878257244733686 0.0020878257244733686 0 0.0020878257244733686 0 0
          0.001992123279406846 0.001992123279406846 0 0.001992123279406846 0 0
          <InformationKey name="L2_NORM_RANGE" location="vtkDataArray" length="2">
            <Value index="0">
              0.00016914432575
            </Value>
            <Value index="1">
              0.073489522411
            </Value>
          </InformationKey>
        </DataArray>
        <DataArray type="Float64" Name="Stress" NumberOfComponents="6" format="ascii" RangeMin="0.0000019589786352470193" RangeMax="0.0005376915945208095">
          -0.00000430915960179798 0.0000031833521258183217 0 -0.000006776248317636768 0 0
          -0.0000025558915794373464 2.3030864144229424e-7 0 -0.0000050014778455911615 0 0
          3.567367721356108e-8 5.131521260719938e-7 0 -0.0000073337973608063175 0 0
          -0.000005416773612347497 0.000006162436587408867 0 -0.000001287208480608256 0 0
          -0.000006333096553617054 0.000006502578813975841 0 -0.000005396102007052734 0 0
          -0.000008852205126419044 0.000006798055233788368 0 -3.919300967428756e-7 0 0
          -0.000004646427655490684 0.000005759503969935561 0 -8.174722290354038e-7 0 0
          -0.0000030349058184435777 0.0000043711463436757345 0 -0.000002402522544395795 0 0
          -0.000005663593357155417 0.000004334107790676997 0 -9.698228330624972e-7 0 0
          -0.000003537861322456098 0.00000265547835377214 0 -0.000012206171031327442 0 0
          -0.0000040164727546750154 0.000005963360511446049 0 -0.00001288595640371739 0 0
          -8.055803051074104e-9 0.0000019853082148720685 0 -0.000016146062801324312 0 0
          -0.000007365467654717055 0.000005175603868726584 0 -0.000011674065928619423 0 0
          -0.000003237221252960531 0.0000037609267195319713 0 -0.000007393691795098725 0 0
          -0.0000018955550492563139 0.0000019951598892931717 0 -0.000011158800188802603 0 0
          -6.024259355183388e-7 0.0000018912652628163318 0 -0.000010485732185627914 0 0
          8.830485315139159e-8 0.0000012702313491777099 0 -0.00001221674994805857 0 0
          -0.0000030392108743132636 9.67082285418672e-7 0 -0.000008803956821292155 0 0
          1.374489871885573e-7 0.000001977150815712324 0 -0.000011605221382533504 0 0
          -0.00004375116562727795 0.00002956357096067923 0 -0.000012468793129928065 0 0
          -0.00002107408720003352 0.00001726452047851021 0 -0.000026569147834300502 0 0
          -0.00004731488794568749 0.000028618508088019753 0 0.000010878080824111027 0 0
          -0.0000484070168005251 0.000029806889831968674 0 -0.000012212867717050223 0 0
          -0.000027262437964991765 0.000020061894158982035 0 -0.0000025073018299967836 0 0
          -0.000029668938749937026 0.000017660880743097415 0 -0.00002554893415494101 0 0
          -0.000022683516662964808 0.000016712781848991252 0 -0.000014387156363077894 0 0
          -0.000046042517519759425 0.000029060930855634018 0 0.00001363504915511227 0 0
          -0.000009279333342061718 0.00000890301897673497 0 -0.000020710148464428224 0 0
          -0.000008400335022406484 0.000009773474066933766 0 -0.000016814399875930605 0 0
          -0.00002601069754946297 0.000018316085336580706 0 0.00000940626046245165 0 0
          -0.000008513553057170925 0.000005611939197432848 0 -0.000019314502421692434 0 0
          -0.00002815163967605567 0.000020845183035636152 0 -0.0000024482885856853317 0 0
          -0.000017431166548704742 0.000013886178655417106 0 5.790147445486145e-7 0 0
          -0.00002403404666689384 0.00001592380194586403 0 -0.000013709078166277213 0 0
          -0.0000147789305756874 0.000012806496468730554 0 -0.000005217490214226302 0 0
          -0.00001365664694266564 0.00000867771266789882 0 -0.00001567866063478367 0 0
          -0.000016459467158904604 0.000014457521111253338 0 -0.000005941798234046128 0 0
          -0.000011947706513672437 0.000010313998637533111 0 -0.000002807963160062639 0 0
          -0.000013260788631077712 0.00001010645628546247 0 -0.000013461893925345858 0 0
          -0.000016029301934770272 0.000014501494983209455 0 8.204143176022789e-8 0 0
          -0.000011637866450415185 0.000009322852414389682 0 4.4765627948408545e-7 0 0
          -0.000010912446879044768 0.000010322877154170714 0 -0.0000031518106152324463 0 0
          -0.00000980416765431813 0.000007737359257497204 0 -0.000007319970579401555 0 0
          -0.000008211914357258846 0.000008840383083463946 0 -2.922183516807919e-7 0 0
          -0.000008805466098609383 0.000008008356538344403 0 -0.000007643459281984532 0 0
          0.000002738854393498045 -1.8638799271834663e-7 0 -0.000010875384850202105 0 0
          0.000003044245074156921 -0.000004119104295704624 0 -0.00001275177581235584 0 0
          0.0000015313630311605567 7.910351109995831e-7 0 -0.000007531033706246859 0 0
          0.000010438533477434219 -0.0000029948745774474925 0 -0.000008500304082566464 0 0
          3.8032026861443606e-8 5.470760786992274e-7 0 -0.000008098760335802822 0 0
          -0.00005937898732764611 0.00003534037231619855 0 -0.0005332330117001631 0 0
          -0.0001577295205635527 0.0002712181091439294 0 -0.00014651957013931866 0 0
          0.0002609560004246269 -0.0002549603565998458 0 -0.0001771297556757533 0 0
          -0.000248119255946584 0.0001291348991995684 0 -0.00002221627447630937 0 0
          -0.00004371766312340332 0.00002747649391977302 0 -0.00010313558318261287 0 0
          0.00007138799512286414 -0.000016764443821404084 0 -0.0001101834992804257 0 0
          0.00047850341350155713 -0.00013360734710112854 0 -0.0000519391350339853 0 0
          -0.00006325642772890387 -0.00003191314094069514 0 0.00020574064189645544 0 0
          -0.00004639280209428365 0.00005217952712032131 0 -0.000054611225268273554 0 0
          0.000025719092546366745 0.0000037176273951065823 0 -0.00010096543878304666 0 0
          0.000006594218760479904 1.839709975514064e-7 0 -0.000041074034307643376 0 0
          0.0001962464294911387 -0.00005859446068357446 0 0.0000024735095323722832 0 0
          -0.00009633095971163921 0.000050222786436410434 0 0.00000964727961949257 0 0
          0.00009938290108092318 -0.00004728609249295829 0 -0.00006543862027491518 0 0
          0.0001685344554030888 -0.000008930384610354974 0 0.000238463945325852 0 0
          -0.00007461599456580518 0.000038573276563058504 0 -0.00004066063753821026 0 0
          0.0001533049513335687 -0.000040848958559493376 0 -0.00006028274691319242 0 0
          0.0000965808917961306 -0.00003368805029069556 0 -0.000022904062950856485 0 0
          -0.00009191769717235677 0.00005011662847553079 0 0.000013487432005776524 0 0
          0.00004195720314746893 -0.000011651153807341125 0 -0.000045516370272426614 0 0
          -0.00001814630273234151 0.000010216223540556574 0 -0.00003830346421433837 0 0
          0.00022537328038856432 -0.00006143167263592824 0 0.000006464743673373602 0 0
          -0.000003825585931461635 0.000008018335829051637 0 -0.00004688073835891332 0 0
          3.554536563476138e-7 0.0000014866551520286272 0 -0.000020411192292066823 0 0
          0.00002693421435156531 -0.000008640358178645979 0 -0.000045756252187562635 0 0
          0.000007691043644520016 -0.000004899772733794637 0 -0.00002295459084220584 0 0
          -0.00008492044466816956 0.000018727155227395013 0 0.00008773768399936956 0 0
          0.0001307595763275659 -0.00004031134158206851 0 0.000007534148094078431 0 0
          0.00004891592388770162 -0.000019197006225687655 0 -0.0000346921767024053 0 0
          0.0002043678326351725 -0.00003435430728986279 0 0.00011154258873436861 0 0
          0.00007036011621381667 -0.000018481752009849514 0 -0.00003332029070980705 0 0
          0.000044098113012940176 -0.000016549051428678855 0 -0.000014554785274047746 0 0
          0.00012402822661319046 -0.00003157785891516706 0 -0.000020135929191582756 0 0
          0.000010150714193893315 -0.000008865984978572968 0 0.00004489436190301649 0 0
          0.0000211962034224783 -0.000006306604611873122 0 -0.000020125500682921902 0 0
          0.000024288755324743322 0.000002015593394628126 0 0.00006605557436585417 0 0
          0.00000796303556195313 -0.0000012926975727977663 0 -0.000024881335984105556 0 0
          0.000008295217528237235 -0.000007366497675570473 0 -0.000021359440487872208 0 0
          -0.000008404787966819824 0.000004659275197972549 0 -0.00002151676620765163 0 0
          0.00003214291848006749 -0.000010050283536023867 0 -0.000021233969526928194 0 0
          0.000037480501534930306 -4.236557134544455e-8 0 0.00010426286812584274 0 0
          0.00000821146449412803 -0.000002373215949269722 0 -0.000022827731393534438 0 0