<?xml version="1.0"?>
<VTKFile type="UnstructuredGrid" version="0.1" byte_order="LittleEndian" header_type="UInt32" compressor="vtkZLibDataCompressor">
  <UnstructuredGrid>
    <Piece NumberOfPoints="55" NumberOfCells="85">
      <PointData>
        <DataArray type="Float64" Name="Velocity" NumberOfComponents="3" format="ascii" RangeMin="0" RangeMax="2.1723865672648968">
          0.7392336509766337 -0.3791732565464974 0 0.5857622025483259 -0.2092763420152512 0
          0.8977924898298661 -0.6978011957316378 0 1.231827071598411 -0.756429331887683 0
          0.6818021412635561 -0.6942932164635013 0 0.4970488937107775 0 0
          0.5491772750129877 -0.40746591328354187 0 0.9104460697077636 -0.9636950605431682 0
          0.4603463085859977 -0.1306274843144426 0 0.45271191370685704 -0.6801941567027868 0
          1.3167255882674813 -1.0539203690970396 0 0.3925522523967991 -0.27437905339330826 0
          0.5451820483267089 -1.0235096656113716 0 0.27443750479184 -0.49356768985868543 0
          0.9203398089983785 -1.196970356593939 0 0.34039740437955707 0 0
          0.1471915898764111 -0.7591867667836306 0 0.3137060333321326 -0.16195903982313078 0
          1.5064526646607683 -1.0530289157467079 0 0.1904646146082769 -0.29966603014815774 0
          0.33890048684873786 -0.8592393414127067 0 -0.0027119991651578484 -0.45695687314142736 0
          0.8597588704765318 -0.647328039109542 0 -0.03714508556381018 -0.43492848043486626 0
          0.17735088761044565 -0.15124192608045062 0 0.29474448718248275 -0.11955006116808646 0
          0.1959126591874912 0 0 0.02597858132455013 -0.2274959360020988 0
          0.7822506896517174 0.24383412208829153 0 -0.05844469520023937 -0.10906547532225923 0
          0.024906882448825253 0.3012775855464802 0 0.3844975144476522 0.6108481922252095 0
          0.08371195453622193 0 0 0.06386392374672242 -0.07163399363389418 0
          0.20042218981183202 0.08635659826675471 0 0.05464395088056842 -0.05859205075421802 0
          0.43331990363557044 -0.06022544089560128 0 0.32701272311007085 -0.051065935217118434 0
          0.03174287797873873 0 0 0.2119627896228773 -0.040573380504683336 0
          0.10953251209093019 -0.029558379287204176 0 0.035592294006698284 -0.01754943408605863 0
          0 0 0 0.7082703435872199 0 0
          0.7981419273504274 -0.1524295852784391 0 0.9465850144086535 -0.2972008384536802 0
          1.0753802826810306 -0.4282500981989092 0 1.4180571817923446 -0.7730669835501562 0
          1.3754475216329138 -0.4346162582821414 0 1.142505509996297 0.2337013855699444 0
          1.4341362649222276 -0.3701054999065798 0 2.026520427728288 -0.7826099626460921 0
          1.7219541140068346 -0.8622128225665097 0 0.5779824511363747 0.5807520634537114 0
          0.5322644431118599 -0.06831364476529009 0
          <InformationKey name="L2_NORM_RANGE" location="vtkDataArray" length="2">
            <Value index="0">
              0
            </Value>
            <Value index="1">
              2.1723865673
            </Value>
          </InformationKey>
        </DataArray>
        <DataArray type="Float64" Name="Pressure" format="ascii" RangeMin="-3.6223654149829" RangeMax="-0.21265200447791">
          -0.4051769070843767 -0.41487569046131356 -0.5457732897343665 -0.6278804382743414 -0.6870572894929301 -0.4250842901225982
          -0.5870749393496977 -1.0701416626672395 -0.5481270493872645 -0.8038406961511502 -1.4143803532949621 -0.6800568531352672
          -1.3999496365062105 -0.9265399748178867 -2.2765234472160625 -0.68590498456761 -1.5306214894256747 -0.8016603871912948
          -2.7413992977635635 -1.0161129472969834 -2.6264755153322175 -1.4551799990045775 -3.5539657991724183 -2.3351374263457028
          -1.0876165046891204 -3.2506082050986187 -0.9571348878248356 -1.3169419662841442 -3.6223654149829 -1.7537544363818522
          -2.307218386366812 -2.8416472644514132 -1.167154486487308 -1.4653374762843578 -1.7522053039661816 -1.3482475549248611
          -2.202086054694744 -1.7610125063533952 -1.3094189148513975 -1.5726664424426935 -1.4512283229499632 -1.400055041546104
          -1.3788233492710154 -0.24279007153798407 -0.21265200447791 -0.2244052876019477 -0.32945061809509313 -0.6802652153557702
          -0.42108154608840004 -3.4147419924834788 -3.6088901265904547 -2.4926181536593033 -1.4627844973037556 -3.010691705164782
          -2.7382862130024037
        </DataArray>
        <DataArray type="Float64" Name="BTraction" NumberOfComponents="3" format="ascii" RangeMin="0" RangeMax="2.1960968373135694">
          0 0 0 0 0 0
          0 0 0 0 0 0
          0 0 0 -0.004342634329764317 -0.4026209059759586 0
          0 0 0 0 0 0
          0 0 0 0 0 0
          0 0 0 0 0 0
          0 0 0 0 0 0
          0 0 0 -0.002883671581260163 -0.6529944977586903 0
          0 0 0 0 0 0
          0 0 0 0 0 0
          0 0 0 0 0 0
          0 0 0 0 0 0
          0 0 0 0 0 0
          -0.0013676721248134748 -0.9155753084553644 0 0 0 0
          0 0 0 0 0 0
          0 0 0 0 0 0
          -0.001368527696898702 -1.1338297569867775 0 0 0 0
          0 0 0 0 0 0
          -2.1942284317859406 0.09056990670677419 0 -1.7635596912974614 0.10008329470524081 0
          -0.0032278008914196146 -1.287850385619538 0 -1.5531958688376866 0.11373631176414215 0
          -1.445545809206373 0.10314880826785094 0 -1.4050552729433845 0.0658646290647144 0
          -0.6870959495333214 -0.6677737092577862 0 -0.0034618471677179364 -0.23730154524206754 0
          0 0 0 0 0 0
          0 0 0 0 0 0
          0 0 0 0 0 0
          0 0 0 0 0 0
          0 0 0 0 0 0
          -1.6706943803572907 -0.9603234332243513 0
          <InformationKey name="L2_NORM_RANGE" location="vtkDataArray" length="2">
            <Value index="0">
              0
            </Value>
            <Value index="1">
              2.1960968373
            </Value>
          </InformationKey>
        </DataArray>
        <DataArray type="Float64" Name="ALEdispl" NumberOfComponents="3" format="ascii" RangeMin="0" RangeMax="0.7818942086805443">
          0.4387165769550195 -0.21179015791666125 0 0.21895059211242962 -0.14330766854727306 0
          0.5480285772489771 -0.19911674663778084 0 0.6063994345402572 -0.16585626103401882 0
          0.520714096937198 -0.22261630505024327 0 0 0 0
          0.3565744061620219 -0.20459950332245846 0 0.597654744900195 -0.2091735583589974 0
          0.1489433156232498 -0.10665217421411122 0 0.461199420447205 -0.22868664858589827 0
          0.6509396517833174 -0.1813493854993213 0 0.2707081465053203 -0.17491089748787464 0
          0.5616779646582412 -0.2292852998292642 0 0.38822934215494864 -0.21656882443727551 0
          0.641833959881678 -0.21091382338373274 0 0 0 0
          0.4984703389746846 -0.2284138669179409 0 0.17005210590394876 -0.12192535513499368 0
          0.6951759272965393 -0.18122069924921405 0 0.28969969647335747 -0.18129283385637618 0
          0.5991972028368693 -0.22024125851571244 0 0.4088708047189991 -0.20670691378761205 0
          0.6813452620493082 -0.19716365495017205 0 0.5245945192620437 -0.20772509321586524 0
          0.17417928325188306 -0.1206618405082957 0 0.6300502907565265 -0.19495121406361768 0
          0 0 0 0.2910291050222049 -0.16138053830592083 0
          0.7163610610732895 -0.16881284916719325 0 0.41530036596167524 -0.172682115848904 0
          0.5239542413767454 -0.15861024942083257 0 0.6487171959755837 -0.15063864894564144 0
          0 0 0 0.2862139709708044 -0.12220507995776213 0
          0.4150257484135701 -0.1144348524469913 0 0.11997835440562768 -0.0687394087554139 0
          0.6253935137922301 -0.0664826689897072 0 0.4731759681642486 -0.059414452465697445 0
          0 0 0 0.30463283982280087 -0.050348192982638255 0
          0.1540293041566218 -0.03897433117442985 0 0.046852094038394 -0.02372844812286161 0
          0 0 0 0 0 0
          0.2548473150681022 -0.13307943918416862 0 0.44704589306330084 -0.1417577135929611 0
          0.555182673786061 -0.1476739325550005 0 0.6089554496061719 -0.13689785013152722 0
          0.539999963960168 -0.08051200067524632 0 0.76984876472428 -0.13671661574466637 0
          0.7347733801757349 -0.16616439983974368 0 0.7168405906931563 -0.15152007441775736 0
          0.6681985022930276 -0.15073946677541591 0 0.7406682184273378 -0.12462951349200284 0
          0.7649236207908624 -0.07259102744990924 0
          <InformationKey name="L2_NORM_RANGE" location="vtkDataArray" length="2">
            <Value index="0">
              0
            </Value>
            <Value index="1">
              0.78189420868
            </Value>
          </InformationKey>
        </DataArray>
        <DataArray type="Float64" Name="ALEveloc" NumberOfComponents="3" format="ascii" RangeMin="0" RangeMax="0.547497485132433">
          0.30499302019386976 -0.15264044954295192 0 0.15224220741145822 -0.1021794347931615 0
          0.38061421166199816 -0.1461807773449642 0 0.4207533308921332 -0.12430204090108099 0
          0.36214397261097475 -0.16251460459996492 0 0 0 0
          0.2481622433478181 -0.1474384793025414 0 0.41529519644015145 -0.1549404019333595 0
          0.10357438091995541 -0.07617930018637734 0 0.32102300028245456 -0.16635942636096868 0
          0.4519504577489566 -0.1370301749461762 0 0.18839640098784038 -0.12583637526739222 0
          0.3908271306836939 -0.16903136526520846 0 0.27045070683561434 -0.15727120761026192 0
          0.44625579470062116 -0.15822282234164248 0 0 0 0
          0.3472117544342186 -0.1680331093849574 0 0.11817504702500281 -0.0875048644321712 0
          0.48298962513824995 -0.13900466019418234 0 0.2018137744299343 -0.13131822765987683 0
          0.41707572176265906 -0.16482965347214307 0 0.2849435744903811 -0.15174935035451753 0
          0.4739617473788815 -0.1508495714067875 0 0.36544296921647845 -0.15544714515170183 0
          0.12110900730819174 -0.08686635219701655 0 0.43851362784787584 -0.1493971723331109 0
          0 0 0 0.20289000674327473 -0.11785908456494798 0
          0.49854618120213523 -0.1332823083988477 0 0.289182426596408 -0.12896451354183647 0
          0.36461921336812697 -0.12237522126028877 0 0.45112320027366404 -0.12025197692756096 0
          0 0 0 0.19962956458414083 -0.09041482823109076 0
          0.2879636981042094 -0.0882236304659838 0 0.08479426670651163 -0.04968242788083352 0
          0.43331990353382954 -0.0602254408814607 0 0.3270127230332902 -0.05106593520512845 0
          0 0 0 0.21196278957310966 -0.04057338049515696 0
          0.10953251206521258 -0.029558379280264044 0 0.035592293998341434 -0.017549434081938126 0
          0 0 0 0 0 0
          0.17702150616769174 -0.09435278273041503 0 0.3100207622963074 -0.1029341859653854 0
          0.3850748181524568 -0.10980713473924886 0 0.4222213441044489 -0.10490783662267944 0
          0.3739353373637957 -0.0642786672840242 0 0.5359442674186683 -0.11188046499459015 0
          0.5109226766845707 -0.13055684695954067 0 0.49795006099544503 -0.11905179550092104 0
          0.4636889885069415 -0.11658915742612863 0 0.5155380717292126 -0.10436372729902033 0
          0.5322644429868872 -0.06831364474925045 0
          <InformationKey name="L2_NORM_RANGE" location="vtkDataArray" length="2">
            <Value index="0">
              0
            </Value>
            <Value index="1">
              0.54749748513
            </Value>
          </InformationKey>
        </DataArray>
      </PointData>
      <CellData>
        <DataArray type="UInt8" Name="vtkGhostType" format="ascii" RangeMin="0" RangeMax="1">
          1 1 1 1 1 0
          0 0 1 0 1 1
          0 0 0 0 0 0
          0 0 0 0 0 0
          0 0 0 0 0 0
          0 0 0 0 0 0
          0 0 0 0 0 0
          0 0 0 0 0 0
          0 0 0 0 0 0
          0 0 0 0 0 0
          0 0 0 0 0 0
          0 0 0 0 0 0
          0 0 0 0 0 0
          0 0 0 0 0 0
          0
        </DataArray>
        <DataArray type="Float64" Name="PStrain" NumberOfComponents="6" format="ascii" RangeMin="0.000705749019069615" RangeMax="0.08629598312977359">
          0.0007933127342438901 0.0007933127342438901 0 0.0007933127342438901 0 0
          0.0005369377592890237 0.0005369377592890237 0 0.0005369377592890237 0 0
          0.0005022524121830112 0.0005022524121830112 0 0.0005022524121830112 0 0
          0.0005022347527717257 0.0005022347527717257 0 0.0005022347527717257 0 0
          0.00040746438614015654 0.00040746438614015654 0 0.00040746438614015654 0 0
          0.0013412443533546007 0.0013412443533546007 0 0.0013412443533546007 0 0
          0.0010427452268352711 0.0010427452268352711 0 0.0010427452268352711 0 0
          0.001253084998559652 0.001253084998559652 0 0.001253084998559652 0 0
          0.0008050899239689157 0.0008050899239689157 0 0.0008050899239689157 0 0
          0.0014550007977900165 0.0014550007977900165 0 0.0014550007977900165 0 0
          0.0011028882808681087 0.0011028882808681087 0 0.0011028882808681087 0 0
          0.0010944411175032142 0.0010944411175032142 0 0.0010944411175032142 0 0
          0.0010744775513153062 0.0010744775513153062 0 0.0010744775513153062 0 0
          0.009471840991964044 0.009471840991964044 0 0.009471840991964044 0 0
          0.011264257760499807 0.011264257760499807 0 0.011264257760499807 0 0
          0.012660187998023214 0.012660187998023214 0 0.012660187998023214 0 0
          0.009634989572420354 0.009634989572420354 0 0.009634989572420354 0 0
          0.00707158999431679 0.00707158999431679 0 0.00707158999431679 0 0
          0.013793735520931771 0.013793735520931771 0 0.013793735520931771 0 0
          0.005216926016014393 0.005216926016014393 0 0.005216926016014393 0 0
          0.005710710971686793 0.005710710971686793 0 0.005710710971686793 0 0
          0.003027722953771966 0.003027722953771966 0 0.003027722953771966 0 0
          0.005486672558044704 0.005486672558044704 0 0.005486672558044704 0 0
          0.006242490796160573 0.006242490796160573 0 0.006242490796160573 0 0
          0.007154063949296066 0.007154063949296066 0 0.007154063949296066 0 0
          0.004107660495912043 0.004107660495912043 0 0.004107660495912043 0 0
          0.004950001063060744 0.004950001063060744 0 0.004950001063060744 0 0
          0.0038031114168559583 0.0038031114168559583 0 0.0038031114168559583 0 0
          0.007226844628322243 0.007226844628322243 0 0.007226844628322243 0 0
          0.002966642473102194 0.002966642473102194 0 0.002966642473102194 0 0
          0.0032918256062018755 0.0032918256062018755 0 0.0032918256062018755 0 0
          0.0018678712572539262 0.0018678712572539262 0 0.0018678712572539262 0 0
          0.002926316133673464 0.002926316133673464 0 0.002926316133673464 0 0
          0.004179488678099648 0.004179488678099648 0 0.004179488678099648 0 0
          0.004482386774828016 0.004482386774828016 0 0.004482386774828016 0 0
          0.002708123287759369 0.002708123287759369 0 0.002708123287759369 0 0
          0.0038045996383577092 0.0038045996383577092 0 0.0038045996383577092 0 0
          0.002466801241573918 0.002466801241573918 0 0.002466801241573918 0 0
          0.0027116502420283786 0.0027116502420283786 0 0.0027116502420283786 0 0
          0.0020872188689818856 0.0020872188689818856 0 0.0020872188689818856 0 0
          0.004932307014422495 0.004932307014422495 0 0.004932307014422495 0 0
          0.0016722176865518463 0.0016722176865518463 0 0.0016722176865518463 0 0
          0.001893843243406706 0.001893843243406706 0 0.001893843243406706 0 0
          0.0041937090805260705 0.0041937090805260705 0 0.0041937090805260705 0 0
          0.005420657297430263 0.005420657297430263 0 0.005420657297430263 0 0
          0.0016975746399766072 0.0016975746399766072 0 0.0016975746399766072 0 0
          0.0030438283726628513 0.0030438283726628513 0 0.0030438283726628513 0 0
          0.0026549523835782732 0.0026549523835782732 0 0.0026549523835782732 0 0
          0.001647441685451031 0.001647441685451031 0 0.001647441685451031 0 0
          0.00202301351510972 0.00202301351510972 0 0.00202301351510972 0 0
          0.0030714284794705216 0.0030714284794705216 0 0.0030714284794705216 0 0
          0.00187029282741184 0.00187029282741184 0 0.00187029282741184 0 0
          0.0016386676429041543 0.0016386676429041543 0 0.0016386676429041543 0 0
          0.003520843604795227 0.003520843604795227 0 0.003520843604795227 0 0
          0.0017893510017985502 0.0017893510017985502 0 0.0017893510017985502 0 0
          0.0010255029372465917 0.0010255029372465917 0 0.0010255029372465917 0 0
          0.003570343471349725 0.003570343471349725 0 0.003570343471349725 0 0
          0.0022082335572659573 0.0022082335572659573 0 0.0022082335572659573 0 0
          0.002252205223756646 0.002252205223756646 0 0.002252205223756646 0 0
          0.002142312582936062 0.002142312582936062 0 0.002142312582936062 0 0
          0.0013928545078848256 0.0013928545078848256 0 0.0013928545078848256 0 0
          0.002296220231657982 0.002296220231657982 0 0.002296220231657982 0 0
          0.0016401249466337082 0.0016401249466337082 0 0.0016401249466337082 0 0
          0.0013333202352853045 0.0013333202352853045 0 0.0013333202352853045 0 0
          0.0010591498796953917 0.0010591498796953917 0 0.0010591498796953917 0 0
          0.0016912739883239456 0.0016912739883239456 0 0.0016912739883239456 0 0
          0.0011442644875231957 0.0011442644875231957 0 0.0011442644875231957 0 0
          0.002641295689900169 0.002641295689900169 0 0.002641295689900169 0 0
          0.04982300908995818 0.04982300908995818 0 0.04982300908995818 0 0
          0.02693137355098749 0.02693137355098749 0 0.02693137355098749 0 0
          0.02354019981929708 0.02354019981929708 0 0.02354019981929708 0 0
          0.013573372025572851 0.013573372025572851 0 0.013573372025572851 0 0
          0.00779254709618127 0.00779254709618127 0 0.00779254709618127 0 0
          0.0015499720811655098 0.0015499720811655098 0 0.0015499720811655098 0 0
          0.005719669859692833 0.005719669859692833 0 0.005719669859692833 0 0
          0.0051230355069151945 0.0051230355069151945 0 0.0051230355069151945 0 0
          0.022291378206216676 0.022291378206216676 0 0.022291378206216676 0 0
          0.009002187168049316 0.009002187168049316 0 0.009002187168049316 0 0
          0.009867776316522785 0.009867776316522785 0 0.009867776316522785 0 0
          0.006935671541859938 0.006935671541859938 0 0.006935671541859938 0 0
          0.0026552711424926217 0.0026552711424926217 0 0.0026552711424926217 0 0
          0.0034047907027639638 0.0034047907027639638 0 0.0034047907027639638 0 0
          0.004259559955809786 0.004259559955809786 0 0.004259559955809786 0 0
          0.005830428222671124 0.005830428222671124 0 0.005830428222671124 0 0
          0.007555977477704336 0.007555977477704336 0 0.007555977477704336 0 0
          <InformationKey name="L2_NORM_RANGE" location="vtkDataArray" length="2">
            <Value index="0">
              0.00070574901907
            </Value>
            <Value index="1">
              0.08629598313
            </Value>
          </InformationKey>
        </DataArray>
        <DataArray type="Float64" Name="Stress" NumberOfComponents="6" format="ascii" RangeMin="0.000011758459927290995" RangeMax="0.001096324523927863">
          -0.0000024011425861048625 -0.000034539512584739176 0 0.000024551076756957075 0 0
          -0.000003934411067543942 -0.000010576349031647278 0 0.00001716559666386317 0 0
          -0.000004010128995881562 -0.000016800772590953095 0 0.00001649841286676437 0 0
          -0.000010415121416891614 6.123650020049214e-7 0 0.000013221868540411639 0 0
          -0.000006270322142538328 0.0000062270722959611215 0 0.000007756804155796072 0 0
          -0.00004753592258661169 0.00003596121156330664 0 -0.0000031088765108413796 0 0
          -0.000010158293500601833 6.932606683664227e-7 0 0.000030096111371888136 0 0
          -0.000025835286348333133 0.00001428505809651734 0 0.000026520550060112354 0 0
          -0.000016965499966106853 0.00001751973480384744 0 0.000013218620286424319 0 0
          -0.00001567475981064704 -0.000017241997115081674 0 0.000045379714159670413 0 0
          -0.00002916864146137155 0.000016006985835859343 0 0.000024273995042153023 0 0
          -0.000025486049724586942 0.00003084946052572883 0 -0.000005249720579176016 0 0
          -0.000013302966308980184 -0.000021542024676962664 0 0.00003784045609613651 0 0
          -0.00024690519897429717 0.00014318211182958915 0 0.00005059369410513121 0 0
          -0.00025233072783634224 0.0001514248839324315 0 0.00006327786585994797 0 0
          -0.00010824651343616234 0.00004380605241611154 0 0.00020710425076532658 0 0
          -0.00019857552930785158 0.000090020683547281 0 0.00018145277392502725 0 0
          -0.00010068326639299402 0.000052546743705109826 0 0.00013157231146054778 0 0
          -0.00010993070404785563 -0.00006768703591345143 0 0.0003248945430599085 0 0
          -0.00013839435313283525 0.00009465412737569156 0 0.000045346547379257476 0 0
          -0.00015013889856481405 0.00010774390098039805 0 -0.000017324610700669263 0 0
          -0.00009200466403978743 0.00007172582749445742 0 4.585364349568792e-7 0 0
          -0.00012720313393250362 0.00009098097417135819 0 0.00004920913102392843 0 0
          -0.000013185479876374726 -0.00004204846143710534 0 0.0001446901119336215 0 0
          -0.00009249237637847494 -0.000005128592230995343 0 0.00018609620399235815 0 0
          -0.000030946346181786645 -0.000011792517279333403 0 0.00010762088824728982 0 0
          -0.00010764225074369157 0.00005844421847750041 0 0.00009995027978322315 0 0
          -0.00006306154720698317 0.000036706941377794074 0 0.00007772536624861937 0 0
          -0.00001649764256788017 -0.00005519173555042582 0 0.000181785542185359 0 0
          -0.00007938904982654089 0.00006087280507259951 0 0.00003417555074637375 0 0
          -0.0000868478492646212 0.000076197285644626 0 -0.0000023803819385103395 0 0
          -0.00006198171797881846 0.00004889124615597473 0 8.092315866829487e-7 0 0
          -0.0000695111551284743 0.00005541638234253105 0 0.000034807973869233744 0 0
          0.000004659271145284309 -0.0000522220881977948 0 0.00011600688498313334 0 0
          -0.00003162491679044883 -0.0000401468880894673 0 0.0001302648248637493 0 0
          -0.000006916476428911169 -0.000034941767153415625 0 0.0000832539627095694 0 0
          -0.00005705939500213584 0.000006120481143605391 0 0.00010511606837339066 0 0
          -0.000028225853736827986 -0.0000034181016902351655 0 0.00007121504184970896 0 0
          -0.00006132122303464963 0.000035930240700366414 0 0.00005850712710431758 0 0
          -0.00003557941585120074 0.000023867959922771422 0 0.00004483348811061023 0 0
          0.000003413998800055024 -0.0000836060801319372 0 0.00013257804850677735 0 0
          -0.00004054699605713885 0.000037321834862594534 0 0.000024413713664051593 0 0
          -0.00004509690896924045 0.00004708368165442619 0 -0.000003066010374029167 0 0
          0.0000321235640631052 -0.00007516205358011747 0 0.00011263997096081575 0 0
          0.00003816856344247246 -0.00009811688769494107 0 0.00012441791515239433 0 0
          -0.00004372165711642974 0.00003641468128213561 0 0.000026465155849497307 0 0
          0.000010087532790507415 -0.00006898095026207913 0 0.00009216773657009139 0 0
          -0.00002948062582448371 -0.00002606013941660051 0 0.00008177967807420233 0 0
          -0.000009600992427091313 -0.000021568503398152313 0 0.000052414815920246206 0 0
          -0.00003056207745016578 0.0000027446883216148473 0 0.00006009364747768344 0 0
          -0.000009259533835037485 -0.00006399113309475454 0 0.00009378561137261486 0 0
          -0.0000025356442632372625 -0.00004850709806926185 0 0.000063106796081044 0 0
          -0.00004004858980599881 0.000021033593530451167 0 0.000033810830798228366 0 0
          0.000007944518487067537 -0.00010256389068037457 0 0.00009206843532346353 0 0
          -0.000009959908535738964 -0.00004441428182444439 0 0.00005987917163778684 0 0
          -0.000004863758366071127 -0.00002784166257268621 0 0.000035801343941642126 0 0
          0.00003026849700273947 -0.00010446709058058661 0 0.00009598760852801367 0 0
          0.0000011827189731977862 -0.00007853499082769659 0 0.00006876863320841298 0 0
          -0.000007266159341243694 -0.0001045209074471208 0 0.00007019519280728803 0 0
          -0.000005606712219778665 -0.00007477922219457831 0 0.00006654006713046003 0 0
          -0.000003856414535899378 -0.00005178318095428167 0 0.000045559438062197596 0 0
          -0.0000010445605323255329 -0.000108585952338842 0 0.000068007063111564 0 0
          -0.00000576151367733018 -0.00008137845513807445 0 0.000052915088580548947 0 0
          -0.0000082933390500489 -0.000048727317389204846 0 0.00004303672044387484 0 0
          -0.000007463061859979524 -0.00004640958046608363 0 0.00003722641617414339 0 0
          -0.000005838128191346844 -0.00008397922859860462 0 0.000054492597816072706 0 0
          -0.0000039414227237193245 -0.00005669584994888567 0 0.000036836657867599736 0 0
          0.00002361935746448543 -0.00010388478797170905 0 0.00005920102947850563 0 0
          -0.000342708895418934 -0.000227143800205223 0 0.0010163088943794202 0 0
          -0.0004945096975840109 0.00025407013515138944 0 0.00005832577525967748 0 0
          -0.00045013794510184496 0.00009032185555620455 0 0.00044064234602379326 0 0
          0.00002853425795302905 -0.000049004948344414825 0 0.00022841621223988485 0 0
          0.000051457778567605737 -0.000060203512455800186 0 0.00015304649725449986 0 0
          -0.000001727487976868648 -0.000024849250128802855 0 0.000022827092801574168 0 0
          0.00003324759979288578 -0.00006415729098345694 0 0.00014008117709785511 0 0
          0.0000655562889590693 -0.00004407852321371676 0 0.00009845136855534347 0 0
          0.00002581143242677062 -0.00009409762498882219 0 0.0004453128584699772 0 0
          0.00006090923070062932 -0.000033454021523641256 0 0.0001760578316817986 0 0
          0.00007163852459396195 -0.00004228640713810877 0 0.00019537177005126015 0 0
          0.00003824978234633572 -0.00007637369445450467 0 0.00015597937926162354 0 0
          -0.000005567311098781116 -0.00008008362888246681 0 0.00006503071051908982 0 0
          0.00006464867800459276 -0.0000988977273008009 0 0.00006170970737031699 0 0
          0.00006511621050483777 -0.00006971104987490734 0 0.00008412107746393482 0 0
          0.000055131941507820055 -0.00007133521333509494 0 0.00012705111826775468 0 0
          0.00006840653935406129 -0.00004215807738171839 0 0.0001566676013108857 0 0
          <InformationKey name="L2_NORM_RANGE" location="vtkDataArray" length="2">
            <Value index="0">
              1.1758459927e-05
            </Value>
            <Value index="1">
              0.0010963245239
            </Value>
          </InformationKey>
        </DataArray>
        <DataArray type="Float64" Name="Strain" NumberOfComponents="6" format="ascii" RangeMin="0.022218217311749253" RangeMax="0.08649839914087626">
          0 -0.043144856462146414 0 0.06591825800219886 0 0
          -0.005932978942076998 -0.019107064409890837 0 0.06809489603123162 0 0
          -0.005634921106628714 -0.03275681260645007 0 0.06996804505819514 0 0
          -0.02073434472365586 0.002649686292339526 0 0.05607453453918425 0 0
          -0.0163815521999462 0.016283204597777295 0 0.040548311493811204 0 0
          -0.037147964917456366 0.02915199574761792 0 -0.004937136884513263 0 0
          -0.00974673910632537 0.0013364141822553577 0 0.06147687428565783 0 0
          -0.02131939608322675 0.012778982624426193 0 0.045079760505448443 0 0
          -0.022490188774546727 0.023128038378199663 0 0.034972070040676456 0 0
          -0.009907181303302537 -0.011054333752811896 0 0.06643212244756971 0 0
          -0.02734047325441714 0.016283204597777295 0 0.04688018753729875 0 0
          -0.025139703387755206 0.02968034810433442 0 -0.010216999941627353 0 0
          -0.010940679592302008 -0.019107064409890837 0 0.07501336010799409 0 0
          -0.02700360008334534 0.016857248758881088 0 0.011377362493242602 0 0
          -0.023236952106983955 0.014936865971080387 0 0.011965444785392477 0 0
          -0.008753554521678808 0.004037407402263923 0 0.03484403661296538 0 0
          -0.02116953297997693 0.010730342404476373 0 0.0401136301762721 0 0
          -0.014691947356813284 0.008384894044573264 0 0.03963027036864325 0 0
          -0.007596246252738564 -0.004334656490134398 0 0.05016954077939713 0 0
          -0.027671864334530172 0.01990339952385925 0 0.018514379084794738 0 0
          -0.027485742850926143 0.02060724992656124 0 -0.00646179100559975 0 0
          -0.03189894393151177 0.025693172700802704 0 0.00032257991281579856 0 0
          -0.024233970083324168 0.018117030941862136 0 0.019103645783870304 0 0
          -0.0016370014493571339 -0.006561169760679926 0 0.049369706497311136 0 0
          -0.012824398823009231 0.0001811363212804451 0 0.055406957124380415 0 0
          -0.007303247405758606 -0.002337202183322701 0 0.05580609502534596 0 0
          -0.02247136148888529 0.013262386336049037 0 0.04300889903377639 0 0
          -0.017179657134769155 0.01075889861509835 0 0.04353146988431489 0 0
          -0.0017445085349066802 -0.007446749436130827 0 0.0535784598630158 0 0
          -0.028067942725535866 0.02228489784152453 0 0.024537477552411657 0 0
          -0.027873795631019327 0.024875981985146206 0 -0.0015402436628096645 0 0
          -0.03485483353452273 0.028361357808959382 0 0.0009227955475736294 0 0
          -0.024964380548321837 0.020501598289584186 0 0.02533594490640257 0 0
          0.0019750405889222555 -0.012519231884600385 0 0.0591207882219756 0 0
          -0.00640554566827122 -0.008430337344978526 0 0.06190096725208011 0 0
          -0.0016500026069717342 -0.012671263993594873 0 0.06548111800260831 0 0