<?xml version="1.0"?>
<VTKFile type="UnstructuredGrid" version="0.1" byte_order="LittleEndian" header_type="UInt32" compressor="vtkZLibDataCompressor">
  <UnstructuredGrid>
    <Piece NumberOfPoints="63" NumberOfCells="98">
      <PointData>
        <DataArray type="Float64" Name="Velocity" NumberOfComponents="3" format="ascii" RangeMin="0.33551897734121905" RangeMax="2.4233249542274224">
          1.3754475216329138 -0.4346162582821414 0 1.580933396905519 -0.1685485117197189 0
          1.4180571817923446 -0.7730669835501562 0 1.6876803984658688 -0.5898982824264493 0
          1.6053809610911423 -0.36511788743009527 0 1.6835074851407006 0 0
          1.7219541140068346 -0.8622128225665097 0 1.9988536350259947 -0.5631499397922045 0
          1.7742237927668927 -0.08758074342313342 0 2.026520427728288 -0.7826099626460921 0
          1.9257534492993957 -0.21948832007906885 0 2.303926423031908 -0.5356152056258799 0
          1.4341362649222276 -0.3701054999065798 0 1.9593146964460777 -0.26272807131806714 0
          1.771787411898822 0 0 2.4125730110347674 -0.16134732217434905 0
          1.8389477975699717 0.038483767532967526 0 2.260414108205751 0.03270500490278479 0
          1.142505509996297 0.2337013855699444 0 1.7924477230137055 0.12874677005942 0
          2.400909635505557 0.2587185626833613 0 0.5779824511363747 0.5807520634537114 0
          1.9387119494889817 0.26015889674425524 0 0.8690031259138271 0.28975799586110607 0
          1.8215759706319814 0.411339477441221 0 0.5322644431118599 -0.06831364476529009 0
          2.3272465808053244 0.6755939504697074 0 1.7020390716884448 0.2166601524912326 0
          1.0669350840954146 0.2976344071454824 0 1.9759295721017898 0.5675501748430186 0
          2.0018704790202304 1.0078182738099597 0 0.5377118547883041 -0.0024304635279329455 0
          0.4393739761079669 0.005016793848314792 0 1.9744937471269879 0.8671147047747294 0
          1.5525100941360654 1.2355758949532338 0 1.4732611266583795 0 0
          1.7665947388880998 1.2099024314033937 0 0.9706428012774589 1.4093784220708427 0
          1.5750131676116248 0.5954711410634278 0 1.6877438114504775 0.9749796862454014 0
          1.3965869212004536 1.445694858417272 0 1.4652586285295035 1.145941449371403 0
          1.2472412366396446 0.23673655329198912 0 1.0958628856195032 0 0
          1.373113297831298 -0.2816592524433145 0 1.476430761938934 0 0
          1.231827071598411 -0.756429331887683 0 1.0753802826810306 -0.4282500981989092 0
          0.7822506896517174 0.24383412208829153 0 0.8597588704765318 -0.647328039109542 0
          1.5064526646607683 -1.0530289157467079 0 1.3167255882674813 -1.0539203690970396 0
          1.1702284332597912 0.41029209284141455 0 0.43331990363557044 -0.06022544089560128 0
          1.1126415525969604 1.3780095373184893 0 0.3844975144476522 0.6108481922252095 0
          1.2528721332979211 1.093055702338249 0 0.9375570671123471 1.409368377159497 0
          1.3905113427227735 0.7331826424757394 0 0.3353190472050499 0.011581050798394117 0
          1.0072608284999502 0.09611051435428575 0 1.000000000234794 0 0
          1.2909029342711016 0.8608948881124222 0
          <InformationKey name="L2_NORM_RANGE" location="vtkDataArray" length="2">
            <Value index="0">
              0.33551897734
            </Value>
            <Value index="1">
              2.4233249542
            </Value>
          </InformationKey>
        </DataArray>
        <DataArray type="Float64" Name="Pressure" format="ascii" RangeMin="-3.6223654149829" RangeMax="1.3425510608258426">
          -0.42108154608840004 -0.3210349281143501 -0.6802652153557702 -0.6588592980005634 -0.5390692849611847 -0.31716983765906126
          -1.4627844973037556 -1.2601368381765934 -0.398340690839174 -2.4926181536593033 -0.9530686349003307 -1.8837684802185675
          -3.6088901265904547 -3.1022794814891284 -0.06733732749905594 -2.080431483285382 -0.3152220224981252 -1.3480316758533988
          -3.4147419924834788 -3.0833965743977725 -1.9634754880595688 -3.010691705164782 -0.6221668524454214 -3.0884130889811146
          -2.83803516326129 -2.7382862130024037 -1.4272325219311064 0.19742628755427075 -2.9400207595785206 -0.4554748833461387
          -2.0997514447789603 -1.7584367842103592 0.22775292205687814 -0.5733274393613315 -2.1042018229045043 0.5340399072532284
          -0.8481999847145162 -0.7444986725898549 0.2900025002322485 0.03601631481139423 -0.4400159036387097 0.22854855978456182
          0.7935660629591775 0.9832327582232138 -0.22467009611200273 -0.22406190656459782 -0.6278804382743414 -0.32945061809509313
          -3.6223654149829 -3.5539657991724183 -2.7413992977635635 -1.4143803532949621 0.8989133899917336 -2.202086054694744
          0.43885592119852207 -2.8416472644514132 0.611917877907187 0.4462073021856997 0.5436205306442021 1.3425510608258426
          1.0283334787919234 1.0639577785337007 0.7129298517163728
        </DataArray>
        <DataArray type="Float64" Name="BTraction" NumberOfComponents="3" format="ascii" RangeMin="0" RangeMax="2.1960968373135694">
          0 0 0 0 0 0
          0 0 0 0 0 0
          0 0 0 -0.0024352723080216477 0.2797398366322446 0
          0 0 0 0 0 0
          0 0 0 0 0 0
          0 0 0 0 0 0
          0 0 0 0 0 0
          -0.006969438295480006 -0.005558308300337799 0 0 0 0
          0 0 0 0 0 0
          0 0 0 0 0 0
          0 0 0 0 0 0
          0 0 0 0 0 0
          0 0 0 -1.6706943803572907 -0.9603234332243513 0
          0 0 0 0 0 0
          0 0 0 0 0 0
          0 0 0 0.44840708664645795 -1.1004642396695743 0
          -0.22016961872102456 -0.18402487023617886 0 0 0 0
          0 0 0 -0.002387769495700533 -0.5507233358378538 0
          0 0 0 0 0 0
          0 0 0 0 0 0
          0 0 0 0 0 0
          0 0 0 0.0038211090239980874 -0.9502525291329597 0
          0 0 0 0.0012157289088004966 0.25007037791622005 0
          0 0 0 0 0 0
          0 0 0 0 0 0
          0 0 0 0 0 0
          0 0 0 -2.1942284317859406 0.09056990670677419 0
          0 0 0 0 0 0
          0 0 0 0 0 0
          0 0 0 -1.362249078960901 -0.003274139210615344 0
          0 0 0 0.53869089653817 -0.5281721213747614 0
          0 0 0
          <InformationKey name="L2_NORM_RANGE" location="vtkDataArray" length="2">
            <Value index="0">
              0
            </Value>
            <Value index="1">
              2.1960968373
            </Value>
          </InformationKey>
        </DataArray>
        <DataArray type="Float64" Name="ALEdispl" NumberOfComponents="3" format="ascii" RangeMin="0" RangeMax="0.813999321883395">
          0.539999963960168 -0.08051200067524632 0 0.2648344304841603 -0.008051481647857307 0
          0.6089554496061719 -0.13689785013152722 0 0.5990744030355223 -0.10489686996991172 0
          0.519601094640222 -0.06758001851682559 0 0 0 0
          0.6681985022930276 -0.15073946677541591 0 0.6622159264727223 -0.12127831502936362 0
          0.32830666719441703 -0.026223735097615972 0 0.7168405906931563 -0.15152007441775736 0
          0.6079383616636711 -0.08470646678371582 0 0.7107501101879734 -0.12398688867846418 0
          0.7347733801757349 -0.16616439983974368 0 0.7581317586626642 -0.13523427748016909 0
          0 0 0 0.7420778357775577 -0.10432766192045378 0
          0.418000507674066 -0.03815147087048767 0 0.7028928360887285 -0.07448696887988368 0
          0.76984876472428 -0.13671661574466637 0 0.7932268936622257 -0.10357216461271994 0
          0.7685633779118456 -0.07147716836031781 0 0.7406682184273378 -0.12462951349200284 0
          0.6559478261023803 -0.04682967994723773 0 0.7973249770010673 -0.09271386613718346 0
          0.8124440123084565 -0.050295356552702127 0 0.7649236207908624 -0.07259102744990924 0
          0.7779015756599251 -0.02234326367872112 0 0.3538356306817421 -0.019172952769243207 0
          0.8097865618173617 -0.024328897850776274 0 0.7000394995637567 -0.009053929861624937 0
          0.8062224168411293 0.0037699343951450846 0 0.769113674103262 0.020206650325797746 0
          0.6305479795852152 0.026100283266600455 0 0.7488926577358425 0.021585084139975317 0
          0.7920357041616659 0.04087704165241058 0 0 0 0
          0.7703409815485586 0.05263057364223345 0 0.734202280367812 0.07328590650539428 0
          0.609054043611578 0.021165413051905238 0 0.708586637858659 0.05370380050262221 0
          0.7462971060282727 0.08454275979131375 0 0.7080461231676762 0.08244895249847037 0
          0.29476168217258525 -0.016042355907329053 0 0 0 0
          0.43097810280445703 -0.014722293407605407 0 0 0 0
          0.6063994345402572 -0.16585626103401882 0 0.555182673786061 -0.1476739325550005 0
          0.7163610610732895 -0.16881284916719325 0 0.6813452620493082 -0.19716365495017205 0
          0.6951759272965393 -0.18122069924921405 0 0.6509396517833174 -0.1813493854993213 0
          0.4459730609100025 0.026679620880930982 0 0.6253935137922301 -0.0664826689897072 0
          0.6865953585257465 0.11848989442559056 0 0.6487171959755837 -0.15063864894564144 0
          0.6737849307098522 0.10994437667236354 0 0.6320102417335612 0.1046227577415991 0
          0.6332668346666588 0.05894291892767692 0 0.48180440551433984 0.03135079686595527 0
          0.22573427167991536 -0.026445070056567602 0 0 0 0
          0.6344514791106969 0.08960584333260042 0
          <InformationKey name="L2_NORM_RANGE" location="vtkDataArray" length="2">
            <Value index="0">
              0
            </Value>
            <Value index="1">
              0.81399932188
            </Value>
          </InformationKey>
        </DataArray>
        <DataArray type="Float64" Name="ALEveloc" NumberOfComponents="3" format="ascii" RangeMin="0" RangeMax="0.5698237627388313">
          0.3739353373637957 -0.0642786672840242 0 0.18298555529845872 -0.010401803413404817 0
          0.4222213441044489 -0.10490783662267944 0 0.41513275789339366 -0.08294716985232642 0
          0.3597398197033437 -0.05597499032680886 0 0 0 0
          0.4636889885069415 -0.11658915742612863 0 0.45947917141983674 -0.09634964367270626 0
          0.22745803492072736 -0.023790253474446132 0 0.49795006099544503 -0.11905179550092104 0
          0.4223112239548321 -0.06998756072241633 0 0.4938965511795326 -0.09978278083551839 0
          0.5109226766845707 -0.13055684695954067 0 0.5273982390966343 -0.109393054345515 0
          0 0 0 0.5164778802516938 -0.08676313677299877 0
          0.2908886545673248 -0.03219184859220264 0 0.4896217008334527 -0.06394206419437351 0
          0.5359442674186683 -0.11188046499459015 0 0.5529478287162926 -0.08846235891774962 0
          0.5361688334677726 -0.06388645824895167 0 0.5155380717292126 -0.10436372729902033 0
          0.45737811600274303 -0.0420365518835884 0 0.5559771275492191 -0.08218843801117903 0
          0.5675318502552744 -0.05105604300829289 0 0.5322644429868872 -0.06831364474925045 0
          0.5435566535073966 -0.029360968768604168 0 0.2462088064986212 -0.01564735007744432 0
          0.5656026304653514 -0.03353184783882456 0 0.4891009945038691 -0.017701047031335237 0
          0.5636503876041061 -0.012742509293510878 0 0.5377118546620525 -0.0024304635273622865 0
          0.43937397600480455 0.00501679384713688 0 0.5241054360382449 0.0016096177412036339 0
          0.5538407213148602 0.01272782410163413 0 0 0 0
          0.5393431149917551 0.02217454392536955 0 0.5129770604370154 0.03606228840116488 0
          0.42643508175778466 0.004517661764465525 0 0.49677387281480234 0.024453088239378168 0
          0.5223414554236294 0.04471618601217814 0 0.49648587015156265 0.04434840493930778 0
          0.20590689567613152 -0.01662672174796352 0 0 0 0
          0.297947383751864 -0.016293105742644018 0 0 0 0
          0.4207533308921332 -0.12430204090108099 0 0.3850748181524568 -0.10980713473924886 0
          0.49854618120213523 -0.1332823083988477 0 0.4739617473788815 -0.1508495714067875 0
          0.48298962513824995 -0.13900466019418234 0 0.4519504577489566 -0.1370301749461762 0
          0.31499074477158007 0.009257723003895699 0 0.43331990353382954 -0.0602254408814607 0
          0.4798455988934385 0.06935976869938221 0 0.45112320027366404 -0.12025197692756096 0
          0.472166725078107 0.06427124972809273 0 0.44069994406701585 0.05944773712386259 0
          0.4448072480531975 0.029238105633256767 0 0.335319047126319 0.011581050795674952 0
          0.16029670626553638 -0.024322630231011083 0 0 0 0
          0.44551085941200386 0.050782804011027916 0
          <InformationKey name="L2_NORM_RANGE" location="vtkDataArray" length="2">
            <Value index="0">
              0
            </Value>
            <Value index="1">
              0.56982376274
            </Value>
          </InformationKey>
        </DataArray>
      </PointData>
      <CellData>
        <DataArray type="UInt8" Name="vtkGhostType" format="ascii" RangeMin="0" RangeMax="1">
          1 1 1 0 0 1
          1 1 1 0 0 0
          0 0 0 0 0 0
          0 0 0 1 0 0
          0 0 1 0 0 1
          0 1 1 0 0 0
          0 0 0 1 1 0
          0 1 0 0 0 0
          0 0 0 0 0 0
          0 0 0 1 0 0
          0 0 0 0 0 0
          0 0 1 0 0 0
          0 0 0 0 1 0
          0 0 0 0 0 1
          0 0 0 0 0 0
          0 0 0 0 0 0
          0 0
        </DataArray>
        <DataArray type="Float64" Name="PStrain" NumberOfComponents="6" format="ascii" RangeMin="0.0005451869815485578" RangeMax="0.21514888614423205">
          0.0010034725156745 0.0010034725156745 0 0.0010034725156745 0 0
          0.0006503901611049632 0.0006503901611049632 0 0.0006503901611049632 0 0
          0.0007830655497058443 0.0007830655497058443 0 0.0007830655497058443 0 0
          0.0010416615026059672 0.0010416615026059672 0 0.0010416615026059672 0 0
          0.0014005626087643915 0.0014005626087643915 0 0.0014005626087643915 0 0
          0.0013412443533546007 0.0013412443533546007 0 0.0013412443533546007 0 0
          0.0010944411175032142 0.0010944411175032142 0 0.0010944411175032142 0 0
          0.000748384206647247 0.000748384206647247 0 0.000748384206647247 0 0
          0.0007806578549281668 0.0007806578549281668 0 0.0007806578549281668 0 0
          0.0011119825057692716 0.0011119825057692716 0 0.0011119825057692716 0 0
          0.0013584368054909508 0.0013584368054909508 0 0.0013584368054909508 0 0
          0.001458512716871759 0.001458512716871759 0 0.001458512716871759 0 0
          0.0013641348887480985 0.0013641348887480985 0 0.0013641348887480985 0 0
          0.0009598311479488305 0.0009598311479488305 0 0.0009598311479488305 0 0
          0.0009086869821470086 0.0009086869821470086 0 0.0009086869821470086 0 0
          0.000811864792096302 0.000811864792096302 0 0.000811864792096302 0 0
          0.0009656931955391514 0.0009656931955391514 0 0.0009656931955391514 0 0
          0.000880065531414458 0.000880065531414458 0 0.000880065531414458 0 0
          0.001024210772882774 0.001024210772882774 0 0.001024210772882774 0 0
          0.00841193938617546 0.00841193938617546 0 0.00841193938617546 0 0
          0.005685702077726217 0.005685702077726217 0 0.005685702077726217 0 0
          0.009471840991964044 0.009471840991964044 0 0.009471840991964044 0 0
          0.009767434727576674 0.009767434727576674 0 0.009767434727576674 0 0
          0.004947799770754716 0.004947799770754716 0 0.004947799770754716 0 0
          0.005937506942449429 0.005937506942449429 0 0.005937506942449429 0 0
          0.004518763402989167 0.004518763402989167 0 0.004518763402989167 0 0
          0.011264257760499807 0.011264257760499807 0 0.011264257760499807 0 0
          0.002599588206266814 0.002599588206266814 0 0.002599588206266814 0 0
          0.0022853673717089266 0.0022853673717089266 0 0.0022853673717089266 0 0
          0.005216926016014393 0.005216926016014393 0 0.005216926016014393 0 0
          0.00266149864427227 0.00266149864427227 0 0.00266149864427227 0 0
          0.005710710971686793 0.005710710971686793 0 0.005710710971686793 0 0
          0.003027722953771966 0.003027722953771966 0 0.003027722953771966 0 0
          0.004599379582471648 0.004599379582471648 0 0.004599379582471648 0 0
          0.0027097815678613518 0.0027097815678613518 0 0.0027097815678613518 0 0
          0.002454083811492244 0.002454083811492244 0 0.002454083811492244 0 0
          0.0030381884880415133 0.0030381884880415133 0 0.0030381884880415133 0 0
          0.0018733359168841852 0.0018733359168841852 0 0.0018733359168841852 0 0
          0.0027121548786882867 0.0027121548786882867 0 0.0027121548786882867 0 0
          0.0032918256062018755 0.0032918256062018755 0 0.0032918256062018755 0 0
          0.0018678712572539262 0.0018678712572539262 0 0.0018678712572539262 0 0
          0.0018592777432904087 0.0018592777432904087 0 0.0018592777432904087 0 0
          0.0017102589488721125 0.0017102589488721125 0 0.0017102589488721125 0 0
          0.001893843243406706 0.001893843243406706 0 0.001893843243406706 0 0
          0.001668212275396232 0.001668212275396232 0 0.001668212275396232 0 0
          0.000907951431277943 0.000907951431277943 0 0.000907951431277943 0 0
          0.001321411438931886 0.001321411438931886 0 0.001321411438931886 0 0
          0.0006212793054797395 0.0006212793054797395 0 0.0006212793054797395 0 0
          0.001149441405193706 0.001149441405193706 0 0.001149441405193706 0 0
          0.0007581946654810621 0.0007581946654810621 0 0.0007581946654810621 0 0
          0.12421626733122051 0.12421626733122051 0 0.12421626733122051 0 0
          0.07819157907309365 0.07819157907309365 0 0.07819157907309365 0 0
          0.08261589195173068 0.08261589195173068 0 0.08261589195173068 0 0
          0.0891994158914253 0.0891994158914253 0 0.0891994158914253 0 0
          0.020378771787289918 0.020378771787289918 0 0.020378771787289918 0 0
          0.021783962078818647 0.021783962078818647 0 0.021783962078818647 0 0
          0.10445572444278634 0.10445572444278634 0 0.10445572444278634 0 0
          0.04982300908995818 0.04982300908995818 0 0.04982300908995818 0 0
          0.015621780605839308 0.015621780605839308 0 0.015621780605839308 0 0
          0.021844225770725173 0.021844225770725173 0 0.021844225770725173 0 0
          0.005651910680617354 0.005651910680617354 0 0.005651910680617354 0 0
          0.027110691980392915 0.027110691980392915 0 0.027110691980392915 0 0
          0.021781661766027235 0.021781661766027235 0 0.021781661766027235 0 0
          0.017351962584682606 0.017351962584682606 0 0.017351962584682606 0 0
          0.05563984584980691 0.05563984584980691 0 0.05563984584980691 0 0
          0.01697087595427799 0.01697087595427799 0 0.01697087595427799 0 0
          0.021364891298775432 0.021364891298775432 0 0.021364891298775432 0 0
          0.01074111186370069 0.01074111186370069 0 0.01074111186370069 0 0
          0.02693137355098749 0.02693137355098749 0 0.02693137355098749 0 0
          0.007234298937943931 0.007234298937943931 0 0.007234298937943931 0 0
          0.005899575851190207 0.005899575851190207 0 0.005899575851190207 0 0
          0.03424258693671971 0.03424258693671971 0 0.03424258693671971 0 0
          0.007199811750986421 0.007199811750986421 0 0.007199811750986421 0 0
          0.002223846592253235 0.002223846592253235 0 0.002223846592253235 0 0
          0.007161837323871644 0.007161837323871644 0 0.007161837323871644 0 0
          0.0024895805898705993 0.0024895805898705993 0 0.0024895805898705993 0 0
          0.02354019981929708 0.02354019981929708 0 0.02354019981929708 0 0
          0.01313010357247953 0.01313010357247953 0 0.01313010357247953 0 0
          0.0070071708142645135 0.0070071708142645135 0 0.0070071708142645135 0 0
          0.029982899727407926 0.029982899727407926 0 0.029982899727407926 0 0
          0.007952378571065209 0.007952378571065209 0 0.007952378571065209 0 0
          0.004516942108117251 0.004516942108117251 0 0.004516942108117251 0 0
          0.013102654464089791 0.013102654464089791 0 0.013102654464089791 0 0
          0.013573372025572851 0.013573372025572851 0 0.013573372025572851 0 0
          0.0028259335412737104 0.0028259335412737104 0 0.0028259335412737104 0 0
          0.018127952909152763 0.018127952909152763 0 0.018127952909152763 0 0
          0.0030428810489296176 0.0030428810489296176 0 0.0030428810489296176 0 0
          0.0025227082120786474 0.0025227082120786474 0 0.0025227082120786474 0 0
          0.0029594289249308477 0.0029594289249308477 0 0.0029594289249308477 0 0
          0.0038293477828619795 0.0038293477828619795 0 0.0038293477828619795 0 0
          0.02575727459297319 0.02575727459297319 0 0.02575727459297319 0 0
          0.0027685547286357176 0.0027685547286357176 0 0.0027685547286357176 0 0
          0.0022370442227628187 0.0022370442227628187 0 0.0022370442227628187 0 0
          0.000954607382000609 0.000954607382000609 0 0.000954607382000609 0 0
          0.0004889927753805191 0.0004889927753805191 0 0.0004889927753805191 0 0
          0.0003147638505557394 0.0003147638505557394 0 0.0003147638505557394 0 0
          0.006555246928825194 0.006555246928825194 0 0.006555246928825194 0 0
          0.00623642530499776 0.00623642530499776 0 0.00623642530499776 0 0
          <InformationKey name="L2_NORM_RANGE" location="vtkDataArray" length="2">
            <Value index="0">
              0.00054518698155
            </Value>
            <Value index="1">
              0.21514888614
            </Value>
          </InformationKey>
        </DataArray>
        <DataArray type="Float64" Name="Stress" NumberOfComponents="6" format="ascii" RangeMin="0.000011153920285797922" RangeMax="0.0027353923324300897">
          -0.00002271247090214604 0.00001642366132980087 0 -0.000036426532343571866 0 0
          -0.000013410584232687685 0.000001009821206018146 0 -0.000026830199289632037 0 0
          1.78363924694584e-7 0.0000025656964552220927 0 -0.000039262826318856375 0 0
          -0.000028702531177814303 0.000032386502135513655 0 -0.000007675706983395556 0 0
          -0.0000335504068112571 0.00003386654182844711 0 -0.000029747786142657548 0 0
          -0.00004753592258661169 0.00003596121156330664 0 -0.0000031088765108413796 0 0
          -0.000025486049724586942 0.00003084946052572883 0 -0.000005249720579176016 0 0
          -0.000016201703275733496 0.000022852019153041143 0 -0.00001348797370759275 0 0
          -0.000030404921246389824 0.000022961254773497983 0 -0.000005799024200510424 0 0
          -0.000017837102200748114 0.000014267156592996844 0 -0.00006298790107174527 0 0
          -0.000020645692264756542 0.000031054193550447064 0 -0.00006799693246309534 0 0
          4.1416465006457115e-7 0.000012086137535970195 0 -0.00008534203354459405 0 0
          -0.00003785704838498172 0.000026688698314077434 0 -0.00006128614347284001 0 0
          -0.000016762840603951863 0.000019418408606403076 0 -0.00003959655768552609 0 0
          -0.000009727491385868066 0.000010827476933163305 0 -0.00005807003690257661 0 0
          -0.0000027763383198416685 0.000010263693744530692 0 -0.00005462755478537109 0 0
          5.273762906306657e-7 0.000007586105103687265 0 -0.00006513419689287257 0 0
          -0.00001554714263999443 0.0000050493967952328254 0 -0.000046179482785359765 0 0
          7.316282038243945e-7 0.000010524190316550906 0 -0.00006129873220874314 0 0
          -0.00022398984016303085 0.00014731003025390008 0 -0.00006831526138264343 0 0
          -0.00010660992902078659 0.00008812224085330328 0 -0.00013849606416729788 0 0
          -0.00024690519897429717 0.00014318211182958915 0 0.00005059369410513121 0 0
          -0.0002524405245349595 0.00015119593772563162 0 -0.00006864715235204707 0 0
          -0.0001416142168266056 0.00010160823342432144 0 -0.000016737145567401055 0 0
          -0.0001508279475984104 0.00008945116025200545 0 -0.00013221284000876707 0 0
          -0.000116537411515997 0.00008469810836407369 0 -0.00007776626063196928 0 0
          -0.00025233072783634224 0.0001514248839324315 0 0.00006327786585994797 0 0
          -0.000046640059471259074 0.00004625712182535675 0 -0.00010633245638660361 0 0
          -0.00004207852546472732 0.00004979644896291995 0 -0.00008789740022260251 0 0
          -0.00013839435313283525 0.00009465412737569156 0 0.000045346547379257476 0 0
          -0.00004301703766032216 0.000029481111456886842 0 -0.00010063626017823112 0 0
          -0.00015013889856481405 0.00010774390098039805 0 -0.000017324610700669263 0 0
          -0.00009200466403978743 0.00007172582749445742 0 4.585364349568792e-7 0 0
          -0.00012444842116199524 0.00008058948290308587 0 -0.00007395276911191389 0 0
          -0.00007690652653544403 0.00006534065791001593 0 -0.000029432855728669963 0 0
          -0.00006948927164737229 0.00004390336255555145 0 -0.00008160217344226658 0 0
          -0.00008679958175287913 0.00007469128605466538 0 -0.000033632050659732003 0 0
          -0.00006292029577463674 0.00005335778341149682 0 -0.00001654009418279814 0 0
          -0.00006867519934731336 0.00005170754056920512 0 -0.00007183278115343404 0 0
          -0.0000868478492646212 0.000076197285644626 0 -0.0000023803819385103395 0 0
          -0.00006198171797881846 0.00004889124615597473 0 8.092315866829487e-7 0 0
          -0.00005820386668007658 0.00005386214850829143 0 -0.000018360668936364973 0 0
          -0.00005152994082554841 0.000039784982328973716 0 -0.00003966617589186321 0 0
          -0.00004509690896924045 0.00004708368165442619 0 -0.000003066010374029167 0 0
          -0.00004572352146961315 0.00004086854634891372 0 -0.00004136372632706889 0 0
          0.000014191737464343028 8.146369215429024e-7 0 -0.00005708122877868491 0 0
          0.000016229850815792785 -0.000018795843556650305 0 -0.00006892372301166785 0 0
          0.000008143396498921186 0.000005210110960387577 0 -0.00004020347611136143 0 0
          0.00005546139899199544 -0.000013792103190048787 0 -0.00004648825490369341 0 0
          3.6097958354194377e-7 0.000005192552470949499 0 -0.00004438757499392804 0 0
          -0.0005073430592027169 0.000220631962549847 0 -0.002665779597284546 0 0
          -0.0008222602820539683 0.0013857097158861353 0 -0.0007412223798525158 0 0
          0.001286832000853185 -0.0012290867169945652 0 -0.0009513058616967053 0 0
          -0.0012861714657967933 0.0006450323431570863 0 -0.00009486114123517592 0 0
          -0.0002258412969337159 0.00014655918533004956 0 -0.0005190680814896176 0 0
          0.0003539121598247589 -0.00006765221774185719 0 -0.0005615531364344186 0 0
          0.002628311967416335 -0.0006803156039909043 0 -0.0003339432485017367 0 0
          -0.000342708895418934 -0.000227143800205223 0 0.0010163088943794202 0 0
          -0.00023493493689511575 0.0002657538193171263 0 -0.000282221984628955 0 0
          0.0001292255681729602 0.00003233526528445825 0 -0.0005204942264432477 0 0
          0.00003334505089620863 0.000007066073526276381 0 -0.00020936094923770186 0 0
          0.0010315440729166618 -0.0002904312224150324 0 -0.000014134505927030688 0 0
          -0.0004938432445019531 0.00024370201250841357 0 0.00004320212598298371 0 0
          0.000508969631542679 -0.00022066383894820194 0 -0.0003531134006346265 0 0
          0.0009192758134455204 -0.00015658120224522028 0 0.0011445562739935617 0 0
          -0.0003806391368683589 0.00019472447201347067 0 -0.0002088824135592522 0 0
          0.0008098884377907829 -0.00019898180286622612 0 -0.00033760984612027194 0 0
          0.0005107400453769813 -0.00016775122842135762 0 -0.00013397735620580592 0 0
          -0.0004945096975840109 0.00025407013515138944 0 0.00005832577525967748 0 0
          0.00021401395688842124 -0.000051501103933833816 0 -0.00023880270211904957 0 0
          -0.00009106441094323842 0.00005302307030279161 0 -0.00019367711615686146 0 0
          0.0012366899551530853 -0.00032419221113141243 0 -0.000003964015664246238 0 0
          -0.000018966988692445233 0.00004538517117260674 0 -0.00024245841086499603 0 0
          0.000001914277093492169 0.000009906898751433346 0 -0.00010443555485812464 0 0
          0.00013765975506613819 -0.000034995992309695 0 -0.0002394456574320531 0 0
          0.000039062905414132936 -0.00002114695181750646 0 -0.0001191101457581567 0 0
          -0.00045013794510184496 0.00009032185555620455 0 0.00044064234602379326 0 0
          0.0007032320545740303 -0.00021211427289591738 0 0.00002564655417276959 0 0
          0.00025507095516375466 -0.00009010372984569792 0 -0.00018893969125316604 0 0
          0.001098698893930237 -0.00021162844450465192 0 0.0005425836151378624 0 0
          0.0003721140963970621 -0.0000891739109151734 0 -0.0001845071519640391 0 0
          0.00023385399616117786 -0.00008303725140955413 0 -0.00008228454763321503 0 0
          0.0006688960647221575 -0.00016271445537714474 0 -0.00012350021298521477 0 0
          0.00002853425795302905 -0.000049004948344414825 0 0.00022841621223988485 0 0
          0.0001103886094701668 -0.000028834159020351542 0 -0.00010789954977041412 0 0
          0.00018888833269809413 -0.00003316887882343516 0 0.00034480901692618524 0 0
          0.000041665385558877565 -0.000002989250731587946 0 -0.00013022044153745925 0 0
          0.00004232680950977678 -0.00003386834319687061 0 -0.00011316843506071139 0 0
          -0.00004314771327585865 0.000026393353021563814 0 -0.00011172324208329697 0 0
          0.00017010817738171623 -0.000046813249308457526 0 -0.0001167691194134762 0 0
          0.00028217212135461074 -0.00006459669291358707 0 0.0005429141054384911 0 0
          0.000042484334197347484 -0.00000887362164925122 0 -0.00012018182526319791 0 0
          0.00010695891945428865 -0.00004094086948957775 0 -0.0000647729650898546 0 0
          0.000034197417369657876 -0.00001708894170581393 0 -0.00003158061083317179 0 0
          0.000020009825989814426 0.000005274181710644035 0 -0.00002089031357936333 0 0
          1.8931563261285617e-7 0.000002723232561431086 0 -0.000010814716905658893 0 0