<?xml version="1.0"?>
<VTKFile type="UnstructuredGrid" version="0.1" byte_order="LittleEndian" header_type="UInt32" compressor="vtkZLibDataCompressor">
  <UnstructuredGrid>
    <Piece NumberOfPoints="324" NumberOfCells="582">
      <PointData>
        <DataArray type="Float64" Name="Velocity" NumberOfComponents="3" format="ascii" RangeMin="0" RangeMax="0.6229406966690845">
          0 0 0 0 -0.045530329145573235 0
          0.016597006003737307 -0.03193265506919758 0 0.026480903891351312 0 0
          0.0334684663364842 -0.026030312297793474 0 0.022288758895544512 -0.0931227143434745 0
          0 -0.11822810829508862 0 0.03550318039148996 -0.005883300058751335 0
          0.052406738253016776 -0.04936132057395101 0 0.04662019091717509 -0.0072348825417365495 0
          0.030392675929852012 0 0 -0.018432230413822585 -0.1984926947713175 0
          0.07323042265997003 -0.014417110995536041 0 0.0848806833416461 -0.11093651617784231 0
          0.03526710000739961 0.011131762165220944 0 0 -0.09756683494307233 0
          0.05554407266455201 0.02991931717107155 0 0.01918603266927797 0.019168994189305462 0
          0.020863193718261182 -0.622591229230254 0 0.10867433338387233 0.04997446301833675 0
          0.02424675062023515 0.03863467231222019 0 0.23659117198829283 0.001255006049246537 0
          0.036483568371411854 0.08954606781218917 0 0 0 0
          0 0 0 0.18224614015813068 0.10323298101071822 0
          0.08185220659329086 0.13818782135438218 0 0.21355835001335044 0 0
          0 0.050050037568001554 0 0.41137365413769594 0.014214735124923328 0
          0.4810055429554537 0 0 0.10605185470468574 0.21847012211386635 0
          0.31019369355642806 0.11938601703792981 0 0 0.16441303037169275 0
          0.35948307979544025 0 0 0.1486093892640209 0.15822237027173658 0
          0 0.3297330319687773 0 0.18268620766385313 0 0
          0 0 0 0.008085999612929572 -0.01676937272656864 0
          0.014141635203046855 0 0 0 -0.022419703333150996 0
          0.005781815915437467 -0.1047516648870255 0 0.010222843982852338 -0.06872786848341582 0
          0 -0.08095263283863662 0 0.008443634527912306 -0.039730238135108675 0
          0.025311279195330036 -0.031067605096946053 0 0.021715224283121535 -0.014084586028855529 0
          0.01979684173281135 -0.05871260941582604 0 0.03135921925907852 -0.006505401088895217 0
          0.03252798380338918 0 0 0.028534241343534706 -0.01350316779178628 0
          0.04081254198959089 -0.019614499540196572 0 0.03554885625019432 -0.014828075314364312 0
          0.04092246181809879 -0.037391449912742875 0 0.03115171220074672 -0.054841634989069944 0
          0.014304323221909875 -0.13802576878654108 0 0.04315928094938778 -0.10927344144433504 0
          0.038768627632044306 -0.07481026219176141 0 0 -0.14185410083851285 0
          -0.0020925192659126185 -0.14414112795511794 0 0.03995852684168724 -0.0071773970513196355 0
          0.037038043001580576 0.0010267606456896771 0 0.03334761516817025 0.0001434505410188974 0
          0.0636800834596249 -0.03471126597202331 0 0.05122095404530406 -0.024964186200065002 0
          0.06635917277878883 -0.07445046195148629 0 0.05755736158706185 -0.010453775189574506 0
          0.052072138679552404 0.008020493390335117 0 0.041669116635354386 0.003862772425174603 0
          0.032829887968625814 0.005565881082610472 0 -0.033384589207950774 -0.3443362315398794 0
          0.036672120346594346 -0.1825934381448747 0 -0.04914296395628167 -0.15879968856929055 0
          0.0924164969903138 0.011622314126460746 0 0.06694886097206612 0.010807508204682884 0
          0.08563877644673432 -0.052689621348822706 0 0.15253610054303715 -0.07329614491455325 0
          0.08937185829020967 -0.22708856386262538 0 0.11700699838422363 -0.026920488743943233 0
          0.04288917241415709 0.018832817289068386 0 0.02975692531381738 0.024883217238720567 0
          0 0.1364131748336803 0 -0.16584421375416883 -0.2543862318054642 0
          0.07737056310986506 0.03965528895575408 0 0.049914721043803414 0.058247951915457216 0
          0.038866543350871495 0.03818375399748272 0 -0.07166074336439571 -0.3109965269653199 0
          0.3845010487699305 -0.08388952880166906 0 0.4258965960180702 0.017920162069129164 0
          0.23551002905083285 -0.12676180010375931 0 -0.4146205828531691 -0.12921773502669792 0
          0.1412166952684772 0.07392033534105165 0 0.10026082883827739 0.09161341175208274 0
          0.1618473943316579 0.030667954440083623 0 0.07094084071112983 0.07910353237924093 0
          0.029355312221899906 0.05923607460366689 0 0.012123375310117574 0.04434235494011087 0
          0.33991775623016 0.023242921880209256 0 0.3013599065734344 0.07687378869777396 0
          0.21821793356675837 0.054693578887825535 0 0.055423573224124785 0.11294854529513802 0
          0.02253009892577112 0.12511594754755895 0 0.014216859383469607 0.07047523197576905 0
          -0.11137466289978165 0 0 0.23657541216488948 0.13426348907293884 0
          0.1476585064218164 0.15502448069527724 0 0.1259331562814655 0.12455988555023954 0
          0.09453698990503026 0.17941607396583656 0 0.03976724924714682 0.16651170831571016 0
          0.49233454509581875 0 0 0 0.09304479467513643 0
          0.33590376160060126 0.04764464920803846 0 0.38023114807029307 0.06685819576017303 0
          0.430300982300837 0.034991956752305944 0 0.403793081428637 0.014628931334330358 0
          0.40329946794605376 0 0 0.1298181112541699 0.20675763599976987 0
          0.0883705474196674 0.3050942371119004 0 0.04107193812290086 0.2299191865787662 0
          0.18089696783225234 0.1672199631270183 0 0.2759395877057128 0.07354915770702924 0
          0.22669917234529818 0.1384821768799431 0 0 0.2917649449965886 0
          0.28908218123169493 0 0 0.17662814672720528 0.08022028165339568 0
          0.08347915909805037 0.09227215649957088 0 0.07614960846922181 0.23887079652689686 0
          0 0.1713295144833837 0 0.09907392712398089 0 0
          0.0020914309512289676 -0.14128791727273685 0 0.01004306956867367 -0.12138871683678329 0
          0.0018446483247624244 -0.12444639642107172 0 0.0018786612201864977 -0.16764861629212283 0
          0.02166728304049071 -0.158682798774992 0 0.028731802085648826 -0.12364960511543806 0
          0.060268940752740155 -0.11295656230090544 0 0.042282932973358826 -0.13936117616108837 0
          0.05475922686408831 -0.09186195169791067 0 0 -0.13471288209403126 0
          -0.015581605706242854 -0.14494052666383433 0 0 -0.13417056133508504 0
          -0.004558899626640204 -0.14283989420127635 0 -0.0105034343528183 -0.16598246315504844 0
          -0.017838459915935585 -0.15736565315763265 0 -0.0010462596329563092 -0.1311846181251033 0
          0.07488792201163427 -0.0902340326147963 0 0.07599897461276157 -0.0635700416501545 0
          -0.015385837801803769 -0.47633461466553945 0 0.0331752834228544 -0.3042845750583767 0
          -0.030857083181911216 -0.25509402786124774 0 0.013474547734103242 -0.24831588943371577 0
          -0.09410001194297145 -0.3417197739157749 0 -0.06810957009615586 -0.23944871595220638 0
          0.06404943989798247 -0.14918558660389997 0 0.056160523644974654 -0.20886034001550338 0
          0.006639397329407377 -0.2019700709126208 0 -0.03942884536149347 -0.18737047708406665 0
          -0.03872506119823889 -0.12477519504158034 0 -0.09884800047007093 -0.18746887987724925 0
          0.10072955842041022 0.02907245743845145 0 0.08489353005008943 0.02563880154110741 0
          0.10401273162878732 -0.005471224860797781 0 0.08902763671852407 -0.02053365361118098 0
          0.08733042866176871 -0.0786056628677488 0 0.09979553196532463 -0.0419334528540886 0
          0.19438595938599842 -0.03794229366010613 0 0.18750623389353868 -0.10206697627875896 0
          0.11520742367571338 -0.09825056012513375 0 0.13289801169808638 -0.14039763806047173 0
          0.16551610551585103 -0.018037567529744423 0 0.1344662370987507 -0.04752452044888521 0
          0.09044617665079084 -0.1566966869425805 0 0.07322292754596137 -0.3504547188996722 0
          0.15014371016643982 -0.2003188818051962 0 0.11763031679769258 0.012822856041559078 0
          0.13997725685389903 -0.0009196924036699728 0 0.10610161025026535 -0.06894660816773202 0
          0 0.33625833621528467 0 -0.45858359150969 0.17387013494750375 0
          0 -0.015913804896143115 0 -0.22016549610385827 -0.03171661770353238 0
          -0.09143993957742413 -0.5456828317551559 0 -0.3421588858685972 -0.24224732308919977 0
          -0.10524394146728665 -0.11960501610802583 0 0.09110587406527638 0.04454833213055098 0
          0.07415570191049745 0.05937941066749751 0 0.07730321692170661 -0.13202225087704592 0
          0.29016001035555317 -0.13742933038933988 0 -0.07201081482805115 -0.47916128715132184 0
          0.167088576422589 -0.2715419365948257 0 -0.18602255550613833 -0.14845120567242692 0
          -0.2878864180825221 -0.2764031888932563 0 0.4674832458881681 -0.001115511041348465 0
          0.4183688541471123 -0.024525053974939114 0 0.13187897586108735 -0.4049414956404261 0
          0.42590686163215846 -0.02946824265282982 0 0.4503050549860875 0.032473496936317604 0
          0.4172015539083955 0.050397723464038174 0 0.3658422109158171 0.013347653965293296 0
          0.21876794935695318 -0.2551211184273547 0 0.31128662616986735 -0.07816371188856701 0
          0.4385908234261827 0.05608922881735593 0 0.24820257919771818 -0.04963394066191838 0
          0.3039563979012539 -0.022782157196348556 0 0.16021055832181266 -0.290625514833292 0
          -0.2895422852815535 0.10092915855156237 0 -0.23885970784309132 -0.40584500037171223 0
          -0.2968011479832015 -0.03176786773203135 0 0.16073407024882108 0.0879510018463527 0
          0.13526776683012418 0.09875459628389165 0 0.12383398225181524 0.061197234060190266 0
          0.11968955897621421 0.0839322982071684 0 0.17575339979483093 0.06547608925133033 0
          0.15284458776049625 0.05283053611518587 0 0.09234371546765108 0.11403449745838698 0
          0.11259259954580587 0.10765063014242193 0 0.10565036057908953 0.07034069385001039 0
          0.08430132621672679 0.08575655798439125 0 0.07707624659416355 0.10533824848581118 0
          0.19630156286413636 0.016905539170105333 0 0.1879026617071471 0.0418060271179835 0
          0.1328477492467924 0.04174475001997918 0 0.0892816499445872 0.06695988236240846 0
          0.0631822069676273 0.09602603883718948 0 0.4068541256543344 0.00794851724274806 0
          0.39111332674319516 0.046595129114071945 0 0.28392728326716443 0.014951426599389042 0
          0.32402666686358383 0.04744915809299485 0 0.318627663147499 0.1323846440671042 0
          0.35596237605137027 0.10519234455014642 0 0.2719956743815375 0.0362431467231869 0
          0.27174986421523206 0.10887162585431881 0 0.2558182948947932 0.06513441404788295 0
          0.2017510759099803 0.07981443582153908 0 0.23392223096659204 0.092498774756711 0
          0.2302163672221014 0.028281003681803057 0 0.06863788990870782 0.1255681833247601 0
          -0.1441769886318447 0 0 0.04653668409484889 0 0
          0.2630313873842165 0.1648574917474526 0 0.20925067816661275 0.15456992864975955 0
          0.2083836602501284 0.11661612573466598 0 0.18765588665045696 0.1413821499805637 0
          0.12701122577233948 0.18326846950434686 0 0.16425321473745494 0.16355302127295807 0
          0.1664145752061365 0.1292087694372353 0 0.13696874398158573 0.14034268210025527 0
          0.11948186688680418 0.16824933277757165 0 0.15219965067815944 0.11437113088269318 0
          0.10268369231108353 0.1327836057387354 0 0.11117566943313831 0.15066827739240518 0
          0.10057320940485338 0.20078869889097312 0 0.08825786850942956 0.15789836736224297 0
          0.06440975306306956 0.17858343785281824 0 0.06800191168450241 0.2076370508601528 0
          0.06080972792021884 0.15234976483504617 0 0.01988362462357341 0.16546236934370145 0
          0.04063555575379506 0.19443354182622913 0 0.36199161627071785 0 0
          0.4992980618695898 0 0 0.391863957477835 0.04381883122901442 0
          0.36585857673509187 0.06713310543522166 0 0.2630425929324348 0.028236484667799155 0
          0.308854198708143 0.060007101135541085 0 0.31201956564769545 0.024963388742587606 0
          0.3771942344813016 0.034658287505684116 0 0.40402544669702756 0.03360005944355489 0
          0.3470525932163205 0.0948000939495904 0 0.335998929749222 0.08521929519245666 0
          0.42272291859182864 0.024937886244040253 0 0.44478332050775604 0.028556090994210526 0
          0.41345695498114327 0.014246683066035912 0 0.4113057344894726 0.01199320031006533 0
          0.41566324841859936 0.01483346490428511 0 0.3834266615900417 0.009537270320062949 0
          0.3535003978114967 0.01915047934026346 0 0.3985735348204814 0.00728981846358201 0
          0.4250811960328358 0 0 0.3860629465144262 0 0
          0.1455783469102116 0.1914002399746873 0 0.1115637460129888 0.2287606620955845 0
          0.10484694230131936 0.23508883527978697 0 0.11096471340875505 0.24660157629452545 0
          0.17526405277372895 0.17105809823030613 0 0.14546603720418674 0.17492914751247182 0
          0.027427353991557074 0.32751114321496505 0 0.08297378097529381 0.2737277085755342 0
          0.09419047880805881 0.2563390252079176 0 0.052558234634339826 0.29594772114512835 0
          0.02430995221153881 0.38483068132499343 0 0.07186500737269885 0.2401129858466828 0
          0.017656140130044542 0.197474342569054 0 0.02161592547719911 0.2648576848498373 0
          0.13874379864043385 0.186977527158914 0 0.22929654702820954 0.17074288102926705 0
          0.19078620719117081 0.17042029194253602 0 0.23323880707657085 0.03889582372553324 0
          0.30055384385292183 0.10383475639102072 0 0.2290647846287408 0.075690719003057 0
          0.2583071627597147 0.10687636222558705 0 0.19053289711510502 0.14507992102625633 0
          0.21207882604031258 0.11289390272518243 0 0.2675665850391207 0.13390384133180444 0
          0 0.38661591083501606 0 0 0.21434156458776762 0
          0.23950399703081882 0 0 0.33321993293926466 0 0
          0.1821898323278195 0.039151809687164696 0 0.13825878019585947 0.04210326706813916 0
          0.1626983215560368 0.12117419089371423 0 0.13078603933732696 0.08605151917428616 0
          0.02857329472399872 0.05040823062034683 0 0.09185850544365776 0.044488906497022515 0
          0.11892443522803209 0.13044238124359667 0 0.08090495700895284 0.16931864140444147 0
          0.030194677239014478 0.1316272646152597 0 0.11335510406453753 0.19671497747764333 0
          0.029059474168105615 0.27819879003598535 0 0.030293045331402868 0.20947339600327275 0
          0 0.09039409483640853 0 0 0.24815967618980087 0
          0.14100069060960507 0 0 0.03543886267569374 0 0
          <InformationKey name="L2_NORM_RANGE" location="vtkDataArray" length="2">
            <Value index="0">
              0
            </Value>
            <Value index="1">
              0.62294069667
            </Value>
          </InformationKey>
        </DataArray>
        <DataArray type="Float64" Name="Pressure" format="ascii" RangeMin="-8.257707111318146" RangeMax="2.5895120428026606">
          -8.257707111318146 -6.105695004649044 -6.612471142318908 -8.239578113132977 -6.223577428512889 -4.233330508820362
          -3.533695084908875 -6.8715589182522985 -4.46632446003709 -5.5034463598795895 -8.18390015594878 -1.9302900097705684
          -3.948204919425957 -2.636148993526938 -6.20719103185028 -1.3064165413535247 -4.460689959641819 -6.650326659285419
          -0.19790761735382484 -2.7208590450677788 -5.4581589715752825 -1.2861806067942003 -3.716061860860051 1.2023926519566732
          -8.174346552874828 -1.2659513015367292 -2.166346990194715 1.333975562562548 -5.235258043722977 0.25974522790060806
          1.2091747330002809 -0.7468033857079432 0.17308243755152997 -2.6147181589836523 1.51052330079173 0.9381174403613382
          0.4453266779782084 2.0926798339147954 2.5895120428026606 -7.435254142226638 -8.255292311623805 -7.1792797980831065
          -3.9878528804262263 -5.169856154817431 -4.81121376255001 -6.360718394407717 -6.420665389392745 -7.427537223871588
          -5.419625642654378 -7.553634534375795 -8.21350152909195 -7.230523580109811 -5.864005616675022 -6.546780029242103
          -5.341205402516002 -5.225947597521252 -3.0559796324310575 -3.4121275008158274 -4.352281473211295 -2.360642760783543
          -2.7197093087346507 -6.187674553955601 -6.539658937565563 -7.529506778830583 -4.207136341175819 -4.982018474902684
          -3.5307724975434294 -4.722393172738715 -4.982847621311336 -5.854230258947125 -7.19554559389953 -1.0585784493686519
          -2.269387579661276 -1.6041047693316743 -3.332863553064363 -4.201607934615065 -3.2801098458527087 -1.9458617928218171
          -1.52090856032522 -2.701196369675609 -5.335681415199029 -5.832675001712781 -0.24922577787375635 -0.7346729805673374
          -3.5767195898889588 -4.087286687349816 -4.9550747912956625 0.46985103857205146 0.2151357636108752 -0.4432333058155551
          -0.9737897550583173 0.46246991836699586 -1.9779265711491385 -2.44830655413481 -1.9635651409567056 -3.1897157769207602
          -4.591251258029863 -5.346708507649129 -0.6463058606265262 -0.6843031972011291 -1.2875747638092496 -2.9441768697229755
          -3.170342362712913 -4.47682669076442 1.26585280275609 -0.6332438081727781 -1.0366893146431373 -1.6855997903007254
          -1.4564538581470312 -2.3726923706464422 1.197241758915137 -3.9412043360503204 1.1710946106153066 0.20175843997672974
          0.7479349410108496 0.9234635646623419 1.31042862159807 0.05311219031224669 -0.20237306715728456 -1.5901553606266696
          -0.3229015778849979 1.193840749634269 0.5436105308658536 -1.2284033080663137 1.7731139395714508 1.530284205726067
          1.7845836874370158 0.6823734456352103 1.5508020962315503 2.3378687965857603 -2.9458070600105994 -3.521916256428642
          -3.3537810945804383 -2.485122249857197 -2.6590094799751176 -3.2340535666234427 -3.0158584677469706 -2.837684152822787
          -3.4714499991796286 -1.8086309532098306 -1.9881612270821534 -2.930750288771247 -2.543640948764479 -2.328258514112054
          -2.15552125787004 -3.1267021968217628 -3.0768039441933057 -3.405441171698069 -0.5783715546772678 -1.2849519174501267
          -1.515883084412692 -1.6852336545963855 -0.848016394976987 -1.338266249933604 -2.4523521387108858 -1.8817664715574727
          -2.0896322471469113 -1.7560423593997607 -1.4513049887093532 -1.2017843670430202 -3.0324715327297933 -3.454791571476661
          -3.0118545588223116 -3.306486699458536 -2.959339953743728 -2.989937896813727 -1.6131122422182305 -1.4421634596585113
          -2.286986762815141 -1.7461654821707844 -1.9676369746534044 -2.319162340075583 -2.0764243220160736 -0.9221773843034058
          -1.2345662165688587 -2.7148396140269573 -2.3368397730272648 -2.6756079837774585 0.35531028095377426 -0.051141004002425286
          -0.7990794939541421 -0.6061211720502355 -0.2039328660686014 -0.130021838830631 -1.0976046256741991 -3.143737077721945
          -3.3832176834048595 0.9061560013365425 0.8076898451177631 0.05963358803082844 0.31545207062909403 0.9381885823409009
          0.5498062448588583 0.725537179338476 0.7378315189984024 -0.1982298587372675 -0.11650016537127861 0.44690675721643996
          -0.13133760855652582 -0.4914278745338374 -0.4252913664356938 -0.7016675805481132 0.15597990140308354 -1.1399425019982714
          -0.8266091971276704 -0.7136071582929047 0.7412589212964824 0.21344785269883235 0.8594085502684118 -1.6199119599651566
          -1.8335729037010888 -2.344861039668868 -2.207374324000186 -1.6185747897777605 -1.9705651138833569 -2.3090120026946312
          -2.0675732426354987 -2.5844472675166323 -2.816124375924012 -2.684976189815222 -1.6056583782577267 -1.6147383074138988
          -2.330242373450454 -2.945988595016216 -3.0669463233218677 -0.3093367759654378 -0.3530266487082997 -0.9699978991855691
          -0.6653013130482144 -0.4352154756689164 -0.40770385737263226 -0.9823816160464305 -0.6723468630280294 -0.9801124660552932
          -1.2756198338232132 -0.9697520595805533 -1.289657514953036 -2.5552619299588453 1.180950913572906 1.3465837905692049
          -0.3930873385706234 -0.48207555784580486 -0.9257857671064801 -0.8101562979592898 -0.9008110152640016 -0.6784224306592963
          -1.1571922531781913 -1.3574103186628987 -1.2324037432402728 -1.4675820870585643 -1.9167781025198118 -1.5749737521515594
          -1.094096541074871 -1.812886250669579 -1.8971868214453311 -1.5185406462542024 -2.2695196804205784 -2.4937052648150475
          -1.9921512698057817 1.2674736349673326 1.176295908259841 0.7179555580216491 0.7072654057775636 1.6286109634949508
          1.1790753331825174 1.4774871044470679 1.0385727740111061 0.22924614685238814 0.18218557717796496 0.7043323827286687
          0.5087703825266547 0.982979112742396 0.8245500534955268 1.0389991639295 0.6052862607982485 1.224350411501226
          1.3423936748508545 1.1197218572572398 1.2479687997643238 1.3990990808089365 0.5103412686426101 0.3777524232250756
          -0.43662375738283243 -0.07347099788825377 0.2847847065610758 -0.201096638719544 0.08113645944475821 0.2463751954928899
          -0.50425583754569 -0.8975497279520428 -0.6077327386721318 -1.112552628214063 -2.1037714905583 -1.4142119555021053
          -0.5399628215854809 -0.1678801103179221 0.04495134725788489 1.6502397614202977 0.7099275817937718 1.3592691886577986
          0.8803873331993981 0.7405394192502679 1.0561866558186024 0.35465584738288336 -0.25457349861135103 -1.9587148498626552
          1.9271957504943955 1.6335162964173966 1.8152181349071224 1.9365687598407788 1.2388659230953172 1.6558656429287684
          2.1714100256391573 2.0613697327679468 1.3715070670936527 1.2465252234713633 1.6479001315729005 0.8085861365983307
          0.5394766034890144 1.1114980335004492 2.0691104893861607 1.0170052952036805 2.212468314253946 2.444672622405295
        </DataArray>
        <DataArray type="Float64" Name="ALEdispl" NumberOfComponents="3" format="ascii" RangeMin="0" RangeMax="0">
          0 0 0 0 0 0
          0 0 0 0 0 0
          0 0 0 0 0 0
          0 0 0 0 0 0
          0 0 0 0 0 0
          0 0 0 0 0 0
          0 0 0 0 0 0
          0 0 0 0 0 0
          0 0 0 0 0 0
          0 0 0 0 0 0
          0 0 0 0 0 0
          0 0 0 0 0 0
          0 0 0 0 0 0
          0 0 0 0 0 0
          0 0 0 0 0 0
          0 0 0 0 0 0
          0 0 0 0 0 0
          0 0 0 0 0 0
          0 0 0 0 0 0
          0 0 0 0 0 0
          0 0 0 0 0 0
          0 0 0 0 0 0
          0 0 0 0 0 0
          0 0 0 0 0 0
          0 0 0 0 0 0
          0 0 0 0 0 0
          0 0 0 0 0 0
          0 0 0 0 0 0
          0 0 0 0 0 0
          0 0 0 0 0 0
          0 0 0 0 0 0
          0 0 0 0 0 0
          0 0 0 0 0 0
          0 0 0 0 0 0
          0 0 0 0 0 0
          0 0 0 0 0 0
          0 0 0 0 0 0
          0 0 0 0 0 0
          0 0 0 0 0 0
          0 0 0 0 0 0
          0 0 0 0 0 0
          0 0 0 0 0 0
          0 0 0 0 0 0
          0 0 0 0 0 0
          0 0 0 0 0 0
          0 0 0 0 0 0
          0 0 0 0 0 0
          0 0 0 0 0 0
          0 0 0 0 0 0
          0 0 0 0 0 0
          0 0 0 0 0 0
          0 0 0 0 0 0
          0 0 0 0 0 0
          0 0 0 0 0 0
          0 0 0 0 0 0
          0 0 0 0 0 0
          0 0 0 0 0 0
          0 0 0 0 0 0
          0 0 0 0 0 0
          0 0 0 0 0 0
          0 0 0 0 0 0
          0 0 0 0 0 0
          0 0 0 0 0 0
          0 0 0 0 0 0
          0 0 0 0 0 0
          0 0 0 0 0 0
          0 0 0 0 0 0
          0 0 0 0 0 0
          0 0 0 0 0 0
          0 0 0 0 0 0
          0 0 0 0 0 0
          0 0 0 0 0 0
          0 0 0 0 0 0
          0 0 0 0 0 0
          0 0 0 0 0 0
          0 0 0 0 0 0
          0 0 0 0 0 0
          0 0 0 0 0 0
          0 0 0 0 0 0
          0 0 0 0 0 0
          0 0 0 0 0 0
          0 0 0 0 0 0
          0 0 0 0 0 0
          0 0 0 0 0 0
          0 0 0 0 0 0
          0 0 0 0 0 0
          0 0 0 0 0 0
          0 0 0 0 0 0
          0 0 0 0 0 0
          0 0 0 0 0 0
          0 0 0 0 0 0
          0 0 0 0 0 0
          0 0 0 0 0 0
          0 0 0 0 0 0
          0 0 0 0 0 0
          0 0 0 0 0 0
          0 0 0 0 0 0
          0 0 0 0 0 0
          0 0 0 0 0 0
          0 0 0 0 0 0
          0 0 0 0 0 0
          0 0 0 0 0 0
          0 0 0 0 0 0
          0 0 0 0 0 0
          0 0 0 0 0 0
          0 0 0 0 0 0
          0 0 0 0 0 0
          0 0 0 0 0 0
          0 0 0 0 0 0
          0 0 0 0 0 0
          0 0 0 0 0 0
          0 0 0 0 0 0
          0 0 0 0 0 0
          0 0 0 0 0 0
          0 0 0 0 0 0
          0 0 0 0 0 0
          0 0 0 0 0 0
          0 0 0 0 0 0
          0 0 0 0 0 0
          0 0 0 0 0 0
          0 0 0 0 0 0
          0 0 0 0 0 0
          0 0 0 0 0 0
          0 0 0 0 0 0
          0 0 0 0 0 0
          0 0 0 0 0 0
          0 0 0 0 0 0
          0 0 0 0 0 0
          0 0 0 0 0 0
          0 0 0 0 0 0
          0 0 0 0 0 0
          0 0 0 0 0 0
          0 0 0 0 0 0
          0 0 0 0 0 0
          0 0 0 0 0 0
          0 0 0 0 0 0
          0 0 0 0 0 0
          0 0 0 0 0 0
          0 0 0 0 0 0
          0 0 0 0 0 0
          0 0 0 0 0 0
          0 0 0 0 0 0
          0 0 0 0 0 0
          0 0 0 0 0 0
          0 0 0 0 0 0
          0 0 0 0 0 0
          0 0 0 0 0 0
          0 0 0 0 0 0
          0 0 0 0 0 0
          0 0 0 0 0 0
          0 0 0 0 0 0
          0 0 0 0 0 0
          0 0 0 0 0 0
          0 0 0 0 0 0
          0 0 0 0 0 0
          0 0 0 0 0 0
          0 0 0 0 0 0
          0 0 0 0 0 0
          0 0 0 0 0 0
          0 0 0 0 0 0
          0 0 0 0 0 0
          0 0 0 0 0 0
          <InformationKey name="L2_NORM_RANGE" location="vtkDataArray" length="2">
            <Value index="0">
              0
            </Value>
            <Value index="1">
              0
            </Value>
          </InformationKey>
        </DataArray>
        <DataArray type="Float64" Name="ALEveloc" NumberOfComponents="3" format="ascii" RangeMin="0" RangeMax="1.4440869606364117">
          0 0 0 0 -0.041779039887704504 0
          0.04914919503838033 -0.036254005897188656 0 0.07280978007311834 0 0
          0.0945409548406735 -0.04661607149628645 0 0.08335178236940942 -0.09983733077646037 0
          0 -0.09816253021884319 0 0.09183496206649669 -0.024878118192672254 0
          0.1464082791346957 -0.09935196377087718 0 0.13132026340420946 -0.05286109050331546 0
          0.06524954143055307 0 0 0.10972157811289082 -0.20203544738759277 0
          0.2118926790710311 -0.10952403867775995 0 0.22617971324833813 -0.21945413017667884 0
          0.084289003712891 -0.017473617954771023 0 0 -0.28399916340156484 0
          0.17820401312661566 -0.044636017685132215 0 0.04575578023445345 0.00029535977106913815 0
          0.2572287186615637 -0.42190721612128596 0 0.41264248212526816 -0.1664503939799201 0
          0.06315512808224157 0.005043194796402414 0 0.5910214972307977 -0.503087472110047 0
          0.17070362633284145 0.0415655803326212 0 0 0 0
          0 0 0 0.7855938587509892 -0.43758830649883385 0
          0.6631516673072799 -0.12205126573873921 0 0.26739287637974735 0 0
          0 0.020902767109868277 0 0.8086657843759844 -0.6950414315853559 0
          0.560865833707181 0 0 1.1270941530387255 -0.3669799718887133 0
          1.022107149786844 -0.6591858397032502 0 0 0.3903230599507008 0
          0.8539422890712832 0 0 1.1634956721553604 -0.06507090266889932 0
          0 0.028527135193916656 0 1.0370338280961977 0 0
          0 0 0 0.023667166053097217 -0.017257216557339132 0
          0.0403887387977467 0 0 0 -0.021924098938218953 0
          0.031205702692426552 -0.08376278046673194 0 0.0341458499676818 -0.06267964681916219 0
          0 -0.06292346899443033 0 0.0258275831732213 -0.03921009785245033 0
          0.07332836933268419 -0.04220153639843355 0 0.061451692648361485 -0.0185003674055154 0
          0.06306236432052588 -0.0648962941050011 0 0.08379505344440244 -0.014257391339695641 0
          0.08071855225596924 0 0 0.07888653858766859 -0.022628188654692113 0
          0.11412201690176277 -0.05223453380028525 0 0.09735350456249847 -0.03607630857958334 0
          0.11667611331537288 -0.07076072362841124 0 0.09352889196978044 -0.07410298616551006 0
          0.08997474872423364 -0.13337189628618823 0 0.13312632246976072 -0.1370105555416129 0
          0.1163909962502437 -0.10249824179236786 0 0 -0.15272944925694232 0
          0.041654492164136955 -0.13204902557306183 0 0.1074358554036746 -0.03804655167101234 0
          0.09108753117209784 -0.02429573006909589 0 0.07518185607797816 -0.009625770836091056 0
          0.17757163836599327 -0.10620210639620647 0 0.1460475931256745 -0.0768285040569998 0
          0.17328005910374053 -0.13668044690071932 0 0.1673608281629011 -0.07727708992013835 0
          0.15455980631259228 -0.053636308841192235 0 0.11243809811525421 -0.03478707429849093 0
          0.07352359161841067 -0.008545534180585955 0 0.18610519902201353 -0.29053164931585984 0
          0.17227088534697907 -0.22045354960527014 0 0.0634954733549418 -0.22388564490432247 0
          0.2789099478393109 -0.12589668950043847 0 0.20612495772851325 -0.07942762577470214 0
          0.2141165254219119 -0.15046030532151417 0 0.38994409945661673 -0.3523513535389567 0
          0.2825162843017276 -0.355053444580927 0 0.3229514177628455 -0.216888402364025 0
          0.12374445185917744 -0.030256386286186897 0 0.07414748558432671 -0.006867001169449834 0
          0 -0.5319604380553427 0 0.14415515072509497 -0.23989353316148826 0
          0.26132379476769646 -0.08055451476643608 0 0.1808434139790298 -0.011980394431771185 0
          0.12147952412433888 -0.011965004813725637 0 0.24672041022401886 -0.13535508165794624 0
          0.38289339163263514 -0.595483946132962 0 0.4901525662723391 -0.6675981705301908 0