<?xml version="1.0"?>
<VTKFile type="UnstructuredGrid" version="0.1" byte_order="LittleEndian" header_type="UInt32" compressor="vtkZLibDataCompressor">
  <UnstructuredGrid>
    <Piece NumberOfPoints="455" NumberOfCells="840">
      <PointData>
        <DataArray type="Float64" Name="Velocity" NumberOfComponents="3" format="ascii" RangeMin="0" RangeMax="2.235993157093727">
          0 0 0 0 -0.12583582681850525 0
          0.13104146304554162 -0.09373281689402439 0 0.1997205858664829 0 0
          0.252342790200823 -0.10194281888409983 0 0.20878156011915688 -0.24535814846424345 0
          0 -0.2723965468035448 0 0.2687398285171412 -0.045705998156362546 0
          0.3773895553001155 -0.21356320273873597 0 0.3449693623306742 -0.09077623495702247 0
          0.22976249400426518 0 0 0.20133966732014083 -0.3576490046215109 0
          0.5196553864050462 -0.19119765638470196 0 0.5288753312345607 -0.4440337752949132 0
          0.2683619790351842 -0.018382771567107773 0 0 -0.472458142618952 0
          0.4275629108469412 -0.026262215298099224 0 0.14848240010828334 0.02101460348365217 0
          0.3955670100158408 -0.4801569775520457 0 0.8478566519367361 -0.11787414434408605 0
          0.19296340502123563 0.05144932546622374 0 1.1942289885363808 -0.5280332743917264 0
          0.32502346220327755 0.1818887400160344 0 0 0 0
          0 0 0 1.5380283171335496 -0.19451913167228208 0
          0.8487818708106715 0.3009583681683529 0 0.2902864616397023 0 0
          0 0.0876464784823549 0 1.1655088703218819 -0.09928809603994448 0
          0.8256331026066077 0 0 1.6865029120533614 0.8826854146999688 0
          1.286421106068433 0.06360689742908657 0 0 0.4703057638272151 0
          1.1092535909157692 0 0 0.8719555382729127 0.6374915984336686 0
          0 2.235993157093727 0 0.7990810955608285 0 0
          0 0 0 0.06326453180836712 -0.04736364250582626 0
          0.10924852218541997 0 0 0 -0.06254144508606707 0
          0.08616565130217634 -0.251519516869509 0 0.09205709084393539 -0.18179837407634108 0
          0 -0.20288973786040396 0 0.06879011582660513 -0.11030291881873588 0
          0.19539754824105723 -0.10063044790533317 0 0.16666544027903774 -0.04485111109415729 0
          0.16353166207936873 -0.16614490294383086 0 0.2372689886673206 -0.02941891963116267 0
          0.24839387633732485 0 0 0.21640725383431197 -0.050429499457288286 0
          0.3034641759932954 -0.10392890105594008 0 0.26738008860230456 -0.0729912426680709 0
          0.303765239933222 -0.15240348588851424 0 0.2426951426897309 -0.17463475015014085 0
          0.21456232529506106 -0.31878518617498536 0 0.34068677654863283 -0.3210489508643058 0
          0.29997507608868135 -0.23834102325248982 0 0 -0.3306186281048124 0
          0.09664879622532191 -0.31426973923848367 0 0.2993396200698746 -0.06790181189658963 0
          0.27935158966201645 -0.037783692784689904 0 0.25070664491337014 -0.015921977262259714 0
          0.4486252136517931 -0.21126507162710367 0 0.3724640236908556 -0.1496540633257812 0
          0.4535793033696755 -0.310820026826619 0 0.4187099919515838 -0.13276733257948736 0
          0.38875626507038735 -0.0714790402344922 0 0.3135663526259964 -0.05039822799594699 0
          0.2490622365197247 -0.009191385783553887 0 0.2565387469767331 -0.41564420138666586 0
          0.35436358598008827 -0.4265531508660605 0 0.11258563827071666 -0.34047543815204184 0
          0.6617266899925635 -0.17999705685225156 0 0.49450556949510877 -0.10649811308371485 0
          0.5604782047402462 -0.32278659749296945 0 0.8072097584726734 -0.6310588037890149 0
          0.4914694682256109 -0.6222052164103177 0 0.7505671190644091 -0.37477607289485143 0
          0.32766303646609624 -0.023391398166100703 0 0.23066269202820994 0.01653327694955798 0
          0 -0.513637710944981 0 0.18744325729149935 -0.1886333836173412 0
          0.5970345413837921 -0.05482317454902727 0 0.408934313603735 0.06383212604265055 0
          0.3078170143338991 0.02914313589367086 0 0.338594633754194 -0.16869845755039464 0
          0.6526609651289708 -0.23659027316305148 0 0.8704942142493725 -0.36560102773834346 0
          0.7878489475574404 -0.6282221086719783 0 0.20573199458720998 0.2224399288569472 0
          1.1521871446497436 -0.1514376824370818 0 0.8879733243521695 0.06106191883979457 0
          1.1186932008485042 -0.37271512274638413 0 0.6101939344062621 0.08827275883928797 0
          0.2436928369256426 0.09735559257508497 0 0.09648170251061781 0.06954790197428933 0
          1.1977522044318998 -0.27601198563166257 0 1.3092279823508297 -0.17476817041524184 0
          1.3350021165809285 -0.3203475103257594 0 0.5266101321283821 0.24290625896824342 0
          0.21428714482202965 0.31290308947947976 0 0.1226651358480397 0.13917283617926204 0
          0.18445806386764652 0 0 1.404956268903064 0.018134618103237722 0
          1.695468784327842 0.2516863179891494 0 1.2394671031197841 0.13707655664221113 0
          1.152911476690667 0.5146419116586748 0 0.4387010324669673 0.47063459203663105 0
          0.5314451926653083 0 0 0 0.21654715998702553 0
          1.1614236557621278 0.04303469010881032 0 1.2421862065796332 -0.044268427044260455 0
          1.0215973992302843 -0.09723819428832642 0 1.1628968406220068 -0.02669734046997116 0
          1.0361247659741681 0 0 1.260365113661064 0.8533418574967068 0
          1.3313313268614784 1.6331769579118511 0 0.5362632366076013 0.7497483677973814 0
          1.4088364191042668 0.3386563146595608 0 1.089502160512485 0.144459068982314 0
          1.172852577342332 0.3145521152596203 0 0 0.9688486585648284 0
          1.0710526466199466 0 0 0.7864435099525671 0.3047195842215015 0
          0.3872863887841259 0.4006558722865192 0 0.6994267347702914 1.253625004713681 0
          0 0.8373899319052147 0 0.43459535236565827 0 0
          0.09629870477219592 -0.07072160903619086 0 0.11745830986264917 -0.04655593299470308 0
          0.03137041345063 -0.02375261888571678 0 0.08642229304965576 -0.023501336356505143 0
          0.03204326289177977 -0.05500217066083672 0 0.0654809570652061 -0.07867368642919521 0
          0.15789213505898428 0 0 0.137784765917451 -0.022897502214450194 0
          0.055843145509182374 0 0 0 -0.03122060124515493 0
          0 -0.09405872319675106 0 0.03327258120108077 -0.08644432533009884 0
          0.037792999461480195 -0.1890110070717184 0 0.08994179715401475 -0.21748058140980533 0
          0.14333821572878097 -0.31081089067335155 0 0.14737781588688248 -0.2822036368679469 0
          0.09205097354031219 -0.285901763861469 0 0.04106944468980801 -0.2267849714249611 0
          0.043425389840075636 -0.15359933534184342 0 0.14672089193354612 -0.21163620722489782 0
          0.14829213935477026 -0.24827907905164132 0 0.07942401444590311 -0.14587734586233025 0
          0.12891947073917578 -0.17433343443694807 0 0 -0.2395284875331796 0
          0.04416321302956928 -0.2622734438979311 0 0 -0.16457457200695802 0
          0.035024317116642764 -0.1181315828452986 0 0.10094177784971987 -0.10221705187163209 0
          0.11361128098525129 -0.13786513460339778 0 0.2250464265116303 -0.10223715909509883 0
          0.2067452325095369 -0.07482135505197425 0 0.1639206873995288 -0.09765964672196303 0
          0.17918876531958935 -0.0724320812694088 0 0.21634694174263464 -0.13625673358288737 0
          0.181450294996169 -0.13331003407126474 0 0.18304459419105704 -0.02173672248628824 0
          0.19290148380368838 -0.04816134384362447 0 0.14959273686252225 -0.06898741852869343 0
          0.14563151908913452 -0.12929865252102427 0 0.1847059662206192 -0.20468039434811686 0
          0.2032802995402321 -0.17093097667840187 0 0.25369075975190075 -0.0393769986183256 0
          0.2523685686733488 -0.02255844801004764 0 0.21903449356849353 -0.016010683727348932 0
          0.24268943516494176 -0.0133425890956841 0 0.2492709765908702 -0.05102940405973746 0
          0.22799689591683292 -0.03962357560701245 0 0.2296111365532594 0 0
          0.2495502606253475 -0.007960988631129857 0 0.2317203014419391 -0.07577448376532302 0
          0.241923699741463 -0.06323466178269405 0 0.20582528342264023 -0.025346539092366005 0
          0.3258231317705196 -0.09963528754448767 0 0.30347773168810976 -0.08565484319374816 0
          0.2787576623381073 -0.10444683495905291 0 0.2837412700939294 -0.0881869808700188 0
          0.3344239515925664 -0.12571124792084074 0 0.3056573078433113 -0.12778266215334927 0
          0.26980670911401716 -0.05894324660699524 0 0.2849349977181746 -0.0721679435622072 0
          0.2615351458032826 -0.08744594283595301 0 0.3375380529805383 -0.18113542829583848 0
          0.3385290028343537 -0.1531759901768757 0 0.27553625909768775 -0.12628597855298526 0
          0.30609490335702244 -0.19530187182796555 0 0.275724924817125 -0.16517598203463668 0
          0.24988481015859396 -0.1375743382545439 0 0.22923807273437113 -0.21123901196624792 0
          0.2695094019786799 -0.2050265375718411 0 0.21045275087487364 -0.34536292372667954 0
          0.2805910212659257 -0.3631311746567631 0 0.21351341383366956 -0.2839362316405958 0
          0.278592672864882 -0.32333367470782454 0 0.4252294682066647 -0.37461905246114563 0
          0.35345749566900153 -0.3755359009692169 0 0.26965435882707917 -0.27913062045574594 0
          0.32086155551455764 -0.27827590843851274 0 0.3984671661345136 -0.32053176518041865 0
          0.3413052804414597 -0.22891781131462485 0 0.25527785499580213 -0.24323276657949303 0
          0.36979044651937215 -0.2720850394056447 0 0 -0.3666973931223975 0
          0.053823254492963796 -0.3467830859076557 0 0 -0.3025706885725493 0
          0.049432071096406134 -0.32101191127329254 0 0.14879872036869085 -0.3344971625341956 0
          0.1020814832942122 -0.3349629692042479 0 0.046719603857549294 -0.29355690719695954 0
          0.319966909043331 -0.07914765890769493 0 0.30907596563744405 -0.060849003247427084 0
          0.28247085625371643 -0.056822693670776823 0 0.29082672200200427 -0.05209326062148695 0
          0.2764229800825316 -0.043247544949950395 0 0.29645897114400643 -0.04409096039031844 0
          0.2650291172876933 -0.02685283502347481 0 0.261023716373247 -0.02885835112449068 0
          0.48452008681319625 -0.2040477713392465 0 0.43744035905554 -0.1710264575933178 0
          0.41277248164811275 -0.21410050318943954 0 0.4080747959426043 -0.17813441826290105 0
          0.5020264665819963 -0.2611552523083866 0 0.45737201548232964 -0.2616553511686995 0
          0.36108916940446184 -0.11906116911043332 0 0.39636736330440303 -0.14306612011595357 0
          0.378134554188484 -0.1815539324815298 0 0.4144433397604149 -0.2584144174467861 0
          0.4927941562312015 -0.3722641093437722 0 0.5053189927977807 -0.31880774650165766 0
          0.4656962894739168 -0.1594834718287496 0 0.4559385044132979 -0.12336040908562813 0
          0.3785483246599807 -0.11012766256274364 0 0.40765420635885946 -0.10187851314189172 0
          0.40931044425546625 -0.05275463118414133 0 0.43704094569057256 -0.08732196773839071 0
          0.3670629026841067 -0.08375104477669434 0 0.3600687443171492 -0.04547657938695284 0
          0.3461156857610849 -0.05976676563107284 0 0.33102598997607746 -0.06952592374237329 0
          0.3206146945460463 -0.036894813081023846 0 0.25209976759377944 -0.5249155930033059 0
          0.3597740039250461 -0.5426132656416269 0 0.23685446545111757 -0.376031185839827 0
          0.31758968023205697 -0.4484093416395147 0 0.20179277985409524 -0.2900051317030289 0
          0.19035804059900338 -0.3204552378589336 0 0.4424451606080825 -0.4471636300021969 0
          0.4181513120394876 -0.5073609772108035 0 0.27246424861547885 -0.39112790150536236 0
          0.15432273385575648 -0.33688226834747814 0 0.06706810172190632 -0.3822310579588337 0
          0.16171646779981175 -0.2947309119580055 0 0.7482614913943015 -0.1575759523009135 0
          0.6372024462138027 -0.11628633908288935 0 0.5860654084483815 -0.19000563675017124 0
          0.5714221458376348 -0.1380672292137569 0 0.7176295555566852 -0.2716618322346907 0
          0.6262419706943729 -0.2666660470840446 0 0.46589923433469427 -0.06487786025203732 0
          0.5438434617911111 -0.08658061189236521 0 0.5125722664661365 -0.149302432011145 0
          0.548107387592658 -0.2555670372169453 0 0.5545420293480117 -0.3879551171309753 0
          0.647355537284922 -0.34972259279727175 0 1.0164204982905631 -0.7795280235338462 0
          0.8156500744075331 -0.8149467241640076 0 0.6506783746111514 -0.5260004495930016 0
          0.6533946237210193 -0.6575942864039985 0 0.9794438617725677 -0.5522733980815324 0
          0.7921041804977964 -0.494671560240664 0 0.5283411132258462 -0.5372891917203003 0
          0.40483844086112103 -0.6983892281598234 0 0.6082252267364121 -0.7800471660775093 0
          0.8248543285739456 -0.2664917329627272 0 0.9134270493635882 -0.3912322940869199 0
          0.64576553856839 -0.43312369618674273 0 0.37154565203809314 -0.024787117744330792 0
          0.3177400253999977 0.0028758688637850784 0 0 -0.2569599901243798 0
          0.23014328780222243 -0.01058660499535291 0 0 -0.7590521572705666 0
          0.25261187017638004 -0.21254359479316542 0 0.1649114694953424 -0.2775558956915284 0
          0.1894911604864809 0.1053334866576463 0 0.1430287948050528 -0.3307713864179364 0
          0.709928180253083 -0.08006520597625158 0 0.6122580813855433 0.009078430604660086 0
          0.5040847462431801 -0.03787231872503076 0 0.5085957993053665 0.013646018105489576 0
          0.3771008658095449 0.119899257970745 0 0.4981303869723596 0.0761708048638323 0
          0.4246178119221733 0.014876689769728661 0 0.35156099260314205 0.043927044815741716 0
          0.32307628239713754 0.08693405408893047 0 0.3676030324768442 0.00618853533477426 0
          0.27575492562977083 0.06324936423437791 0 0.31185211754531805 -0.06011348272944542 0
          0.44162728664383777 -0.10258619455166207 0 0.36468050983999595 -0.31793445440818724 0
          0.4965252768649425 -0.22888870128365696 0 0.20465390196064548 0.053803159795803523 0
          0.2108487070201489 0.022244220296852246 0 0.7453172222614716 -0.1118427822383827 0
          0.5940440915199859 -0.11767889893504462 0 0.5369152410802731 -0.3652420190391296 0
          0.761762819730748 -0.30635004866898885 0 0.8565747670179912 -0.1724041319265159 0
          1.0606889338879852 -0.25025517062563934 0 1.0478052249189143 -0.3592827261774314 0
          0.6406817567405376 -0.445875651722467 0 0.8352032034583758 -0.4921447090954003 0
          0.967668155737275 -0.22322026043352586 0 0.9926433779228426 -0.6224093266505799 0
          1.0226970502111663 -0.48431856600622547 0 0.5903927741268115 -0.5778001087324209 0
          0.20776268163551675 0.055152243364265274 0 0.21805926720260954 -0.09510451324737057 0
          0.20654042015787866 0.14677459327935966 0 1.3475506238209907 -0.17821323249642482 0
          1.20278049736039 -0.02178463473622266 0 0.984829919701394 -0.13157245441503404 0
          1.0238908430405493 -0.030366096047074593 0 1.3812226018889002 -0.3692015684914069 0
          1.1566896911034172 -0.2788500544689503 0 0.8811716911935223 0.17482571358567872 0
          1.0457943950702855 0.09395088205131737 0 0.8751097110320067 -0.036874804690081274 0
          0.7376242498710247 0.08053470574569875 0 0.7157829902437111 0.1733806741287874 0
          1.2146165560962079 -0.5457910494285233 0 1.2977962239501755 -0.4172836036046836 0
          0.9885749269252703 -0.23192072387580417 0 0.7401118430264884 -0.0015316428816539306 0
          0.46769275980272046 0.1487332046501295 0 0.5791688280875372 0.16331186190228403 0
          0.2795211834346119 0.13382923260906754 0 0.18317898638684116 0.11826421437717351 0
          1.1914891969198849 -0.17725254137275148 0 1.2416485074606625 -0.1436661277915839 0
          1.1939316789363021 -0.3906358097351337 0 1.2561470037479674 -0.22726749022417703 0
          1.3191275379974197 -0.04530789263901716 0 1.2792805786396098 -0.09421362870782006 0
          1.2667502598307439 -0.33583479788131027 0 1.358889298837005 -0.08483024047886895 0
          1.3353486453740389 -0.24378008954188043 0 1.4236019048673334 -0.25073794952371925 0
          1.3961804657381747 -0.14916972678911558 0 1.2728948439236532 -0.42329257178974417 0
          0.6694639116248424 0.2744811614563922 0 0.4983303894208951 0.3474872100961484 0
          0.4136557213005275 0.2112737406810635 0 0.3760238508563443 0.2928790046759806 0
          0.12688882724785347 0.3928516927901737 0 0.31183546157182324 0.3863117891121643 0
          0.2837368344685815 0.24681846292795437 0 0.16847614033503466 0.2260379628293709 0
          0.10714357241101483 0.26472512473325266 0 0.2132614623997241 0.16783289465367507 0
          0.2009981874356569 0 0 0.1933230223054312 0 0
          1.3354409529884392 0.05983281247271903 0 1.4242935258452984 0.18009480079404416 0
          1.4839040581648892 -0.07065523474629885 0 1.5428667488569958 0.12204448544208688 0
          1.7212926571395837 0.5450818358579844 0 1.568410906757542 0.3176672372452059 0
          1.6305809061185519 0.025926624278435312 0 1.4426537966801436 0.19307703368568455 0
          1.4382557688456334 0.4199510768754851 0 1.412524431824379 -0.007135263919299151 0
          1.0460679530111294 0.23935456608558162 0 1.2192730852619078 0.31951706866849966 0
          1.3763717054160065 0.6706435702289095 0 0.9827233311840953 0.39493302647062806 0
          0.7523151791711492 0.5217632651977934 0 0.8701193554696723 0.6684595218443568 0
          0.6574546522427138 0.40745872669137245 0 0.21270448655453075 0.49053380006122027 0
          0.4845458693883489 0.593840948681919 0 0.3907273580234858 0 0
          0.6831391142514058 0 0 0 0.3176329307672693 0
          1.208635620155368 -0.018490230406032315 0 1.214671173301389 0.01833081726962342 0
          1.0404403437312366 0.058135816148324054 0 1.139528678647209 0.08368005850590927 0
          1.124765355008285 0.027205716928519585 0 1.191294059582119 -0.0011311557715858456 0
          1.212071815770099 -0.07987893267673304 0 1.2632789453475233 0.006935231867236602 0
          1.2112573230818722 0.06384862534539258 0 1.1178433532795915 -0.12200105384014928 0
          0.9212916497038939 -0.054295557314086355 0 1.1132420585557745 -0.07154906875981348 0
          1.025999079733805 -0.04471163986788593 0 1.1703754506327526 -0.05854719137172987 0
          1.1437477030494396 -0.0059820696251993155 0 1.1617366545940286 0.000618120491419849 0
          1.1079974469693816 -0.028160848481071546 0 0.9411357776872773 0 0
          1.096870548754046 0 0 1.0539109057971816 0.7704711869269549 0
          1.0468688500905652 1.0869784397138593 0 1.4655338024333724 0.8797459277901429 0
          1.2956246989580378 1.193768731098833 0 1.198886035700669 0.5454653231461533 0
          1.3583347331134534 0.5678824526491327 0 0.6118699227022187 1.7228322524449586 0
          1.0093614596839031 1.5196174912039757 0 1.534389582155516 1.2204620596573441 0
          0.8019139645445876 1.07863008686384 0 0.4565867395752593 1.2590013279512213 0
          1.0192940594312414 0.8580952964050452 0 0.2082273935108483 0.6109769276832707 0
          0.3020298698677329 0.8749016995838697 0 1.5435395986628744 0.5648908006954314 0
          1.319604419312629 0.18992265867079855 0 1.2790563359254918 0.341648450580758 0
          0.9526435679677387 0.11458621280511277 0 1.1898828196971416 0.1259863326518491 0
          0.9652642600259438 0.23235729907029853 0 1.1052450218572027 0.23048851872804882 0
          1.0556726203004991 0.4807283982747583 0 0.9858983011231949 0.3532274112879761 0
          1.242672998126037 0.1837254199982341 0 0 1.3970534963838985 0
          0 0.6751710939624093 0 0.9838807588967842 0 0
          1.1133866250086712 0 0 0.7772229337521281 0.14851155208867914 0
          0.6065700657560203 0.17290003437546192 0 0.8008496662708002 0.4684811533074697 0
          0.60375768610342 0.35778462934919514 0 0.11880025346477452 0.21828306643346862 0
          0.40805716012052806 0.1882001909664026 0 0.6106658162976218 0.5579095607367275 0
          0.4672945849120963 0.7838156349787223 0 0.1658056441889224 0.5939611954160725 0
          0.7928412800178944 0.9059330652460216 0 0.47962131000403097 1.716183353170895 0
          0.27645951536058305 1.05365206291209 0 0 0.408817159547913 0
          0 1.458240738183553 0 0.6275526405913715 0 0
          0.13505736342734398 0 0
          <InformationKey name="L2_NORM_RANGE" location="vtkDataArray" length="2">
            <Value index="0">
              0
            </Value>
            <Value index="1">
              2.2359931571
            </Value>
          </InformationKey>
        </DataArray>
        <DataArray type="Float64" Name="Pressure" format="ascii" RangeMin="-7.728596272430486" RangeMax="3.1609912056685174">
          -7.728596272430486 -5.578536014287587 -6.082938938738091 -7.708024610253858 -5.6860143328691155 -3.7004064573234383
          -3.021825589460673 -6.339325367458821 -3.889668292641495 -4.954867505291442 -7.66728368943239 -1.4096599143844128
          -3.3140491818171873 -1.9001680772540224 -5.686497470089967 -0.7303672846912618 -3.910705932045106 -6.140108007869177
          0.5460321431942323 -1.9973207930836347 -4.950363384293975 0.12614552120192157 -3.227350336691774 2.2120974920557397
          -7.664588785444309 -0.14940194488000164 -1.6840312594313114 2.3879721696228806 -4.731957047296782 1.9468950143049386
          2.797144715918629 -0.5288565274965579 1.7139478599245432 -2.2248083347996412 3.0092486272014725 1.7215182353958625
          -0.9104696438627589 3.1609912056685174 3.0144980064829996 -6.906105035455203 -7.724405259445584 -6.6512006090734035
          -3.4723270156182924 -4.644202696678999 -4.290098783506867 -5.832653711846821 -5.887305356287289 -6.8959916905637915
          -4.889066742936036 -7.021922103877681 -7.680912625141644 -6.6969426798603156 -5.320353217540482 -6.01141080209717
          -4.791557481061615 -4.686442696800855 -2.5376975180417585 -2.8374967506732776 -3.79285534050614 -1.8353880933234539
          -2.2165628524448495 -5.649136568170458 -6.00898494100864 -7.002652131500521 -3.602941177817573 -4.419014336567966
          -2.9107861211283734 -4.1459613095272765 -4.429971835690206 -5.320489501968569 -6.676890579761178 -0.5946270415614814
          -1.6613736976275597 -1.0688025311365221 -2.651534136951402 -3.610995466640431 -2.583237232592143 -0.8999096357257461
          -0.6914182592018467 -1.867015508763851 -4.806557386375365 -5.318430427191971 0.7149334289764779 -0.30945377284967357
          -2.9767181271754453 -3.563583353793634 -4.439380020678731 1.51621965705713 1.7822806095651589 1.3755546443199886
          0.4184426437917089 1.2461120929751948 -1.1202985164575712 -1.8262983150548693 -0.940851236385423 -2.6446298138837374
          -4.089695597917646 -4.841160215795378 1.0426803696071074 0.9072760238254716 0.0263013258359757 -2.461293092355913
          -2.718410720559272 -3.98349373861948 2.25401166847343 0.7915619287262773 -0.23451328860662307 -0.9880364884007585
          -1.0608492518213573 -1.989941139152605 2.6085101646197715 -3.460281156092767 2.5799610519302227 1.8352489676147306
          2.393100928143588 2.4840701940575833 2.912267646258924 0.687132063239967 -0.7749248009844831 -1.4088980269660123
          0.8692833951379098 2.474987788137369 1.7859476525780784 -1.2641452491284408 3.1118727738759375 2.5114919214688642
          2.36897739748075 0.6504780803263454 1.544517160362543 3.0873570634688714 -6.494570761269823 -6.902791379832267
          -7.317403254695821 -7.315441617193513 -6.778928731858607 -6.368625477686258 -7.7184015783895 -7.310578385259104
          -7.727770185687578 -7.189329737087411 -6.114154211872202 -6.241735295194361 -4.521337675789658 -4.056197483893014
          -2.4317596017251524 -3.0082917693177165 -2.8402932775234055 -3.8811163833533344 -5.11143615074832 -4.175268499884385
          -3.5885657896687477 -5.236798342176799 -4.767060960176842 -3.652554134283953 -3.246563867475202 -4.9327364895802095
          -5.70600344321551 -5.958359990452267 -5.361625434368221 -5.787236339182316 -6.291919952585767 -5.986358399087639
          -6.3915241215617 -5.28756634010047 -5.3870858178833325 -7.302461140855012 -6.7970990374057685 -6.489770242338225
          -5.485557186925154 -4.29421113222331 -4.789170867431123 -6.6800362542367875 -7.011185113864801 -7.364517117905361
          -7.352002046581192 -6.517520732908619 -6.8596163968658335 -7.694342038281443 -7.341782378321083 -6.1918833271552005
          -6.354261926360936 -7.202211455620684 -5.1375029157137915 -5.484021092735608 -5.503384404610558 -5.666261538096714
          -4.871335892038099 -5.055460420905629 -6.174632772552348 -5.829907101703976 -5.848184937914106 -4.341052164107598
          -4.605808589929264 -5.239336899998196 -4.290447016326779 -4.738740434916097 -5.18428682790196 -4.191356682417504
          -4.24069889978268 -1.9651604684311812 -2.110582778661413 -3.1135204433306103 -2.688559166363724 -2.3854602693875844
          -2.247819540945157 -3.275282425403004 -3.3145735249537975 -2.8729264998767268 -3.839823252510876 -3.7476454342791254
          -3.3582800866284077 -1.2628929221385659 -1.45240741873915 -2.4201400249536604 -2.0276888200592444 -1.8134454894104317
          -1.634472931016659 -2.618676891493735 -5.302948421218845 -5.483790627906362 -5.994469927784022 -5.829098510130421
          -6.174095587369606 -5.664737221488604 -6.50581853625458 -6.671353096720864 -3.4587436230579276 -3.872058219804033
          -3.747470616188734 -4.013086136811674 -3.101004899024172 -3.2519346320209586 -4.686092152719308 -4.2820495737199025
          -4.1538295378725545 -3.4035144767121035 -2.4132162568897915 -2.7498492076089183 -3.7340954258317196 -3.8782390729059397
          -4.551825289201202 -4.286831088999729 -4.170059645712051 -4.023364666595739 -4.691245241810597 -4.6179575487826785
          -4.877139049702212 -5.137186788622402 -5.063523444171967 -0.16191205024302424 -0.6567222142504844 -1.00868904741916
          -1.112520747707319 -0.4765051752138192 -0.8600534376029672 -1.7792707340292795 -1.1960574965914195 -1.5441264623489963
          -1.2402686185195664 -0.8891772198393342 -0.6952245088081989 -2.3190219205354174 -2.8121816209580324 -2.981804750087301
          -3.136928255377546 -2.262101270803667 -2.609058541230987 -3.761312774873519 -3.292167125635171 -3.461945043243682
          -2.944397677046997 -2.2368217256544063 -2.234657443989923 -0.3258959567150572 -0.20876611596127037 -1.425732699961478
          -0.7805543942318081 -0.8672097449742351 -1.3865536673254035 -1.2851169421943425 -0.15158750586583397 -0.15348519070951738
          -1.9090503666912044 -1.4071939155483435 -1.8713906982625357 -4.36051082171977 -4.622968703527048 1.5305973482013855
          0.9476250836028416 -0.22037697050877736 0.022960555571061247 -0.10561687780855539 0.28396847378936174 -0.5230757746354601
          -2.496615494338495 -2.8091653413994355 -3.4491160022676004 -3.2751338737071922 -3.39502792955418 -3.106208224763927
          -3.734686334815064 -4.001954395608313 -3.8293729385115305 -4.176400157214003 -4.264537809298188 1.970379781563182
          2.0873160563979267 1.037091616329114 1.6566195285162992 1.8510169058712396 1.349508522590806 2.305912435498634
          2.204499874895902 1.2043472472247827 1.5842229960572616 2.109443031757819 1.6790561645709943 1.2252496350289803
          1.0090112863583227 0.900934294326985 1.8990869314126453 0.30154736336451776 0.7654787177749928 0.4917235475111898
          1.7640362722025047 0.8146360817410466 1.789617994901365 -0.6389846708126404 -1.0443964005570991 -1.5706340915162351
          -1.48354078393389 -0.4706215463801223 -1.0112581663614981 -1.7538500773324863 -1.4075432203434188 -1.9070499257788747
          -2.2431463329295394 -2.15828855945708 -0.34356642629904205 -0.4141514737460955 -1.4851180643029829 -2.3339599000002296
          -2.942593433460326 -2.5524373319474005 -3.6573510330859214 -4.036594668268563 1.4983472405334932 1.43788146147184
          0.5816778634492323 0.977330998937454 1.3064595037244948 1.3748646981916368 0.5130261661819917 0.8569051041805029
          0.46489300930105826 -0.03939822679485007 0.404690893438345 0.07712235034801375 -2.0741848469040978 -2.2219754244975105
          -2.8454334901721734 -2.5966553482857853 -2.4697502328905534 -2.352016522918178 -2.9723102783456112 -3.350952229589376
          -3.0893459383260193 -3.6081047316521833 2.220288805478156 2.2965493449445997 1.2583076017292816 0.8351878112542653
          0.3170471272473124 0.3283184598603436 -0.3593948982019288 0.31379254759403274 -0.1750809484191072 -0.6233775150483569
          -0.6894428616302434 -0.5889092712367829 -1.3559796741240964 -1.0181837196618382 -0.7622440720787249 -1.367597696032644
          -1.5438244642317442 -1.2593824407598166 -1.8507908653219418 -2.113450535287355 -1.6918679135017194 2.4945003480749506
          2.7120279348554717 -2.8323675660609027 2.2581379681665728 2.2082447622279133 2.895494736867433 2.532429430337939
          2.848937830064017 2.5289866280142856 1.890792353383956 1.7770478819363211 2.1571911272843196 2.174831118539523
          2.600649946581021 2.440884067416377 2.6546384441048883 2.216732863533281 2.7489266475257255 2.7972431168047533
          2.702620415869929 2.8611558238120276 2.9604104711988093 1.2421833525659034 0.7107889404391227 0.07140277100079995
          0.05894354850670469 1.3175218824395376 0.800772858954004 -0.6272071250558036 -0.009936184942336057 -0.6263184219207945
          -0.9750789803780172 -0.9466507512650394 -0.9884254502765984 -1.8137813118426558 -1.3381605334641609 0.25704005658932316
          1.3301699496207742 1.339677887741323 2.833746027657288 2.099322144814804 2.511601485214093 2.143639681501203