<?xml version="1.0"?>
<VTKFile type="UnstructuredGrid" version="0.1" byte_order="LittleEndian" header_type="UInt32" compressor="vtkZLibDataCompressor">
  <UnstructuredGrid>
    <Piece NumberOfPoints="85" NumberOfCells="64">
      <PointData>
        <DataArray type="Float64" Name="Density" format="ascii" RangeMin="0.9800322742429141" RangeMax="1.3840556937962958">
          1.1637811515365537 1.1636627676614517 1.1638000000055415 1.1626709118200154 1.163525921580265 1.1624718724308054
          1.1638000000055413 1.1636056807507766 1.1687055708606962 1.1628362643376216 1.1698002754010794 1.1643334755815786
          1.1773019232798645 1.1647552449052245 1.1638000000055413 1.164901983866551 1.1584248721574888 1.1655470361858673
          1.1648625983303158 1.167345045534533 1.1663600220280017 1.1652255940810166 1.1650251779595542 1.15219120524437
          1.1347488612092558 1.16100617255841 1.1628866425869264 1.138195771908316 1.1499528494542088 1.1638000000055413
          1.163175333570522 1.141751230019337 1.068000740349489 1.1479479767177905 1.1817294389208375 1.0862691925398322
          1.1553884596227058 1.1619097380887113 1.1107913338926367 1.16008872790646 1.223699677091052 1.1977189789471792
          0.9800322742429141 1.1848847195590273 1.1450264903488676 1.1177404513693852 1.3470159896693934 1.2098984453980883
          1.2407102917681991 1.3110212836809967 1.1628628298638914 1.205555861368184 1.1943458092058772 1.3840556937962958
          1.1636759018091678 1.2696213216172565 1.2783071151360577 1.189304003670786 1.2069653049947946 1.2064226464601793
          1.1339417213653724 1.18508359004725 1.1351285383680179 1.1501121751882444 1.0874207112227319 1.1782185029829157
          1.1164603047217003 1.1025977234337265 1.1155944055137106 1.0674947330816913 1.059530903196589 1.154093610839361
          1.1635674334800625 1.1630143078440218 1.1888708964631587 1.1662624209824946 1.1752747407270405 1.1857236090171297
          1.1637374318247165 1.1791237345561243 1.1640227898374305 1.1668704271063313 1.162683464817424 1.1707100657059044
          1.165535649225955
        </DataArray>
        <DataArray type="Float64" Name="Velocity" NumberOfComponents="3" format="ascii" RangeMin="0" RangeMax="288.20794869427124">
          244.99999954197588 -0.0056677887624143304 0 244.99999491411364 -0.041266815353125944 0
          245 0 0 245.40751073590715 0.2185476406687032 0
          244.99998835516598 -0.0824202227276943 0 245.23653664346074 0.08710842109540369 0
          245 0 0 244.99996437536686 -0.058433044445188195 0
          243.5455444714156 -0.6562362564891876 0 245.72351968301285 0.44934874516495205 0
          244.29360346452546 -0.09439674603820447 0 244.99995746416698 0.1604227694328604 0
          241.82948400212558 0.579173054215824 0 245.82284255526446 2.4539389265772074 0
          245 0 0 245.00004220277344 0.3312923233036294 0
          247.5615348801549 5.855990965044017 0 245.7855809270028 2.5406055134002123 0
          245.00012408412806 0.31941403246765726 0 244.82061643649436 7.184298450684507 0
          245.1891888596951 1.511797904091043 0 240.5024827576732 -5.536871400791165 0
          245.00073015153973 0.3682872810949167 0 241.55056130895608 -7.383799796765238 0
          257.74971588758666 5.2905057099868 0 246.94154680850454 0.3351341116827925 0
          245.0001283294067 -0.2747128915823082 0 245.45719049982998 -7.618820286905523 0
          249.96795074252512 0.34561474031718376 0 0 0 0
          0 0 0 243.6996381251101 -3.9702489231915985 0
          287.9576006910281 -12.01007472191966 0 0 0 0
          232.8032241683024 -7.594368933928008 0 285.6737821596139 -16.885193068336985 0
          258.52745898828607 -13.075358788456404 0 244.99984322098132 -0.568468163191958 0
          0 0 0 244.92610538027125 -0.5237929089801164 0
          231.5610905527283 -16.680613545632873 0 239.57410416617267 26.619642303989647 0
          0 0 0 239.70652933856445 1.9653580952390692 0
          0 0 0 -32.76119852059262 -25.170257644192773 0
          0 0 0 -65.70895658260137 -6.8885679555067405 0
          -49.355768001508 -57.408284203650716 0 0 0 0
          244.99996223374004 -0.28185973161271516 0 -53.70773653164294 -0.8179202793621725 0
          -43.82746546469238 -54.8944901978928 0 0 0 0
          244.51511174882012 -0.36103727657845125 0 -119.44570608460023 -6.965810423498257 0
          -26.633239275392366 27.382526648840454 0 -52.94931007668879 -40.312021578902375 0
          255.74952070651673 36.26974224119562 0 0 0 0
          -25.551304234696484 12.490725130624202 0 -121.30605924356912 -16.159929926487134 0
          0 0 0 -25.492911589136863 2.212226213733949 0
          0 0 0 244.14875730502055 5.525957780319115 0
          0 0 0 -64.67272586001103 6.113308564362402 0
          0 0 0 0 0 0
          0 0 0 0 0 0
          244.99998361612458 -0.06994344207345045 0 245.47150436814485 0.116593150217478 0
          262.7867261371477 10.200791690877436 0 0 0 0
          244.22049184975702 2.4223162685002113 0 0 0 0
          244.9855792337017 0.015453500553145197 0 254.09857703192694 5.966640588293009 0
          245.06614251334366 0.011847503966230757 0 245.9993238255046 0.4927700490471188 0
          0 0 0 247.22042946422513 2.952905315209013 0
          0.601390387609569 0.4920255389472234 0
          <InformationKey name="L2_NORM_RANGE" location="vtkDataArray" length="2">
            <Value index="0">
              0
            </Value>
            <Value index="1">
              288.20794869
            </Value>
          </InformationKey>
        </DataArray>
        <DataArray type="Float64" Name="Pressure" format="ascii" RangeMin="86709.49380370874" RangeMax="123811.46146618991">
          101317.88697063309 101303.38970082335 101320.19524048243 101179.44641509195 101286.6325637998 101152.00015617955
          101320.19524048244 101296.40094565916 101930.27218915423 101201.8244820154 102076.94680434643 101385.54225534416
          102973.18873250947 101265.91713147207 101320.19524048243 101455.17383566762 100614.16727071254 101312.24238555602
          101450.34246586384 101680.80156131077 101477.16065677333 102166.9248211932 101470.25516732853 100760.96515640884
          97638.03772200829 100979.686686979 101208.35578174416 98790.2801454203 99548.56158578297 101320.19524048243
          100733.41206543893 98607.09551220648 86939.15706104644 99590.31732344661 103761.5490252996 88385.56318060485
          97895.71465418852 101088.8468637819 92552.96874241791 100669.90635090513 108558.50133117022 104292.86837325059
          86709.49380370874 104658.29466937976 108635.50947589565 99988.45394862328 117977.77732445746 104971.56315916014
          107082.46961912533 123811.46146618991 101205.45578777953 106871.85689760608 103419.64928846076 119690.23887613788
          101261.10267847618 109309.63911492484 104542.57140437575 101878.57740725104 103217.2778403836 110066.38490270067
          97519.77618884725 100196.90554680918 103896.171967871 95009.62002548414 100131.35561889969 103250.52378669629
          98024.51889361259 92772.77517444485 94543.88042019904 93302.73814082348 92592.17197339541 93896.11467591621
          101291.71472193651 101239.88338847594 103563.46926153386 104719.57870179467 102655.85024935886 102583.70187064247
          101310.68741026985 103447.12746263547 101347.14003096274 101727.77341509897 100865.86224794626 102225.28285775814
          99930.76010773313
        </DataArray>
        <DataArray type="Float64" Name="Temperature" format="ascii" RangeMin="278.627343173218" RangeMax="324.9177369686775">
          298.14803626077037 298.1357025634208 298.15 298.0249612798279 298.12144525063155 297.9951323162795
          298.15 298.12976030401006 298.68624170526806 298.04848827040536 298.8361280959135 298.20559867954415
          299.53905590822075 297.7458891759738 298.15 298.26477272479104 297.4461911835975 297.6797361456125
          298.2606533814521 298.3024809050535 297.956476759991 300.2738101677636 298.27756552809717 299.4917830566719
          294.67034772557093 297.8630544714206 298.05481072997134 297.24489016780154 296.46409556702116 298.15
          296.5824915847519 295.7697996702226 278.779618778849 297.1064346791344 300.70146256074776 278.6512652148016
          290.1701968447903 297.9531625320771 285.34812259459454 297.1841247683626 303.81285249178524 298.20631026202557
          303.0005531960417 302.49256441949944 324.9177369686775 306.35574809277097 299.94705859952893 297.12547860690563
          295.573260574985 323.4210303174904 298.05237365016256 303.5939865183319 296.5446677125769 296.15721403423987
          298.0078883431488 294.85018311117614 280.07550030056706 293.3642169026489 292.86991660627416 312.44413011502525
          294.52292826922536 289.5492692421733 313.4524382768986 282.9075442079576 315.34768272806053 300.11214669079243
          300.6827970060128 288.15131459250017 290.2312980395837 299.3269336490057 299.2800666825931 278.627343173218
          298.1257673581826 298.1149303789031 298.32458371582 307.50257209017224 299.1310191636337 296.28662601515674
          298.1380502604122 300.45276341964575 298.1722090938211 298.56167195194575 297.09808864440106 299.03781934104785
          293.6234775257309
        </DataArray>
      </PointData>
      <CellData>
        <DataArray type="UInt8" Name="vtkGhostType" format="ascii" RangeMin="0" RangeMax="0">
          0 0 0 0 0 0
          0 0 0 0 0 0
          0 0 0 0 0 0
          0 0 0 0 0 0
          0 0 0 0 0 0
          0 0 0 0 0 0
          0 0 0 0 0 0
          0 0 0 0 0 0
          0 0 0 0 0 0
          0 0 0 0 0 0
          0 0 0 0
        </DataArray>
      </CellData>
      <Points>
        <DataArray type="Float32" Name="Points" NumberOfComponents="3" format="ascii" RangeMin="0" RangeMax="0.029717074200620645">
          -0.015239999629557133 0.02159000001847744 0 -0.011429999954998493 0.02159000001847744 0
          -0.015239999629557133 0.016192499548196793 0 -0.011429999954998493 0.016192499548196793 0
          -0.007619999814778566 0.02159000001847744 0 -0.007619999814778566 0.016192499548196793 0
          -0.015239999629557133 0.01079500000923872 0 -0.003809999907389283 0.02159000001847744 0
          -0.011429999954998493 0.01079500000923872 0 -0.003809999907389283 0.016192499548196793 0
          -0.007619999814778566 0.01079500000923872 0 0 0.02159000001847744 0
          -0.003809999907389283 0.01079500000923872 0 0 0.016192499548196793 0
          -0.015239999629557133 0.00539750000461936 0 0.001294999965466559 0.02159000001847744 0
          -0.011429999954998493 0.00539750000461936 0 0.001294999965466559 0.016192499548196793 0
          0.002589999930933118 0.02159000001847744 0 -0.007619999814778566 0.00539750000461936 0
          0.002589999930933118 0.016192499548196793 0 0 0.01079500000923872 0
          0.0038850000128149986 0.02159000001847744 0 0.001294999965466559 0.01079500000923872 0
          -0.003809999907389283 0.00539750000461936 0 0.0038850000128149986 0.016192499548196793 0
          0.005179999861866236 0.02159000001847744 0 0.002589999930933118 0.01079500000923872 0
          0.005179999861866236 0.016192499548196793 0 -0.015239999629557133 0 0
          -0.011429999954998493 0 0 0.0038850000128149986 0.01079500000923872 0
          0 0.00539750000461936 0 -0.007619999814778566 0 0
          0.005179999861866236 0.01079500000923872 0 0.001294999965466559 0.00539750000461936 0
          0.002589999930933118 0.00539750000461936 0 0.008990000002086163 0.02159000001847744 0
          -0.003809999907389283 0 0 0.008990000002086163 0.016192499548196793 0
          0.0038850000128149986 0.00539750000461936 0 0.005179999861866236 0.00539750000461936 0
          0 0 0 0.008990000002086163 0.01079500000923872 0
          0 -0.0006350000039674342 0 0.001294999965466559 0 0
          0 -0.0012700000079348683 0 0.001294999965466559 -0.0006350000039674342 0
          0.002589999930933118 0 0 0 -0.0019049999536946416 0
          0.012799999676644802 0.02159000001847744 0 0.001294999965466559 -0.0012700000079348683 0
          0.002589999930933118 -0.0006350000039674342 0 0 -0.0025400000158697367 0
          0.012799999676644802 0.016192499548196793 0 0.001294999965466559 -0.0019049999536946416 0
          0.0038850000128149986 0 0 0.002589999930933118 -0.0012700000079348683 0
          0.008990000002086163 0.00539750000461936 0 0.001294999965466559 -0.0025400000158697367 0
          0.0038850000128149986 -0.0006350000039674342 0 0.002589999930933118 -0.0019049999536946416 0
          0.005179999861866236 0 0 0.0038850000128149986 -0.0012700000079348683 0
          0.002589999930933118 -0.0025400000158697367 0 0.012799999676644802 0.01079500000923872 0
          0.005179999861866236 -0.0006350000039674342 0 0.0038850000128149986 -0.0019049999536946416 0
          0.005179999861866236 -0.0012700000079348683 0 0.0038850000128149986 -0.0025400000158697367 0
          0.005179999861866236 -0.0019049999536946416 0 0.005179999861866236 -0.0025400000158697367 0
          0.016610000282526016 0.02159000001847744 0 0.016610000282526016 0.016192499548196793 0
          0.012799999676644802 0.00539750000461936 0 0.008990000002086163 0 0
          0.016610000282526016 0.01079500000923872 0 0.012799999676644802 0 0
          0.020419999957084656 0.02159000001847744 0 0.016610000282526016 0.00539750000461936 0
          0.020419999957084656 0.016192499548196793 0 0.020419999957084656 0.01079500000923872 0
          0.016610000282526016 0 0 0.020419999957084656 0.00539750000461936 0
          0.020419999957084656 0 0
          <InformationKey name="L2_NORM_RANGE" location="vtkDataArray" length="2">
            <Value index="0">
              0
            </Value>
            <Value index="1">
              0.029717074201
            </Value>
          </InformationKey>
        </DataArray>
      </Points>
      <Cells>
        <DataArray type="Int64" Name="connectivity" format="ascii" RangeMin="0" RangeMax="84">
          32 24 38 42 21 12
          24 32 13 9 12 21
          11 7 9 13 24 19
          33 38 12 10 19 24
          9 5 10 12 7 4
          5 9 19 16 30 33
          10 8 16 19 5 3
          8 10 4 1 3 5
          16 14 29 30 8 6
          14 16 3 2 6 8
          1 0 2 3 56 60
          66 62 48 52 60 56
          45 47 52 48 42 44
          47 45 60 63 68 66
          52 57 63 60 47 51
          57 52 44 46 51 47
          63 67 70 68 57 61
          67 63 51 55 61 57
          46 49 55 51 67 69
          71 70 61 64 69 67
          55 59 64 61 49 53
          59 55 45 35 32 42
          48 36 35 45 56 40
          36 48 62 41 40 56
          35 23 21 32 36 27
          23 35 40 31 27 36
          41 34 31 40 23 17
          13 21 27 20 17 23
          31 25 20 27 34 28
          25 31 17 15 11 13
          20 18 15 17 25 22
          18 20 28 26 22 25
          75 58 41 62 77 74
          58 75 82 79 74 77
          84 83 79 82 58 43
          34 41 74 65 43 58
          79 76 65 74 83 81
          76 79 43 39 28 34
          65 54 39 43 76 73
          54 65 81 80 73 76
          39 37 26 28 54 50
          37 39 73 72 50 54
          80 78 72 73
        </DataArray>
        <DataArray type="Int64" Name="offsets" format="ascii" RangeMin="4" RangeMax="256">
          4 8 12 16 20 24
          28 32 36 40 44 48
          52 56 60 64 68 72
          76 80 84 88 92 96
          100 104 108 112 116 120
          124 128 132 136 140 144
          148 152 156 160 164 168
          172 176 180 184 188 192
          196 200 204 208 212 216
          220 224 228 232 236 240
          244 248 252 256
        </DataArray>
        <DataArray type="UInt8" Name="types" format="ascii" RangeMin="9" RangeMax="9">
          9 9 9 9 9 9
          9 9 9 9 9 9
          9 9 9 9 9 9
          9 9 9 9 9 9
          9 9 9 9 9 9
          9 9 9 9 9 9
          9 9 9 9 9 9
          9 9 9 9 9 9
          9 9 9 9 9 9
          9 9 9 9 9 9
          9 9 9 9
        </DataArray>
      </Cells>
    </Piece>
  </UnstructuredGrid>
</VTKFile>
