<?xml version="1.0"?>
<VTKFile type="UnstructuredGrid" version="0.1" byte_order="LittleEndian" header_type="UInt32" compressor="vtkZLibDataCompressor">
  <UnstructuredGrid>
    <Piece NumberOfPoints="85" NumberOfCells="64">
      <PointData>
        <DataArray type="Float64" Name="Density" format="ascii" RangeMin="0.9572165626671022" RangeMax="1.6316161338543889">
          1.1637999999729163 1.1637999999729163 1.1637999999729165 1.163891285810202 1.1637999999729163 1.1637963402577345
          1.1637999999729165 1.1637999999729163 1.1636238258511027 1.1639650121969194 1.16396720772742 1.1637999999729163
          1.1633613859374508 1.163805947849797 1.163799999972916 1.1637999999729163 1.163195174067754 1.1635517985385193
          1.1637999999729163 1.1621943675595083 1.1638432427025345 1.1639121166742794 1.1637999999729163 1.1647516871217451
          1.1643668236514957 1.1637041606140106 1.1637999999729163 1.1640119860190066 1.1641186825470116 1.1637999999729163
          1.1660199288590356 1.1639242460827732 1.1626318518561691 1.1633273094254377 1.1621656123353155 1.1604513814833235
          1.161574888607455 1.1637999999729163 1.1763645290164273 1.1638011195279396 1.163860918726243 1.1691444237533004
          1.1004301411583755 1.1641932285468832 0.9787752376355763 0.9572165626671022 0.9693886313980007 0.9817002335673406
          1.1241939090879365 0.9853844048924644 1.1637999999729163 0.9850418330709725 1.128512992566773 1.0458857942549722
          1.163878449716456 1.0131127812125091 1.2563733758425903 1.132188165931872 1.1606299938914868 1.0664619599022502
          1.2318191327519201 1.1267832631979702 1.3320800980843308 1.2360275896484085 1.1376746693987205 1.163567711260753
          1.5927487078767373 1.234158758069963 1.6316161338543889 1.2418177007091635 1.5306266398845774 1.4405377288851466
          1.1637999999729163 1.1638103850109753 1.1641447298163494 1.1434659309157629 1.163906314023728 1.1674116857154988
          1.1637999999729163 1.1623775992507976 1.1637999999729163 1.1637999999729163 1.1656326360645093 1.1637999999729163
          1.1637999999729163
        </DataArray>
      </PointData>
      <CellData>
        <DataArray type="UInt8" Name="vtkGhostType" format="ascii" RangeMin="0" RangeMax="0">
          0 0 0 0 0 0
          0 0 0 0 0 0
          0 0 0 0 0 0
          0 0 0 0 0 0
          0 0 0 0 0 0
          0 0 0 0 0 0
          0 0 0 0 0 0
          0 0 0 0 0 0
          0 0 0 0 0 0
          0 0 0 0 0 0
          0 0 0 0
        </DataArray>
      </CellData>
      <Points>
        <DataArray type="Float32" Name="Points" NumberOfComponents="3" format="ascii" RangeMin="0" RangeMax="0.029717074200620645">
          -0.015239999629557133 0.02159000001847744 0 -0.011429999954998493 0.02159000001847744 0
          -0.015239999629557133 0.016192499548196793 0 -0.011429999954998493 0.016192499548196793 0
          -0.007619999814778566 0.02159000001847744 0 -0.007619999814778566 0.016192499548196793 0
          -0.015239999629557133 0.01079500000923872 0 -0.003809999907389283 0.02159000001847744 0
          -0.011429999954998493 0.01079500000923872 0 -0.003809999907389283 0.016192499548196793 0
          -0.007619999814778566 0.01079500000923872 0 0 0.02159000001847744 0
          -0.003809999907389283 0.01079500000923872 0 0 0.016192499548196793 0
          -0.015239999629557133 0.00539750000461936 0 0.001294999965466559 0.02159000001847744 0
          -0.011429999954998493 0.00539750000461936 0 0.001294999965466559 0.016192499548196793 0
          0.002589999930933118 0.02159000001847744 0 -0.007619999814778566 0.00539750000461936 0
          0.002589999930933118 0.016192499548196793 0 0 0.01079500000923872 0
          0.0038850000128149986 0.02159000001847744 0 0.001294999965466559 0.01079500000923872 0
          -0.003809999907389283 0.00539750000461936 0 0.0038850000128149986 0.016192499548196793 0
          0.005179999861866236 0.02159000001847744 0 0.002589999930933118 0.01079500000923872 0
          0.005179999861866236 0.016192499548196793 0 -0.015239999629557133 0 0
          -0.011429999954998493 0 0 0.0038850000128149986 0.01079500000923872 0
          0 0.00539750000461936 0 -0.007619999814778566 0 0
          0.005179999861866236 0.01079500000923872 0 0.001294999965466559 0.00539750000461936 0
          0.002589999930933118 0.00539750000461936 0 0.008990000002086163 0.02159000001847744 0
          -0.003809999907389283 0 0 0.008990000002086163 0.016192499548196793 0
          0.0038850000128149986 0.00539750000461936 0 0.005179999861866236 0.00539750000461936 0
          0 0 0 0.008990000002086163 0.01079500000923872 0
          0 -0.0006350000039674342 0 0.001294999965466559 0 0
          0 -0.0012700000079348683 0 0.001294999965466559 -0.0006350000039674342 0
          0.002589999930933118 0 0 0 -0.0019049999536946416 0
          0.012799999676644802 0.02159000001847744 0 0.001294999965466559 -0.0012700000079348683 0
          0.002589999930933118 -0.0006350000039674342 0 0 -0.0025400000158697367 0
          0.012799999676644802 0.016192499548196793 0 0.001294999965466559 -0.0019049999536946416 0
          0.0038850000128149986 0 0 0.002589999930933118 -0.0012700000079348683 0
          0.008990000002086163 0.00539750000461936 0 0.001294999965466559 -0.0025400000158697367 0
          0.0038850000128149986 -0.0006350000039674342 0 0.002589999930933118 -0.0019049999536946416 0
          0.005179999861866236 0 0 0.0038850000128149986 -0.0012700000079348683 0
          0.002589999930933118 -0.0025400000158697367 0 0.012799999676644802 0.01079500000923872 0
          0.005179999861866236 -0.0006350000039674342 0 0.0038850000128149986 -0.0019049999536946416 0
          0.005179999861866236 -0.0012700000079348683 0 0.0038850000128149986 -0.0025400000158697367 0
          0.005179999861866236 -0.0019049999536946416 0 0.005179999861866236 -0.0025400000158697367 0
          0.016610000282526016 0.02159000001847744 0 0.016610000282526016 0.016192499548196793 0
          0.012799999676644802 0.00539750000461936 0 0.008990000002086163 0 0
          0.016610000282526016 0.01079500000923872 0 0.012799999676644802 0 0
          0.020419999957084656 0.02159000001847744 0 0.016610000282526016 0.00539750000461936 0
          0.020419999957084656 0.016192499548196793 0 0.020419999957084656 0.01079500000923872 0
          0.016610000282526016 0 0 0.020419999957084656 0.00539750000461936 0
          0.020419999957084656 0 0
          <InformationKey name="L2_NORM_RANGE" location="vtkDataArray" length="2">
            <Value index="0">
              0
            </Value>
            <Value index="1">
              0.029717074201
            </Value>
          </InformationKey>
        </DataArray>
      </Points>
      <Cells>
        <DataArray type="Int64" Name="connectivity" format="ascii" RangeMin="0" RangeMax="84">
          32 24 38 42 21 12
          24 32 13 9 12 21
          11 7 9 13 24 19
          33 38 12 10 19 24
          9 5 10 12 7 4
          5 9 19 16 30 33
          10 8 16 19 5 3
          8 10 4 1 3 5
          16 14 29 30 8 6
          14 16 3 2 6 8
          1 0 2 3 56 60
          66 62 48 52 60 56
          45 47 52 48 42 44
          47 45 60 63 68 66
          52 57 63 60 47 51
          57 52 44 46 51 47
          63 67 70 68 57 61
          67 63 51 55 61 57
          46 49 55 51 67 69
          71 70 61 64 69 67
          55 59 64 61 49 53
          59 55 45 35 32 42
          48 36 35 45 56 40
          36 48 62 41 40 56
          35 23 21 32 36 27
          23 35 40 31 27 36
          41 34 31 40 23 17
          13 21 27 20 17 23
          31 25 20 27 34 28
          25 31 17 15 11 13
          20 18 15 17 25 22
          18 20 28 26 22 25
          75 58 41 62 77 74
          58 75 82 79 74 77
          84 83 79 82 58 43
          34 41 74 65 43 58
          79 76 65 74 83 81
          76 79 43 39 28 34
          65 54 39 43 76 73
          54 65 81 80 73 76
          39 37 26 28 54 50
          37 39 73 72 50 54
          80 78 72 73
        </DataArray>
        <DataArray type="Int64" Name="offsets" format="ascii" RangeMin="4" RangeMax="256">
          4 8 12 16 20 24
          28 32 36 40 44 48
          52 56 60 64 68 72
          76 80 84 88 92 96
          100 104 108 112 116 120
          124 128 132 136 140 144
          148 152 156 160 164 168
          172 176 180 184 188 192
          196 200 204 208 212 216
          220 224 228 232 236 240
          244 248 252 256
        </DataArray>
        <DataArray type="UInt8" Name="types" format="ascii" RangeMin="9" RangeMax="9">
          9 9 9 9 9 9
          9 9 9 9 9 9
          9 9 9 9 9 9
          9 9 9 9 9 9
          9 9 9 9 9 9
          9 9 9 9 9 9
          9 9 9 9 9 9
          9 9 9 9 9 9
          9 9 9 9 9 9
          9 9 9 9 9 9
          9 9 9 9
        </DataArray>
      </Cells>
    </Piece>
  </UnstructuredGrid>
</VTKFile>
