<?xml version="1.0"?>
<VTKFile type="UnstructuredGrid" version="0.1" byte_order="LittleEndian" header_type="UInt32" compressor="vtkZLibDataCompressor">
  <UnstructuredGrid>
    <Piece NumberOfPoints="87" NumberOfCells="67">
      <PointData>
        <DataArray type="Float64" Name="sld_BC" NumberOfComponents="3" format="ascii" RangeMin="0" RangeMax="0">
          0 0 0 0 0 0
          0 0 0 0 0 0
          0 0 0 0 0 0
          0 0 0 0 0 0
          0 0 0 0 0 0
          0 0 0 0 0 0
          0 0 0 0 0 0
          0 0 0 0 0 0
          0 0 0 0 0 0
          0 0 0 0 0 0
          0 0 0 0 0 0
          0 0 0 0 0 0
          0 0 0 0 0 0
          0 0 0 0 0 0
          0 0 0 0 0 0
          0 0 0 0 0 0
          0 0 0 0 0 0
          0 0 0 0 0 0
          0 0 0 0 0 0
          0 0 0 0 0 0
          0 0 0 0 0 0
          0 0 0 0 0 0
          0 0 0 0 0 0
          0 0 0 0 0 0
          0 0 0 0 0 0
          0 0 0 0 0 0
          0 0 0 0 0 0
          0 0 0 0 0 0
          0 0 0 0 0 0
          0 0 0 0 0 0
          0 0 0 0 0 0
          0 0 0 0 0 0
          0 0 0 0 0 0
          0 0 0 0 0 0
          0 0 0 0 0 0
          0 0 0 0 0 0
          0 0 0 0 0 0
          0 0 0 0 0 0
          0 0 0 0 0 0
          0 0 0 0 0 0
          0 0 0 0 0 0
          0 0 0 0 0 0
          0 0 0 0 0 0
          0 0 0
          <InformationKey name="L2_NORM_RANGE" location="vtkDataArray" length="2">
            <Value index="0">
              0
            </Value>
            <Value index="1">
              0
            </Value>
          </InformationKey>
        </DataArray>
        <DataArray type="Float64" Name="sld_FIXNO" NumberOfComponents="3" format="ascii" RangeMin="1.4142135623730951" RangeMax="1.4142135623730951">
          -1 -1 0 -1 -1 0
          -1 -1 0 -1 -1 0
          -1 -1 0 -1 -1 0
          -1 -1 0 -1 -1 0
          -1 -1 0 -1 -1 0
          -1 -1 0 -1 -1 0
          -1 -1 0 -1 -1 0
          -1 -1 0 -1 -1 0
          -1 -1 0 -1 -1 0
          -1 -1 0 -1 -1 0
          -1 -1 0 -1 -1 0
          -1 -1 0 -1 -1 0
          -1 -1 0 -1 -1 0
          -1 -1 0 -1 -1 0
          -1 -1 0 -1 -1 0
          -1 -1 0 -1 -1 0
          -1 -1 0 -1 -1 0
          -1 -1 0 -1 -1 0
          -1 -1 0 -1 -1 0
          -1 -1 0 -1 -1 0
          -1 -1 0 -1 -1 0
          -1 -1 0 -1 -1 0
          -1 -1 0 -1 -1 0
          -1 -1 0 -1 -1 0
          -1 -1 0 -1 -1 0
          -1 -1 0 -1 -1 0
          -1 -1 0 -1 -1 0
          -1 -1 0 -1 -1 0
          -1 -1 0 -1 -1 0
          -1 -1 0 -1 -1 0
          -1 -1 0 -1 -1 0
          -1 -1 0 -1 -1 0
          -1 -1 0 -1 -1 0
          -1 -1 0 -1 -1 0
          -1 -1 0 -1 -1 0
          -1 -1 0 -1 -1 0
          -1 -1 0 -1 -1 0
          -1 -1 0 -1 -1 0
          -1 -1 0 -1 -1 0
          -1 -1 0 -1 -1 0
          -1 -1 0 -1 -1 0
          -1 -1 0 -1 -1 0
          -1 -1 0 -1 -1 0
          -1 -1 0
          <InformationKey name="L2_NORM_RANGE" location="vtkDataArray" length="2">
            <Value index="0">
              1.4142135624
            </Value>
            <Value index="1">
              1.4142135624
            </Value>
          </InformationKey>
        </DataArray>
        <DataArray type="Float64" Name="Disp" NumberOfComponents="3" format="ascii" RangeMin="0.00015016729072481945" RangeMax="0.00031294555042115437">
          -0.000006185776923020041 0.0003124811912116026 0 -0.000005745686094798989 0.00031289280052391636 0
          -0.000005478511701802415 0.0003127583959788057 0 -0.000005309099423771658 0.00031208319972599095 0
          -0.000005161411334664321 0.0003108680155136783 0 -0.000004957922231176578 0.00030910893784038006 0
          -0.0000097138411974788 0.00031065123600619593 0 -0.000007863797331634686 0.000310936327183811 0
          -0.000006201149986095237 0.0003107095366211938 0 -0.000004642994422245294 0.00030997565020298313 0
          -0.0000031047736247016155 0.0003087357850789046 0 -0.000001500234866722468 0.0003069872568997971 0
          -0.000012915210526694325 0.0003064187586106011 0 -0.000009751883930887506 0.0003065759304949773 0
          -0.000006788182793783511 0.00030625943968742354 0 -0.000003933457582406452 0.00030547066646851765 0
          -0.0000011000351744405829 0.0003042102099440486 0 0.0000018045695251676794 0.00030247927216149536 0
          -0.00001578193140108762 0.0002999521323710502 0 -0.000011414952577971871 0.0002999934307194213 0
          -0.0000072468789061330786 0.0002995977544153849 0 -0.000003188601445645519 0.0002987630090931524 0
          8.464980032980623e-7 0.00029748847693248075 0 0.0000049426272224961984 0.00029577567959596297 0
          -0.000018330295769175802 0.00029146564955142955 0 -0.000012864821426848332 0.0002913963909635652 0
          -0.000007590572356879888 0.0002909284855315727 0 -0.0000024238247889931734 0.0002900591957380115 0
          0.0000027188170065622742 0.0002887875988353337 0 0.000007917048263531747 0.00028711365719778857 0
          -0.000020578885663731663 0.000281131661202997 0 -0.000014111160662746366 0.00028095711038437566 0
          -0.000007829332113969761 0.0002804204202579524 0 -0.000001652327634003153 0.00027952024834492823 0
          0.000004502296141331135 0.00027825529658429725 0 0.000010716819863137467 0.00027662280796884696 0
          -0.000022540074775474804 0.0002691084797933779 0 -0.00001516099746998356 0.00026883105879732576 0
          -0.000007967939320672863 0.00026822700348922215 0 -8.792042308539518e-7 0.0002672974682752117 0
          0.000006191045082227274 0.00026604128248201576 0 0.000013330062690255882 0.0002644547983447773 0
          -0.00002421747948181647 0.0002555466866117277 0 -0.000016017754156802714 0.000255167650801172 0
          -0.000008012383506769687 0.0002545011732549958 0 -1.1129582208181278e-7 0.00025354761254892225 0
          0.000007774703968803962 0.0002523051045742459 0 0.000015738219456507428 0.00025077097844135386 0
          -0.00002561085864984716 0.00024058426075610566 0 -0.000016695761528531124 0.0002401215619846983 0
          -0.000007978381650568574 0.00023940887870999323 0 6.353495392423919e-7 0.0002384455323461199 0
          0.000009237094561876524 0.0002372296818512409 0 0.000017917451146051884 0.0002357591620431903 0
          -0.00002672934172694649 0.0002244429489508411 0 -0.000017208848248431533 0.00022389746838570612 0
          -0.000007884621819257317 0.00022314454210664515 0 0.0000013368225309891056 0.00022218385705294913 0
          0.000010549864227426381 0.00022101381129947302 0 0.000019844511063966417 0.00021963101485858834 0
          -0.00002757647484447109 0.00020730371552121575 0 -0.000017557988711363308 0.00020667463799443282 0
          -0.000007740576624769533 0.0002058824737962425 0 0.0000019750680457789255 0.0002049284893906874 0
          0.000011688656690463035 0.000203809997522424 0 0.000021498669032502094 0.00020251995377136448 0
          -0.000028142709130462114 0.00018934295973635192 0 -0.000017741837265974947 0.00018862895460286676 0
          -0.000007550856197738099 0.0001877993703773224 0 0.0000025395834914288737 0.00018685539999741506 0
          0.000012637791178745868 0.00018579357243936432 0 0.00002285202464757344 0.00018460602356768 0
          -0.000028411819181953058 0.00017076281186893688 0 -0.000017757577655691726 0.00016996219032285146 0
          -0.000003408526332035063 0.000312280663688339 0 -0.0000023517102323537147 0.00031174944592978767 0
          -0.000004622363151282324 0.0003122354363817795 0 -0.000005927216157331149 0.00031161957470997325 0
          -0.000007257153936292297 0.0003104336224749382 0 -0.0000175983122604986 0.0001509073053860056 0
          -0.000028368675448600097 0.00015180017439512172 0 -0.000007049286950121199 0.0001500017425136365 0
          -0.000007319964982974757 0.00016909632466192596 0 0.0000030191319772413297 0.0001681656205576192 0
          0.000013376817615595222 0.00016716657763919595 0 0.000023869854242477853 0.00016609131925735988 0
          -0.000008545102592636054 0.0003086724854210544 0
          <InformationKey name="L2_NORM_RANGE" location="vtkDataArray" length="2">
            <Value index="0">
              0.00015016729072
            </Value>
            <Value index="1">
              0.00031294555042
            </Value>
          </InformationKey>
        </DataArray>
        <DataArray type="Float64" Name="Sld_traction" NumberOfComponents="3" format="ascii" RangeMin="0" RangeMax="746.1699692859034">
          -14.160941035369131 740.3608219767186 0 0 0 0
          0 0 0 0 0 0
          0 0 0 -36.493612811800524 -314.48763757590666 0
          -13.777859999708987 744.956951261446 0 0 0 0
          0 0 0 0 0 0
          0 0 0 -37.69585520208001 -347.4424100971995 0
          -12.858117808594704 746.0591745100025 0 0 0 0
          0 0 0 0 0 0
          0 0 0 -38.51201654057718 -381.5714837989468 0
          -12.170875900858343 742.2277858787481 0 0 0 0
          0 0 0 0 0 0
          0 0 0 -37.07191293824066 -413.86591539708496 0
          -12.153445266917357 738.8088681424231 0 0 0 0
          0 0 0 0 0 0
          0 0 0 -34.0528897725946 -436.81618706613745 0
          -11.768834447962266 736.3796910816322 0 0 0 0
          0 0 0 0 0 0
          0 0 0 -31.922912327798713 -458.77510612333407 0
          -10.880348969960153 734.3065123854274 0 0 0 0
          0 0 0 0 0 0
          0 0 0 -30.14420303157479 -481.7846650331392 0
          -8.585612289829504 729.5749656685998 0 0 0 0
          0 0 0 0 0 0
          0 0 0 -28.397213065939845 -505.6907738640631 0
          -6.098956730558995 716.7929751606396 0 0 0 0
          0 0 0 0 0 0
          0 0 0 -25.6012715169355 -526.7778915716744 0
          -4.3213391127252345 703.0619556272651 0 0 0 0
          0 0 0 0 0 0
          0 0 0 -23.36558616493892 -539.8990580906052 0
          -1.5962817127151594 688.7216430299632 0 0 0 0
          0 0 0 0 0 0
          0 0 0 -22.640603162657957 -553.019617781195 0
          2.2557617373412286 671.4026359718363 0 0 0 0
          0 0 0 0 0 0
          0 0 0 -22.23571404894371 -568.055645588478 0
          6.541465951446734 650.9553194326245 0 0 0 0
          0 0 0 -14.648544551413455 734.3147409713816 0
          0 0 0 0 0 0
          0 0 0 0 0 0
          10.399981314791264 629.9429031367872 0 0 0 0
          0 0 0 0 0 0
          0 0 0 -22.213662423505276 -584.7860875888896 0
          -34.98643187593647 -283.13950580694166 0
          <InformationKey name="L2_NORM_RANGE" location="vtkDataArray" length="2">
            <Value index="0">
              0
            </Value>
            <Value index="1">
              746.16996929
            </Value>
          </InformationKey>
        </DataArray>
        <DataArray type="Float64" Name="Fld_traction" NumberOfComponents="3" format="ascii" RangeMin="0" RangeMax="628.0857369621513">
          -29.03462016104833 534.5469741891046 0 0 0 0
          0 0 0 0 0 0
          0 0 0 -28.692005032228153 -519.3690944663941 0
          -29.926590126845323 552.2168357631118 0 0 0 0
          0 0 0 0 0 0
          0 0 0 -28.693881464600068 -538.7645250857527 0
          -30.347919610530386 568.1508738441238 0 0 0 0
          0 0 0 0 0 0
          0 0 0 -28.695757896971973 -558.159955705111 0
          -29.4161934276702 579.0945511240843 0 0 0 0
          0 0 0 0 0 0
          0 0 0 -28.697634329343884 -577.5553863244695 0
          -28.48446724481003 590.0382284040447 0 0 0 0
          0 0 0 0 0 0
          0 0 0 -26.240768043669473 -587.762501458739 0
          -27.55274106194985 600.9819056840051 0 0 0 0
          0 0 0 0 0 0
          0 0 0 -23.554789726714258 -597.1134254960766 0
          -26.621014879089678 611.9255829639656 0 0 0 0
          0 0 0 0 0 0
          0 0 0 -20.868811409759065 -606.4643495334143 0
          -25.539282574289846 621.6346067707213 0 0 0 0
          0 0 0 0 0 0
          0 0 0 -18.18283309280385 -615.815273570752 0
          -23.51356825799868 623.574009884267 0 0 0 0
          0 0 0 0 0 0
          0 0 0 -15.605717102483087 -622.5466897181341 0
          -21.487853941707513 625.5134129978123 0 0 0 0
          0 0 0 0 0 0
          0 0 0 -13.384828430999542 -620.7063593195751 0
          -19.462139625416327 627.4528161113577 0 0 0 0
          0 0 0 0 0 0
          0 0 0 -11.16393975951598 -618.866028921016 0
          -16.826954150116602 627.8602922540321 0 0 0 0
          0 0 0 0 0 0
          0 0 0 -8.943019452342975 -617.025672307671 0
          -13.448897051943373 626.4003124737444 0 0 0 0
          0 0 0 -28.142650195251335 516.8771126150973 0
          0 0 0 0 0 0
          0 0 0 0 0 0
          -10.070839953770166 624.9403326934565 0 0 0 0
          0 0 0 0 0 0
          0 0 0 -7.315952669315995 -615.2403550328406 0
          -28.690128599856244 -499.9736638470356 0
          <InformationKey name="L2_NORM_RANGE" location="vtkDataArray" length="2">
            <Value index="0">
              0
            </Value>
            <Value index="1">
              628.08573696
            </Value>
          </InformationKey>
        </DataArray>
        <DataArray type="Float64" Name="Velocity" NumberOfComponents="3" format="ascii" RangeMin="0.0014850590428665616" RangeMax="0.004031789704841988">
          0.0011509520054278112 0.00380579285841232 0 0.0011699737692843215 0.003814709229362909 0
          0.0011906591340926395 0.0038177578649863445 0 0.0012130324257810248 0.0038150633350505165 0
          0.0012371028610745215 0.0038067805565474592 0 0.00126291268985581 0.0037931263613153006 0
          0.0011036738334692531 0.0037457891999602743 0 0.0011377114101398119 0.0037566556404834877 0
          0.0011732977761419582 0.0037616549033291768 0 0.00121039795282406 0.00376085420329317 0
          0.0012488854383343692 0.0037543855434048943 0 0.0012886360145115574 0.003742458385143337 0
          0.0010503164174029257 0.0036604690956290615 0 0.0010993299596221001 0.003673245939801937 0
          0.001149886752384475 0.0036800446236938808 0 0.0012017096793275313 0.003681107568557284 0
          0.0012547795464516044 0.003676588874693041 0 0.0013088239108015353 0.003666473359323921 0
          0.000990819097961835 0.0035506624855941426 0 0.0010553710924625101 0.0035643115780742045 0
          0.001120672915367112 0.003572157122863922 0 0.0011868017625595636 0.0035746527336950225 0
          0.0012541098076681344 0.0035720119276132275 0 0.001323095031562935 0.003564140816188271 0
          0.0009265616216492849 0.003413626798421686 0 0.0010067162644905449 0.0034277873868046706 0
          0.001086285321263286 0.0034362774578621715 0 0.0011660753377554576 0.0034395885409470297 0
          0.0012469795838392615 0.0034379057337466123 0 0.0013302684137477426 0.0034311572944058315 0
          0.0008591690736438481 0.0032504717170932554 0 0.0009539871768457264 0.003264722790112832 0
          0.0010470615012906383 0.003273711711859392 0 0.0011397571864809998 0.0032778017421381074 0
          0.001233396262734018 0.0032771715482098544 0 0.0013293943446118649 0.0032719462704902834 0
          0.0007899693388936161 0.003063984284037319 0 0.0008976844611116961 0.0030780714058574066 0
          0.0010029587768098165 0.0030875402422037724 0 0.0011074654822331776 0.003092514072837438 0
          0.0012125825987333201 0.003093157511866825 0 0.0013196828618257717 0.00308966520259626 0
          0.000719761370710949 0.002858482520960547 0 0.0008381185566867465 0.0028721868612325728 0
          0.0009541314018964074 0.002881747996750589 0 0.0010690186610280686 0.002887345904716759 0
          0.0011841810559617466 0.0028892051289231557 0 0.0013009052916049895 0.002887473897694906 0
          0.0006491509314097331 0.0026405436998065564 0 0.0007767629837344224 0.0026519755255005033 0
          0.0009016584081035622 0.002660174055366656 0 0.0010250103154411608 0.0026654133455580415 0
          0.0011483292170316223 0.0026678718429356614 0 0.0012732492622816618 0.0026676113658255602 0
          0.0005797533248995246 0.002409405109079798 0 0.0007151674488842391 0.0024182520593901127 0
          0.0008468408931195032 0.0024246313239857926 0 0.0009764977612647523 0.0024288603876686365 0
          0.0011058497372043177 0.0024310829550257896 0 0.001236846149886476 0.00243136091163989 0
          0.0005132243138244598 0.0021689449810855174 0 0.0006539980568029328 0.002174774665215623 0
          0.000790321117348879 0.0021791061443175025 0 0.000924144833194319 0.002182118239721074 0
          0.0010573221396665618 0.0021839704642115506 0 0.0011917152141059585 0.0021848439086615797 0
          0.00045096237792083824 0.0019249796624962183 0 0.0005941976676287577 0.0019270978239712487 0
          0.0007327361581922159 0.0019288168095740964 0 0.00086836271636379 0.0019302331125570214 0
          0.0010029229402366393 0.001931502648564894 0 0.0011382031122073963 0.0019327588528153744 0
          0.0003938768601936186 0.0016825532526811692 0 0.0005369754502713465 0.0016802385646696128 0
          0.0011965858165557026 0.0038469821777340355 0 0.0011927501017871653 0.0038397387634161954 0
          0.001202356882565775 0.003848332905430162 0 0.0012100837956802626 0.003843961144288499 0
          0.001219847674800268 0.003834045024707542 0 0.0004833501993955198 0.0014378846465278052 0
          0.000342679977457775 0.0014449812434247328 0 0.0006183096421447893 0.0014327157554320396 0
          0.0006751055555929703 0.0016786267568039957 0 0.0008099049826726598 0.001677872834627054 0
          0.0009432670011370515 0.0016780709380967364 0 0.0010771607086078024 0.0016792534573939629 0
          0.001231804007778531 0.0038187955795700116 0
          <InformationKey name="L2_NORM_RANGE" location="vtkDataArray" length="2">
            <Value index="0">
              0.0014850590429
            </Value>
            <Value index="1">
              0.0040317897048
            </Value>
          </InformationKey>
        </DataArray>
      </PointData>
      <CellData>
        <DataArray type="UInt8" Name="vtkGhostType" format="ascii" RangeMin="0" RangeMax="1">
          1 1 1 1 0 0
          0 0 0 0 0 0
          0 0 0 0 0 0
          0 0 0 0 0 0
          0 0 0 0 0 0
          0 0 0 0 0 0
          0 0 0 0 0 0
          0 0 0 0 0 0
          0 0 0 0 0 0
          0 0 0 0 0 0
          0 0 0 0 0 0
          1
        </DataArray>
        <DataArray type="Float64" Name="Gauss Stress" NumberOfComponents="6" format="ascii" RangeMin="515.8295356121956" RangeMax="1203.142933114611">
          1082.4453040259277 525.1456372570026 0 -9.334932553753589 0 0
          727.0300554595744 522.0649091030868 0 18.731344776127486 0 0
          373.5544822573637 517.9590653333956 0 35.83573228045869 0 0
          20.32780386965267 513.7201294433978 0 41.934696903506016 0 0
          398.08366310481574 624.2420248824096 0 14.518061916773576 0 0
          368.5629580050498 620.8379372105281 0 46.554419700427985 0 0
          456.8094894754265 625.8862332797887 0 10.250153478515855 0 0
          394.81380247246426 622.2621992508928 0 41.206649240906415 0 0
          333.6099080882854 618.801354050297 0 54.39238825082741 0 0
          271.5858614471588 616.2162677147558 0 49.96019811977374 0 0
          207.23574214111952 615.3291441483171 0 27.931851938804687 0 0
          512.2365972926175 626.7166020907247 0 5.868832722009793 0 0
          420.04943727240294 623.3470276685922 0 35.79663859607083 0 0
          329.0264708120939 620.2111064399134 0 49.30620029165199 0 0
          237.3382174974542 617.8862585089923 0 46.46295995753043 0 0
          143.24363661346766 617.0346286687261 0 27.399429630807816 0 0
          564.0204580062663 625.6422292379189 0 2.4235237233517664 0 0
          444.57551954676114 623.2380105659406 0 31.487442836373827 0 0
          325.83304406363135 621.0748727087695 0 45.28999946796185 0 0
          206.72092504687788 619.5316064575261 0 43.728534774437094 0 0
          85.82112032924346 618.9440945201018 0 27.31782086060162 0 0
          613.7619323026902 623.5787324211624 0 0.34554900692755375 0 0
          468.8394487173701 622.2912528995337 0 29.183628290813495 0 0
          323.78171973777376 621.0932347824443 0 43.26041610146748 0 0
          178.74339823085148 620.5996981298682 0 42.64583324867449 0 0
          33.792776521772886 621.2963165225575 0 27.711852060018526 0 0
          664.2612534177031 621.9478600300334 0 -0.9821862983752254 0 0
          493.40874129909014 620.0395809197931 0 27.96458420961983 0 0
          323.3130446619033 618.6787335327407 0 42.776264984314594 0 0
          153.4365176178072 618.2138112608451 0 43.69024394961535 0 0
          -16.035560853658716 619.0038273414974 0 30.53806966833386 0 0
          714.8166110969585 616.3790150525263 0 -4.048165034796066 0 0
          519.2597864117344 613.9761115961584 0 25.376627806999277 0 0
          325.15958664965 612.2045936717795 0 41.308359121074716 0 0
          131.14910509165185 611.1025323507553 0 43.591526905617734 0 0
          -63.8083627689921 610.6629438594977 0 31.9102086045812 0 0
          763.5683212426181 605.6120113341898 0 -5.297236162741525 0 0
          546.2198803364823 604.2417834968251 0 23.82057778986225 0 0
          328.87391024901734 602.889281275159 0 40.15277987579463 0 0
          111.24488207763358 601.8401756505883 0 43.25760453309686 0 0
          -107.47085672092064 601.3789083844308 0 33.079494036562345 0 0
          812.9716327739404 594.5395369774951 0 -5.894180290294976 0 0
          573.6624626221538 593.5291258189012 0 23.694672611463687 0 0
          333.67670772760835 592.894727024009 0 40.33890293950087 0 0
          93.31948198516866 592.4537403928186 0 43.933704408993506 0 0
          -147.6166410073541 592.18818222757 0 34.82692483070414 0 0
          864.7390737108188 583.4915190807905 0 -5.985266782870555 0 0
          602.5562796602159 582.8208308862379 0 24.74331842029064 0 0
          339.44179402368934 582.5129352823496 0 41.968716243651365 0 0
          76.43518151355798 582.5976945040373 0 45.893687999381356 0 0
          -185.59395475018204 583.0045791423978 0 36.95947134445391 0 0
          920.1182965178598 572.7224598384519 0 -5.781533953960281 0 0
          633.2993266629542 571.2541471595094 0 25.934995801443165 0 0
          346.64498973132095 570.0228573709707 0 43.934519664957605 0 0
          60.559949905852676 569.176567355637 0 48.724566347214726 0 0
          -223.6701527792262 568.9809098123615 0 40.18613684910286 0 0
          977.4816888011164 559.7644350080774 0 -7.1998764054491 0 0
          665.3811368998147 557.0457190053323 0 24.637949547212123 0 0
          355.23871472506346 554.3264302752762 0 43.035889357648 0 0
          45.848346984832304 551.731777892235 0 48.21091260937892 0 0
          -263.9860159459425 549.130942685038 0 39.630857932563075 0 0
          1032.0131866707898 542.8567570741247 0 -8.223656838984077 0 0
          697.2442491690805 540.0944234822938 0 22.040089358356287 0 0
          364.39808518444073 536.5085353334465 0 40.017419245914205 0 0
          32.02273915258553 532.8176261422581 0 45.548948396942286 0 0
          -301.43919568852203 529.7565434817386 0 38.37572208748137 0 0
          -334.4566655391619 510.2993091828182 0 36.8076753453912 0 0
          <InformationKey name="L2_NORM_RANGE" location="vtkDataArray" length="2">
            <Value index="0">
              515.82953561
            </Value>
            <Value index="1">
              1203.1429331
            </Value>
          </InformationKey>
        </DataArray>
        <DataArray type="Float64" Name="Gauss Strain" NumberOfComponents="6" format="ascii" RangeMin="0.00017231556083958493" RangeMax="0.0006023341117404726">
          0.0004392410133352842 -0.00011787575591176713 0 -0.000018662628579837803 0 0
          0.00022736029308013939 0.000022450019923028752 0 0.00003745424014724585 0 0
          0.000016954906795110802 0.00016133739667187338 0 0.00007165928764223285 0 0
          -0.00019334350636965314 0.0002999998187586256 0 0.00008386073523231782 0 0
          -0.000010830743175482825 0.00021528135299535287 0 0.00002903026070786214 0 0
          -0.000027186325898681526 0.00022503874374298072 0 0.00009309044485912338 0 0
          0.000023750033373640123 0.0001927902322313296 0 0.000020496019528942165 0 0
          -0.000012002895868001852 0.0002153993279968569 0 0.00008239659578269292 0 0
          -0.000047348281643183616 0.00023778894255374603 0 0.00010876403220879041 0 0
          -0.00008353687592235759 0.00026103243104945445 0 0.00009990254267822538 0 0
          -0.00012180230441119488 0.00028622402926541113 0 0.00005585429884124007 0 0
          0.000056674400156775384 0.00017112853486393742 0 0.000011735216821726985 0 0
          0.000002706484108341841 0.0002059618765360982 0 0.00007157843393855413 0 0
          -0.000050662421022612536 0.00024046716945841373 0 0.0000985936541864365 0 0
          -0.00010475958219313686 0.0002757236028447657 0 0.00009290987682821002 0 0
          -0.0001608956681907192 0.00031282350932089475 0 0.0000547902433548013 0 0
          0.00008817226639283582 0.00014977975721915116 0 0.000004846183347655147 0 0
          0.000017466922186695766 0.00019609165810956228 0 0.00006296157125662138 0 0
          -0.00005292422795191709 0.00024226209862375503 0 0.00009056282362802303 0 0
          -0.00012379457177463807 0.0002889483051711217 0 0.0000874424420715994 0 0
          -0.00019613024871292795 0.00033691799570828573 0 0.000054627614476772156 0 0
          0.0001188381705687358 0.0001286531248594902 0 6.912755878425252e-7 0 0
          0.000032404408571384824 0.00018582333714257934 0 0.00005835468982656485 0 0
          -0.00005416273728231502 0.00024309321632402792 0 0.00008650447343183964 0 0
          -0.00014101511727782065 0.00030077116913454494 0 0.00008527784188408434 0 0
          -0.00022830636962598014 0.0003591208116131839 0 0.00005541607564622841 0 0
          0.00014978355852866831 0.00010748187945008869 0 -0.0000019634506227580663 0 0
          0.00004804638306360465 0.00017464986686833994 0 0.000055916943335627086 0 0
          -0.00005347841537009512 0.00024183248387464606 0 0.0000855364636170523 0 0
          -0.00015525139627381446 0.000309455036917039 0 0.00008736687594212029 0 0
          -0.0002573050887930972 0.000377658588036317 0 0.00006106846553057917 0 0
          0.00018233479218143775 0.00008392449107400002 0 -0.000008093594615584135 0 0
          0.00006598128087667576 0.0001606772321001426 0 0.000050742105833226626 0 0
          -0.000049780609795768704 0.0002372116953706649 0 0.00008260136866817549 0 0
          -0.00016578461529448416 0.0003140986943728219 0 0.00008717004048956849 0 0
          -0.0002826503662928248 0.0003917483362779195 0 0.0000638131467299757 0 0
          0.00021587992161760383 0.00005796821851966616 0 -0.000010590919359293469 0 0
          0.00008604865947597906 0.00014405859088217898 0 0.00004763062120005394 0 0
          -0.00004382548453435442 0.00023014022238017348 0 0.00008029078397339855 0 0
          -0.0001740266973103699 0.00031650005472635967 0 0.00008650282186504093 0 0
          -0.00030515137549885774 0.00040362983639995187 0 0.00006615216783485452 0 0
          0.0002499353496326767 0.00003156638833046177 0 -0.000011784308891076641 0 0
          0.00010679564824445098 0.0001266593646082198 0 0.0000473787650804685 0 0
          -0.000036945713850641826 0.0002222259876104027 0 0.00008066307530900179 0 0
          -0.0001810315088417169 0.0003180360318971037 0 0.00008785531816684162 0 0
          -0.0003255791055962187 0.0004141617154388988 0 0.00006964737503360827 0 0
          0.00028539603072133546 0.000004231920585601179 0 -0.000011966223450743786 0 0
          0.0001284103448941365 0.00010868161619349836 0 0.00004947546006672742 0 0
          -0.000029333885962393166 0.00021369450463357142 0 0.00008392222420998406 0 0
          -0.00018722368371684725 0.00031887419822985985 0 0.00009177526272743477 0 0
          -0.0003447084008469381 0.00042383113433647207 0 0.0000739127817200372 0 0
          0.00032290801770697153 -0.0000243817119124079 0 -0.00001155864885179994 0 0
          0.0001514763857511231 0.00008944857368654857 0 0.000051858157010927186 0 0
          -0.000020015961059341454 0.00020332339018419576 0 0.0000878533159778993 0 0
          -0.00019138363146797846 0.00031717137882585067 0 0.0000974369829996977 0 0
          -0.00036196023390677723 0.00043063853582017697 0 0.00008036658383147296 0 0
          0.00036248112224085416 -0.00005510486808724124 0 -0.00001439416330324196 0 0
          0.0001764005124581941 0.00006809440207421191 0 0.00004926465942413953 0 0
          -0.000008581052899844781 0.00019047327070829956 0 0.00008605661522908287 0 0
          -0.00019323450272448747 0.00031259131266518636 0 0.00009641049130266425 0 0
          -0.00037822476101698194 0.00043484873793411816 0 0.00007925704713399957 0 0
          0.0004019310793881292 -0.00008706799659863318 0 -0.000016440901156633668 0 0
          0.0002022885932103785 0.00004518090663856167 0 0.00004407016046465281 0 0
          0.000004041666657350614 0.00017612434663577536 0 0.00008002098135562985 0 0
          -0.00019396527896567425 0.0003067763118479727 0 0.0000910878466159432 0 0
          -0.0003929608587364686 0.00043820030343237615 0 0.00007674784510740919 0 0
          -0.00040500009400290526 0.0004397299963702084 0 0.00007361274560888645 0 0
          <InformationKey name="L2_NORM_RANGE" location="vtkDataArray" length="2">
            <Value index="0">
              0.00017231556084
            </Value>
            <Value index="1">
              0.00060233411174
            </Value>
          </InformationKey>
        </DataArray>
        <DataArray type="Float64" Name="Btraction" NumberOfComponents="3" format="ascii" RangeMin="0" RangeMax="313.9593821620308">
          -14.294317589074916 262.8560217010505 0 0 0 0
          0 0 0 0 0 0
          -5.8799342514283826 312.8351612918002 0 0 0 0
          -7.568962800514992 313.5651511819441 0 0 0 0
          0 0 0 0 0 0