<?xml version="1.0"?>
<VTKFile type="UnstructuredGrid" version="0.1" byte_order="LittleEndian" header_type="UInt32" compressor="vtkZLibDataCompressor">
  <UnstructuredGrid>
    <Piece NumberOfPoints="87" NumberOfCells="67">
      <PointData>
        <DataArray type="Float64" Name="sld_BC" NumberOfComponents="3" format="ascii" RangeMin="0" RangeMax="0">
          0 0 0 0 0 0
          0 0 0 0 0 0
          0 0 0 0 0 0
          0 0 0 0 0 0
          0 0 0 0 0 0
          0 0 0 0 0 0
          0 0 0 0 0 0
          0 0 0 0 0 0
          0 0 0 0 0 0
          0 0 0 0 0 0
          0 0 0 0 0 0
          0 0 0 0 0 0
          0 0 0 0 0 0
          0 0 0 0 0 0
          0 0 0 0 0 0
          0 0 0 0 0 0
          0 0 0 0 0 0
          0 0 0 0 0 0
          0 0 0 0 0 0
          0 0 0 0 0 0
          0 0 0 0 0 0
          0 0 0 0 0 0
          0 0 0 0 0 0
          0 0 0 0 0 0
          0 0 0 0 0 0
          0 0 0 0 0 0
          0 0 0 0 0 0
          0 0 0 0 0 0
          0 0 0 0 0 0
          0 0 0 0 0 0
          0 0 0 0 0 0
          0 0 0 0 0 0
          0 0 0 0 0 0
          0 0 0 0 0 0
          0 0 0 0 0 0
          0 0 0 0 0 0
          0 0 0 0 0 0
          0 0 0 0 0 0
          0 0 0 0 0 0
          0 0 0 0 0 0
          0 0 0 0 0 0
          0 0 0 0 0 0
          0 0 0 0 0 0
          0 0 0
          <InformationKey name="L2_NORM_RANGE" location="vtkDataArray" length="2">
            <Value index="0">
              0
            </Value>
            <Value index="1">
              0
            </Value>
          </InformationKey>
        </DataArray>
        <DataArray type="Float64" Name="sld_FIXNO" NumberOfComponents="3" format="ascii" RangeMin="1.4142135623730951" RangeMax="1.4142135623730951">
          -1 -1 0 -1 -1 0
          -1 -1 0 -1 -1 0
          -1 -1 0 -1 -1 0
          -1 -1 0 -1 -1 0
          -1 -1 0 -1 -1 0
          -1 -1 0 -1 -1 0
          -1 -1 0 -1 -1 0
          -1 -1 0 -1 -1 0
          -1 -1 0 -1 -1 0
          -1 -1 0 -1 -1 0
          -1 -1 0 -1 -1 0
          -1 -1 0 -1 -1 0
          -1 -1 0 -1 -1 0
          -1 -1 0 -1 -1 0
          -1 -1 0 -1 -1 0
          -1 -1 0 -1 -1 0
          -1 -1 0 -1 -1 0
          -1 -1 0 -1 -1 0
          -1 -1 0 -1 -1 0
          -1 -1 0 -1 -1 0
          -1 -1 0 -1 -1 0
          -1 -1 0 -1 -1 0
          -1 -1 0 -1 -1 0
          -1 -1 0 -1 -1 0
          -1 -1 0 -1 -1 0
          -1 -1 0 -1 -1 0
          -1 -1 0 -1 -1 0
          -1 -1 0 -1 -1 0
          -1 -1 0 -1 -1 0
          -1 -1 0 -1 -1 0
          -1 -1 0 -1 -1 0
          -1 -1 0 -1 -1 0
          -1 -1 0 -1 -1 0
          -1 -1 0 -1 -1 0
          -1 -1 0 -1 -1 0
          -1 -1 0 -1 -1 0
          -1 -1 0 -1 -1 0
          -1 -1 0 -1 -1 0
          -1 -1 0 -1 -1 0
          -1 -1 0 -1 -1 0
          -1 -1 0 -1 -1 0
          -1 -1 0 -1 -1 0
          -1 -1 0 -1 -1 0
          -1 -1 0
          <InformationKey name="L2_NORM_RANGE" location="vtkDataArray" length="2">
            <Value index="0">
              1.4142135624
            </Value>
            <Value index="1">
              1.4142135624
            </Value>
          </InformationKey>
        </DataArray>
      </PointData>
      <CellData>
        <DataArray type="UInt8" Name="vtkGhostType" format="ascii" RangeMin="0" RangeMax="1">
          1 1 1 1 0 0
          0 0 0 0 0 0
          0 0 0 0 0 0
          0 0 0 0 0 0
          0 0 0 0 0 0
          0 0 0 0 0 0
          0 0 0 0 0 0
          0 0 0 0 0 0
          0 0 0 0 0 0
          0 0 0 0 0 0
          0 0 0 0 0 0
          1
        </DataArray>
      </CellData>
      <Points>
        <DataArray type="Float32" Name="Points" NumberOfComponents="3" format="ascii" RangeMin="0.3835931364551903" RangeMax="0.47359889240258746">
          0.4174746870994568 0.20999999344348907 0 0.4174746870994568 0.20600000023841858 0
          0.4174746870994568 0.20200000703334808 0 0.4174746870994568 0.1979999989271164 0
          0.4174746870994568 0.1940000057220459 0 0.4174746870994568 0.1899999976158142 0
          0.41045451164245605 0.20999999344348907 0 0.41045451164245605 0.20600000023841858 0
          0.41045451164245605 0.20200000703334808 0 0.41045451164245605 0.1979999989271164 0
          0.41045451164245605 0.1940000057220459 0 0.41045451164245605 0.1899999976158142 0
          0.40343430638313293 0.20999999344348907 0 0.40343430638313293 0.20600000023841858 0
          0.40343430638313293 0.20200000703334808 0 0.40343430638313293 0.1979999989271164 0
          0.40343430638313293 0.1940000057220459 0 0.40343430638313293 0.1899999976158142 0
          0.3964141011238098 0.20999999344348907 0 0.3964141011238098 0.20600000023841858 0
          0.3964141011238098 0.20200000703334808 0 0.3964141011238098 0.1979999989271164 0
          0.3964141011238098 0.1940000057220459 0 0.3964141011238098 0.1899999976158142 0
          0.3893938958644867 0.20999999344348907 0 0.3893938958644867 0.20600000023841858 0
          0.3893938958644867 0.20200000703334808 0 0.3893938958644867 0.1979999989271164 0
          0.3893938958644867 0.1940000057220459 0 0.3893938958644867 0.1899999976158142 0
          0.3823736906051636 0.20999999344348907 0 0.3823736906051636 0.20600000023841858 0
          0.3823736906051636 0.20200000703334808 0 0.3823736906051636 0.1979999989271164 0
          0.3823736906051636 0.1940000057220459 0 0.3823736906051636 0.1899999976158142 0
          0.37535348534584045 0.20999999344348907 0 0.37535348534584045 0.20600000023841858 0
          0.37535348534584045 0.20200000703334808 0 0.37535348534584045 0.1979999989271164 0
          0.37535348534584045 0.1940000057220459 0 0.37535348534584045 0.1899999976158142 0
          0.3683333098888397 0.20999999344348907 0 0.3683333098888397 0.20600000023841858 0
          0.3683333098888397 0.20200000703334808 0 0.3683333098888397 0.1979999989271164 0
          0.3683333098888397 0.1940000057220459 0 0.3683333098888397 0.1899999976158142 0
          0.3613131046295166 0.20999999344348907 0 0.3613131046295166 0.20600000023841858 0
          0.3613131046295166 0.20200000703334808 0 0.3613131046295166 0.1979999989271164 0
          0.3613131046295166 0.1940000057220459 0 0.3613131046295166 0.1899999976158142 0
          0.3542928993701935 0.20999999344348907 0 0.3542928993701935 0.20600000023841858 0
          0.3542928993701935 0.20200000703334808 0 0.3542928993701935 0.1979999989271164 0
          0.3542928993701935 0.1940000057220459 0 0.3542928993701935 0.1899999976158142 0
          0.34727269411087036 0.20999999344348907 0 0.34727269411087036 0.20600000023841858 0
          0.34727269411087036 0.20200000703334808 0 0.34727269411087036 0.1979999989271164 0
          0.34727269411087036 0.1940000057220459 0 0.34727269411087036 0.1899999976158142 0
          0.3402523994445801 0.20999999344348907 0 0.3402523994445801 0.20600000023841858 0
          0.3402523994445801 0.20200000703334808 0 0.3402523994445801 0.1979999989271164 0
          0.3402523994445801 0.1940000057220459 0 0.3402523994445801 0.1899999976158142 0
          0.33323219418525696 0.20999999344348907 0 0.33323219418525696 0.20600000023841858 0
          0.4244948923587799 0.20600000023841858 0 0.4244948923587799 0.20999999344348907 0
          0.4244948923587799 0.20200000703334808 0 0.4244948923587799 0.1979999989271164 0
          0.4244948923587799 0.1940000057220459 0 0.32621198892593384 0.20600000023841858 0
          0.32621198892593384 0.20999999344348907 0 0.32621198892593384 0.20200000703334808 0
          0.33323219418525696 0.20200000703334808 0 0.33323219418525696 0.1979999989271164 0
          0.33323219418525696 0.1940000057220459 0 0.33323219418525696 0.1899999976158142 0
          0.4244948923587799 0.1899999976158142 0
          <InformationKey name="L2_NORM_RANGE" location="vtkDataArray" length="2">
            <Value index="0">
              0.38359313646
            </Value>
            <Value index="1">
              0.4735988924
            </Value>
          </InformationKey>
        </DataArray>
      </Points>
      <Cells>
        <DataArray type="Int64" Name="connectivity" format="ascii" RangeMin="0" RangeMax="86">
          1 74 75 0 2 76
          74 1 3 77 76 2
          4 78 77 3 79 73
          72 80 81 82 73 79
          73 67 66 72 82 68
          67 73 83 69 68 82
          84 70 69 83 85 71
          70 84 67 61 60 66
          68 62 61 67 69 63
          62 68 70 64 63 69
          71 65 64 70 61 55
          54 60 62 56 55 61
          63 57 56 62 64 58
          57 63 65 59 58 64
          55 49 48 54 56 50
          49 55 57 51 50 56
          58 52 51 57 59 53
          52 58 49 43 42 48
          50 44 43 49 51 45
          44 50 52 46 45 51
          53 47 46 52 43 37
          36 42 44 38 37 43
          45 39 38 44 46 40
          39 45 47 41 40 46
          37 31 30 36 38 32
          31 37 39 33 32 38
          40 34 33 39 41 35
          34 40 31 25 24 30
          32 26 25 31 33 27
          26 32 34 28 27 33
          35 29 28 34 25 19
          18 24 26 20 19 25
          27 21 20 26 28 22
          21 27 29 23 22 28
          19 13 12 18 20 14
          13 19 21 15 14 20
          22 16 15 21 23 17
          16 22 13 7 6 12
          14 8 7 13 15 9
          8 14 16 10 9 15
          17 11 10 16 7 1
          0 6 8 2 1 7
          9 3 2 8 10 4
          3 9 11 5 4 10
          5 86 78 4
        </DataArray>
        <DataArray type="Int64" Name="offsets" format="ascii" RangeMin="4" RangeMax="268">
          4 8 12 16 20 24
          28 32 36 40 44 48
          52 56 60 64 68 72
          76 80 84 88 92 96
          100 104 108 112 116 120
          124 128 132 136 140 144
          148 152 156 160 164 168
          172 176 180 184 188 192
          196 200 204 208 212 216
          220 224 228 232 236 240
          244 248 252 256 260 264
          268
        </DataArray>
        <DataArray type="UInt8" Name="types" format="ascii" RangeMin="9" RangeMax="9">
          9 9 9 9 9 9
          9 9 9 9 9 9
          9 9 9 9 9 9
          9 9 9 9 9 9
          9 9 9 9 9 9
          9 9 9 9 9 9
          9 9 9 9 9 9
          9 9 9 9 9 9
          9 9 9 9 9 9
          9 9 9 9 9 9
          9 9 9 9 9 9
          9
        </DataArray>
      </Cells>
    </Piece>
  </UnstructuredGrid>
</VTKFile>
