<?xml version="1.0"?>
<VTKFile type="UnstructuredGrid" version="0.1" byte_order="LittleEndian" header_type="UInt32" compressor="vtkZLibDataCompressor">
  <UnstructuredGrid>
    <Piece NumberOfPoints="84" NumberOfCells="65">
      <PointData>
        <DataArray type="Float64" Name="sld_BC" NumberOfComponents="3" format="ascii" RangeMin="0" RangeMax="0">
          0 0 0 0 0 0
          0 0 0 0 0 0
          0 0 0 0 0 0
          0 0 0 0 0 0
          0 0 0 0 0 0
          0 0 0 0 0 0
          0 0 0 0 0 0
          0 0 0 0 0 0
          0 0 0 0 0 0
          0 0 0 0 0 0
          0 0 0 0 0 0
          0 0 0 0 0 0
          0 0 0 0 0 0
          0 0 0 0 0 0
          0 0 0 0 0 0
          0 0 0 0 0 0
          0 0 0 0 0 0
          0 0 0 0 0 0
          0 0 0 0 0 0
          0 0 0 0 0 0
          0 0 0 0 0 0
          0 0 0 0 0 0
          0 0 0 0 0 0
          0 0 0 0 0 0
          0 0 0 0 0 0
          0 0 0 0 0 0
          0 0 0 0 0 0
          0 0 0 0 0 0
          0 0 0 0 0 0
          0 0 0 0 0 0
          0 0 0 0 0 0
          0 0 0 0 0 0
          0 0 0 0 0 0
          0 0 0 0 0 0
          0 0 0 0 0 0
          0 0 0 0 0 0
          0 0 0 0 0 0
          0 0 0 0 0 0
          0 0 0 0 0 0
          0 0 0 0 0 0
          0 0 0 0 0 0
          0 0 0 0 0 0
          <InformationKey name="L2_NORM_RANGE" location="vtkDataArray" length="2">
            <Value index="0">
              0
            </Value>
            <Value index="1">
              0
            </Value>
          </InformationKey>
        </DataArray>
        <DataArray type="Float64" Name="sld_FIXNO" NumberOfComponents="3" format="ascii" RangeMin="1.4142135623730951" RangeMax="1.4142135623730951">
          -1 -1 0 -1 -1 0
          -1 -1 0 -1 -1 0
          -1 -1 0 -1 -1 0
          -1 -1 0 -1 -1 0
          -1 -1 0 -1 -1 0
          -1 -1 0 -1 -1 0
          -1 -1 0 -1 -1 0
          -1 -1 0 -1 -1 0
          -1 -1 0 -1 -1 0
          -1 -1 0 -1 -1 0
          -1 -1 0 -1 -1 0
          -1 -1 0 -1 -1 0
          -1 -1 0 -1 -1 0
          -1 -1 0 -1 -1 0
          -1 -1 0 -1 -1 0
          -1 -1 0 -1 -1 0
          -1 -1 0 -1 -1 0
          -1 -1 0 -1 -1 0
          -1 -1 0 -1 -1 0
          -1 -1 0 -1 -1 0
          -1 -1 0 -1 -1 0
          -1 -1 0 -1 -1 0
          -1 -1 0 -1 -1 0
          -1 -1 0 -1 -1 0
          -1 -1 0 -1 -1 0
          -1 -1 0 -1 -1 0
          -1 -1 0 -1 -1 0
          -1 -1 0 -1 -1 0
          -1 -1 0 -1 -1 0
          -1 -1 0 -1 -1 0
          -1 -1 0 -1 -1 0
          -1 -1 0 -1 -1 0
          -1 -1 0 -1 -1 0
          -1 -1 0 -1 -1 0
          -1 -1 0 -1 -1 0
          -1 -1 0 -1 -1 0
          -1 -1 0 -1 -1 0
          -1 -1 0 -1 -1 0
          -1 -1 0 -1 -1 0
          -1 -1 0 -1 -1 0
          -1 -1 0 -1 -1 0
          -1 -1 0 -1 -1 0
          <InformationKey name="L2_NORM_RANGE" location="vtkDataArray" length="2">
            <Value index="0">
              1.4142135624
            </Value>
            <Value index="1">
              1.4142135624
            </Value>
          </InformationKey>
        </DataArray>
        <DataArray type="Float64" Name="Disp" NumberOfComponents="3" format="ascii" RangeMin="0.000026919891002716948" RangeMax="0.00023126256814285802">
          -0.000014724095106405393 -0.00022409318110301065 0 -0.000024245292004013663 -0.00022397730254185072 0
          -0.00003351301791174761 -0.00022382479898596795 0 -0.000042586634691939185 -0.00022364912505469904 0
          -0.00005145586638160155 -0.00022347884292635178 0 -0.000060034933051386406 -0.00022333423883844053 0
          -0.00001525579953715884 -0.00020796187872836096 0 -0.000024655705697770294 -0.0002079004875566196 0
          -0.00003392261565842151 -0.00020786662039931828 0 -0.00004301046657215793 -0.00020783033853244412 0
          -0.000051905601088181784 -0.00020778303504444202 0 -0.00006063300162181613 -0.00020769515166748292 0
          -0.0000158111666022557 -0.00019222570104614976 0 -0.000025118178510043003 -0.00019211472473929954 0
          -0.00003435612823480714 -0.00019202011524459557 0 -0.0000434671489872734 -0.00019192465903005197 0
          -0.000052436650486720434 -0.0001918049262134112 0 -0.00006129381964903853 -0.00019164701387834235 0
          -0.00001638966489550776 -0.00017647572747383214 0 -0.00002570421457429496 -0.00017632253062437663 0
          -0.00003495053240688516 -0.00017615853042629695 0 -0.00004410226623922038 -0.00017597947992375136 0
          -0.00005314132141505745 -0.00017577687624363504 0 -0.00006205763644989262 -0.00017554999796189522 0
          -0.000017023634130365693 -0.000160623228867325 0 -0.00002638862718256286 -0.00016043190910257246 0
          -0.00003568795859084943 -0.00016021583426318193 0 -0.00004489973179010568 -0.00015997389544371982 0
          -0.0000540046507131671 -0.00015970465650818884 0 -0.00006298206082001228 -0.00015940658699172192 0
          -0.0000177097012242746 -0.0001446263327777963 0 -0.00002715770478093413 -0.00014440222138879439 0
          -0.0000365361234350426 -0.00014414449992933363 0 -0.00004582732399808443 -0.0001438544582232694 0
          -0.00005501376976504279 -0.00014353124190455747 0 -0.00006407742863241983 -0.00014317225306106644 0
          -0.000018449656082895306 -0.0001284369178095023 0 -0.00002800135769842373 -0.00012818434625741097 0
          -0.00003747758880406761 -0.00012789252860414643 0 -0.000046865483862932034 -0.00012756287338379252 0
          -0.00005615191418955785 -0.00012719449613498844 0 -0.00006532350341084896 -0.00012678388635852853 0
          -0.00001924644898566936 -0.00011201771397341387 0 -0.000028914872038932246 -0.00011173840663918109 0
          -0.00003850213148832248 -0.0001114163562471103 0 -0.00004799987604757965 -0.00011105348129031515 0
          -0.000057400975902637035 -0.00011064825192797574 0 -0.00006669788363472289 -0.00011019589768708978 0
          -0.000020104367796890813 -0.00009533759614251561 0 -0.000029898238604697416 -0.0000950309106069723 0
          -0.00003960164980911607 -0.0000946822313187475 0 -0.00004921511158084842 -0.00009429338130667543 0
          -0.00005873908251261913 -0.00009386188355447687 0 -0.0000681730880806008 -0.00009338095378203609 0
          -0.000021031528516158036 -0.00007836296316652117 0 -0.000030948838564454945 -0.0000780349368383338 0
          -0.00004076564190312265 -0.00007766691021807773 0 -0.000050491493303738 -0.0000772621812085731 0
          -0.000060137512139833306 -0.00007681810019186718 0 -0.00006971386566122859 -0.00007632579194571482 0
          -0.000022037902232922646 -0.00006111089319360423 0 -0.00003206789521837132 -0.00006075671305602114 0
          -0.000041982747487474924 -0.00006037260842771671 0 -0.00005180615735523039 -0.0000599613400156461 0
          -0.0000615615123682925 -0.000059518915276348725 0 -0.00007127266935913435 -0.000059035232267131316 0
          -0.000023141432070107066 -0.00004358256583437295 0 -0.00003325476685546115 -0.000043210265769205384 0
          -0.00004323910355921162 -0.0000428207393909668 0 -0.00005313238494160976 -0.000042416505429398104 0
          -0.0000629715052087338 -0.00004199350141476115 0 -0.00007279230645225107 -0.00004154042886995771 0
          -0.000024356438993788554 -0.000025858114239975995 0 -0.00003450820964199384 -0.0000254654318770382 0
          -0.000044520049303299034 -0.000025074509570040922 0 -0.000054440092439991094 -0.000024688890145952175 0
          -0.00006432005915387002 -0.000024305229013911657 0 -0.00007421252538320217 -0.00002391194086130565 0
          -0.00003583536890653847 -0.0000076058545109362525 0 -0.000025696981182287443 -0.000008021576510594787 0
          -0.00004581514188362856 -0.000007216947972405455 0 -0.00005570145280559146 -0.000006859615611405824 0
          -0.00006556175910145413 -0.000006529669110037963 0 -0.00007546603041524375 -0.000006215461608011444 0
          <InformationKey name="L2_NORM_RANGE" location="vtkDataArray" length="2">
            <Value index="0">
              2.6919891003e-05
            </Value>
            <Value index="1">
              0.00023126256814
            </Value>
          </InformationKey>
        </DataArray>
        <DataArray type="Float64" Name="Sld_traction" NumberOfComponents="3" format="ascii" RangeMin="0" RangeMax="137.33630777380105">
          83.37269762630338 73.8118063291587 0 130.3005058534013 29.83517245968378 0
          107.08524142017211 9.859307434298817 0 108.0929339700529 -5.554940055867096 0
          134.37865075012553 -28.348538860336205 0 85.46337923987393 -71.76762713818322 0
          41.08488637033142 109.12410990044965 0 0 0 0
          0 0 0 0 0 0
          0 0 0 37.50838778179118 -109.85708465980917 0
          44.523572576862854 92.25762816793419 0 0 0 0
          0 0 0 0 0 0
          0 0 0 38.674974679656934 -97.27048520576795 0
          40.09777104219666 71.42622265201143 0 0 0 0
          0 0 0 0 0 0
          0 0 0 33.1531063079832 -82.82010138478067 0
          37.38690665372693 58.48166393290444 0 0 0 0
          0 0 0 0 0 0
          0 0 0 29.884011858491462 -78.35743857536501 0
          35.51728439409436 49.11557397882999 0 0 0 0
          0 0 0 0 0 0
          0 0 0 27.849979083552032 -78.57743785798156 0
          33.28928719066869 43.541600630422515 0 0 0 0
          0 0 0 0 0 0
          0 0 0 26.994975989974908 -79.96939259567753 0
          30.33033509583984 40.374783888143654 0 0 0 0
          0 0 0 0 0 0
          0 0 0 26.594281188239552 -82.06218949529126 0
          26.03092463040466 39.66797007507072 0 0 0 0
          0 0 0 0 0 0
          0 0 0 26.19131772589287 -85.2285819835058 0
          20.946940059752418 43.88413647351888 0 0 0 0
          0 0 0 0 0 0
          0 0 0 25.572555065471786 -89.36428600014013 0
          14.9756314908955 51.4065216868205 0 0 0 0
          0 0 0 0 0 0
          0 0 0 24.732029748000897 -93.46129588039585 0
          8.316437140029965 66.57865963028898 0 0 0 0
          0 0 0 0 0 0
          0 0 0 23.33315937582734 -97.89555842304642 0
          2.090287231737735 85.1896561439056 0 0 0 0
          0 0 0 0 0 0
          0 0 0 22.02815923628901 -103.79080507082136 0
          0 0 0 -4.604539174007523 107.79659050622928 0
          0 0 0 0 0 0
          0 0 0 20.80244907559005 -107.22637339853343 0
          <InformationKey name="L2_NORM_RANGE" location="vtkDataArray" length="2">
            <Value index="0">
              0
            </Value>
            <Value index="1">
              137.33630777
            </Value>
          </InformationKey>
        </DataArray>
        <DataArray type="Float64" Name="Fld_traction" NumberOfComponents="3" format="ascii" RangeMin="0" RangeMax="136.64363244215164">
          90.07842111804351 59.83194728513743 0 135.5286046654063 -0.21943384061590201 0
          128.3434169862155 0.2629243688411573 0 128.72848467561707 -0.3728766153217842 0
          136.643519433068 0.17573824457004747 0 92.41790773960874 -55.20927214566582 0
          46.37758116905781 97.07797649636703 0 0 0 0
          0 0 0 0 0 0
          0 0 0 45.68445780588806 -92.82581955786597 0
          44.29990120787268 84.25161273600807 0 0 0 0
          0 0 0 0 0 0
          0 0 0 42.66868840540342 -81.60159838523046 0
          42.656650316910714 74.44437048297686 0 0 0 0
          0 0 0 0 0 0
          0 0 0 41.16990692339285 -73.12264929850448 0
          40.07337065149395 67.46447455213254 0 0 0 0
          0 0 0 0 0 0
          0 0 0 39.04045819245069 -67.1661660577283 0
          38.9106189519553 61.93682700350324 0 0 0 0
          0 0 0 0 0 0
          0 0 0 36.545874917013535 -64.42273874669343 0
          37.37055561392554 58.66739634346234 0 0 0 0
          0 0 0 0 0 0
          0 0 0 34.960540896479934 -63.198686568268144 0
          34.94981381462121 56.86403360703655 0 0 0 0
          0 0 0 0 0 0
          0 0 0 33.604099100303756 -63.20852027179934 0
          31.770557141830285 56.18575573978301 0 0 0 0
          0 0 0 0 0 0
          0 0 0 31.983728954310138 -65.09855412235143 0
          27.721960880908075 59.59924065422488 0 0 0 0
          0 0 0 0 0 0
          0 0 0 29.504552352035326 -69.31243761589155 0
          23.524852379934682 63.71173532821762 0 0 0 0
          0 0 0 0 0 0
          0 0 0 26.234753150344286 -75.66567163707856 0
          18.51589246504989 73.86816952063315 0 0 0 0
          0 0 0 0 0 0
          0 0 0 22.63510668176785 -84.31472139565396 0
          13.294216884072124 85.6081947476362 0 0 0 0
          0 0 0 0 0 0
          0 0 0 18.38374935071025 -97.49983437051537 0
          0 0 0 8.66410444389267 99.38516314901574 0
          0 0 0 0 0 0
          0 0 0 14.132331460732129 -110.68513516214836 0
          <InformationKey name="L2_NORM_RANGE" location="vtkDataArray" length="2">
            <Value index="0">
              0
            </Value>
            <Value index="1">
              136.64363244
            </Value>
          </InformationKey>
        </DataArray>
        <DataArray type="Float64" Name="Velocity" NumberOfComponents="3" format="ascii" RangeMin="0.0006154897619855308" RangeMax="0.0050305474164543396">
          0.001983664497173891 -0.004622930074297824 0 0.0017132940039190597 -0.004625266148633065 0
          0.001428800685984485 -0.004629283056612272 0 0.0011331426419299733 -0.0046343556080317245 0
          0.0008258467638487424 -0.004639111292524616 0 0.0005029084278651273 -0.004642635374478106 0
          0.0020049053118383147 -0.004121934565880959 0 0.0017284993785018263 -0.004118467866418389 0
          0.0014438044919723668 -0.004113591423459207 0 0.0011486330586237036 -0.0041087767627128735 0
          0.0008423491503688858 -0.004104487066099791 0 0.0005261640492917989 -0.004102080729795218 0
          0.0020160674465540297 -0.003604163215534376 0 0.0017355246736322893 -0.003598670325187893 0
          0.0014494050137971223 -0.003592519146984425 0 0.001155229818281582 -0.003586449281395653 0
          0.0008522432044900355 -0.003581480653651656 0 0.000541411191368784 -0.0035781091163100236 0
          0.0020174484843646263 -0.0030861075480831963 0 0.0017372681586653965 -0.003078522292572318 0
          0.0014516953726246302 -0.003071540616507154 0 0.001159449276716519 -0.0030653688916945903 0
          0.0008595288217132487 -0.0030603183470604913 0 0.0005511991380904684 -0.0030563422572341347 0
          0.002010713146367015 -0.0025716454602241054 0 0.00173308442071346 -0.0025619801802970726 0
          0.0014502901272467113 -0.002553669709969138 0 0.0011611564764898038 -0.002546834126457349 0
          0.0008644388570421303 -0.0025414925251202743 0 0.0005588301106042 -0.0025375342471727217 0
          0.001996170881195252 -0.0020628208495912627 0 0.0017227282278204185 -0.0020510092520691883 0
          0.0014444263081805553 -0.002041195169939041 0 0.0011598808286706346 -0.0020334796099591925 0
          0.0008676368539087009 -0.002027866771502703 0 0.0005661328361215535 -0.0020242604538447053 0
          0.001973565904959107 -0.0015624032102536482 0 0.001706078751622167 -0.0015483258916163133 0
          0.0014339801544932863 -0.0015369389198549108 0 0.0011557273259823488 -0.0015283292296742654 0
          0.0008696851831525645 -0.0015225116166666466 0 0.0005741190470086545 -0.0015194234453680558 0
          0.0019427909810354853 -0.0010734599909549794 0 0.0016831289709904429 -0.0010571500802831813 0
          0.0014190869534969177 -0.0010442423330665341 0 0.0011489873517589355 -0.001034817557367279 0
          0.000871077664318382 -0.0010289113889682482 0 0.0005834780673240653 -0.001026517219699199 0
          0.0019038774332774521 -0.0005996650929615786 0 0.0016540648710209258 -0.0005812091034332833 0
          0.0014000214974344968 -0.0005669110993261698 0 0.0011400030015279406 -0.0005568023154255118 0
          0.0008722286258858766 -0.0005509164399708673 0 0.0005947853367681824 -0.0005493070065659253 0
          0.0018571043155377054 -0.00014483078277437004 0 0.0016192831545033307 -0.00012448437757029654 0
          0.0013772130427580158 -0.00010905045442026787 0 0.0011292125573572967 -0.00009851518099671152 0
          0.0008735701827232828 -0.00009292298486866758 0 0.0006085170494140031 -0.00009238315691445606 0
          0.0018031256039327732 0.00028706452353079095 0 0.0015793515376562573 0.00030902034576564 0
          0.0013511832273308479 0.0003253509001264823 0 0.0011171143929623504 0.00033607601724707696 0
          0.0008755659857826287 0.00034113770897638957 0 0.0006249085140524785 0.0003404117487082561 0
          0.0017428223859844078 0.0006924631459498327 0 0.0015348721179486461 0.0007157510517999711 0
          0.0013224205082413218 0.0007327679141985586 0 0.0011041011829176373 0.00074351783817638 0
          0.0008784788318686181 0.0007479395674574927 0 0.0006440444061241563 0.0007459046901888457 0
          0.0016769786696962958 0.001068283381125078 0 0.0014864725897186233 0.0010926213072124243 0
          0.001291387124831976 0.001110099973981646 0 0.00109048861292223 0.0011207095224284398 0
          0.0008824636130096214 0.0011243796201960443 0 0.000665948052983738 0.0011209812892115619 0
          0.0014347999573058484 0.0014369084531851597 0 0.0016063999695266435 0.0014118281877573914 0
          0.0012585693310364133 0.0014545982458369603 0 0.001076591409253902 0.0014648927891861624 0
          0.0008876941006441511 0.001467709160531221 0 0.0006906036668380814 0.0014628917714260097 0
          <InformationKey name="L2_NORM_RANGE" location="vtkDataArray" length="2">
            <Value index="0">
              0.00061548976199
            </Value>
            <Value index="1">
              0.0050305474165
            </Value>
          </InformationKey>
        </DataArray>
      </PointData>
      <CellData>
        <DataArray type="UInt8" Name="vtkGhostType" format="ascii" RangeMin="0" RangeMax="0">
          0 0 0 0 0 0
          0 0 0 0 0 0
          0 0 0 0 0 0
          0 0 0 0 0 0
          0 0 0 0 0 0
          0 0 0 0 0 0
          0 0 0 0 0 0
          0 0 0 0 0 0
          0 0 0 0 0 0
          0 0 0 0 0 0
          0 0 0 0 0
        </DataArray>
        <DataArray type="Float64" Name="Gauss Stress" NumberOfComponents="6" format="ascii" RangeMin="147.47175979717932" RangeMax="415.76476591553387">
          383.9426563558395 92.92325460454929 0 -3.409290718768618 0 0
          381.10078997890514 96.98776727895944 0 -22.804901325195537 0 0
          376.0772319916058 101.31177759139189 0 -33.29045795007095 0 0
          371.91563858768706 104.62611360502945 0 -34.48998906295887 0 0
          371.7717645800653 105.76428662305045 0 -26.23058288838245 0 0
          352.13670349227345 80.69854024474836 0 3.110432165021332 0 0
          362.1094937122001 84.13085746974139 0 -14.478509832911016 0 0
          371.1717682213723 88.20701477015388 0 -25.297649886772515 0 0
          381.3023176583157 91.44023147856704 0 -29.130815054681214 0 0
          395.3732132256945 92.52088658035754 0 -25.980167794878593 0 0
          323.47020533658383 69.49196727471745 0 9.573072638748052 0 0
          344.109953751083 73.43504550520288 0 -6.5423446082814865 0 0
          363.2409299350199 77.4642701544241 0 -17.90773135665795 0 0
          383.45661556435596 80.53100764457848 0 -24.623770819574617 0 0
          406.8660040938106 81.26143996342873 0 -26.776363916782998 0 0
          298.91893287218306 62.188413506320266 0 16.736486410281465 0 0
          326.2720289697078 65.86792907983337 0 1.727320117331241 0 0
          351.9322408863852 69.67480218494316 0 -10.502725564199089 0 0
          378.3685790022283 72.60973767076798 0 -19.946603725496054 0 0
          408.04278788430383 73.74488457390461 0 -26.73018825049509 0 0
          278.83072281504155 58.529241034516176 0 21.934197840863384 0 0
          308.76750776625323 61.41626611426326 0 8.518494927693652 0 0
          337.6306289916014 64.65227658185609 0 -4.071642427339296 0 0
          367.0689110722256 67.20120101212876 0 -15.698572482615242 0 0
          398.9989059634878 68.14697378150424 0 -26.564127152163017 0 0
          261.4256464560417 56.90980653783919 0 27.16289792722382 0 0
          291.72038548272667 59.46783014378544 0 14.481155327534083 0 0
          320.86346549062273 62.036680750604376 0 1.3611126647091285 0 0
          350.4335601040003 64.05474367216216 0 -12.163796631080178 0 0
          381.6755481181927 64.78014728139345 0 -26.28574782077498 0 0
          246.57600064258165 58.137632525798544 0 30.655742859238433 0 0
          274.6156624405823 59.76548360552893 0 18.807160732793125 0 0
          302.00169525617605 61.65211407884435 0 5.403158353630561 0 0
          329.5457527883384 63.142361075249944 0 -9.5028798756266 0 0
          358.30801796018784 63.721080157981966 0 -26.022163221440756 0 0
          232.95686052132947 60.43119090976543 0 33.20580784682885 0 0
          257.68805436469256 61.757622107097326 0 21.885629377100443 0 0
          281.57413072853916 63.08555429142054 0 8.263536368571465 0 0
          305.4659762807201 64.05754920325401 0 -7.669074591242984 0 0
          330.2072063100377 64.325625084676 0 -25.993510586142367 0 0
          220.5337561190362 64.80636276120113 0 35.11565960239965 0 0
          240.48149385764773 65.96603439746436 0 23.990874562840332 0 0
          259.6794809632882 66.66749750835537 0 9.850992502822955 0 0
          278.79792469098055 66.84154408890586 0 -7.030084594861542 0 0
          298.3120418043081 66.42185645066816 0 -26.78604764138529 0 0
          208.83361801527764 71.70380504237117 0 36.89213813871187 0 0
          221.96218548058854 73.07310586484745 0 25.2988535311366 0 0
          235.76845762422684 73.78488481975864 0 9.80694086753001 0 0
          249.80781686464655 72.58475800721449 0 -8.542475076335629 0 0
          263.48575794801224 70.67585156498231 0 -29.107307091727577 0 0
          195.9333900199966 79.78793738362387 0 40.44920269009554 0 0
          200.6419406963024 84.11685484863901 0 27.893801659948423 0 0
          207.01497455691378 85.09551289101208 0 8.596060876668346 0 0
          218.45325911883316 82.80105152383622 0 -13.233731498944207 0 0
          230.18477111748686 77.65047633512445 0 -33.35072774548135 0 0
          187.6084699066147 93.35800041564438 0 46.52894873357467 0 0
          172.4110880861753 92.40167468353282 0 29.988506122562697 0 0
          170.13757882067978 90.23987332185004 0 6.595121497005154 0 0
          181.91060416976597 90.76957828394077 0 -18.99260179535879 0 0
          205.64231668219094 90.21882707606012 0 -41.59587078486862 0 0
          170.62017840344691 81.19759783928566 0 35.4839377262673 0 0
          141.86599565350718 60.08685912254907 0 17.5055724102911 0 0
          137.9337184427058 52.065956663939346 0 3.3682949565178655 0 0
          144.6824615268307 55.32179577454663 0 -12.109293161802759 0 0
          177.74412190029454 74.20870192925 0 -34.34205346300453 0 0
          <InformationKey name="L2_NORM_RANGE" location="vtkDataArray" length="2">
            <Value index="0">
              147.4717598
            </Value>
            <Value index="1">
              415.76476592
            </Value>
          </InformationKey>
        </DataArray>
        <DataArray type="Float64" Name="Gauss Strain" NumberOfComponents="6" format="ascii" RangeMin="0.00006673523469669992" RangeMax="0.0002517148073155938">
          0.0001931588147955354 -0.0000978328353787028 0 -0.000006817933293927758 0 0
          0.00018982877224317518 -0.00009425708381657905 0 -0.00004560544131974637 0 0
          0.0001850863563618715 -0.00008965286747525392 0 -0.00006657455262566789 0 0
          0.00018126516220762223 -0.00008599890329089033 0 -0.00006897339677777857 0 0
          0.00018072442362301877 -0.00008525768202305439 0 -0.000052456162047893286 0 0
          0.00017897023968289905 -0.00009244442681816123 0 0.000006220331222597897 0 0
          0.00018357910888815163 -0.00009437471831486022 0 -0.000028954435183577533 0 0
          0.00018738415693907162 -0.0000955546008884478 0 -0.00005059065498512918 0 0
          0.0001921671593622526 -0.00009766752752907171 0 -0.000058256132973859516 0 0
          0.00020017437123512338 -0.00010264841508034195 0 -0.000051955295285480224 0 0
          0.00016625711411775987 -0.0000877011541663142 0 0.00001914465096579187 0 0
          0.0001770600057149352 -0.00009359229196553853 0 -0.00001308359403095182 0 0
          0.0001869229139653261 -0.00009882855065226903 0 -0.000035812309521064055 0 0
          0.00019782096186012066 -0.00010507652722896442 0 -0.00004924298317044003 0 0
          0.00021156834721862414 -0.00011400441647479997 0 -0.00005354752336721333 0 0
          0.0001544513102041678 -0.00008226209509587523 0 0.0000334705756895278 0 0
          0.00016938669521426863 -0.00009099696792788659 0 0.0000034543800981524332 0 0
          0.0001832548901930381 -0.0000989787337583592 0 -0.00002100367571008707 0 0
          0.00019793653848206028 -0.00010779470645033706 0 -0.000039889610859769 0 0
          0.0002152790430028639 -0.00011898662045237152 0 -0.00005345523378511113 0 0
          0.00014386504112262608 -0.00007642155380496729 0 0.00004386545397490576 0 0
          0.00016066746509135754 -0.00008666544467247905 0 0.000017035743580546358 0 0
          0.00017668537481299595 -0.00009627099598469302 0 -0.000008142617512858114 0 0
          0.0001933220452737527 -0.00010651959753979477 0 -0.00003139440772310476 0 0
          0.00021209311025320585 -0.00011872787969402498 0 -0.000053123279989722365 0 0
          0.00013407229366602103 -0.00007043050321112188 0 0.00005432236080052271 0 0
          0.00015122146308960138 -0.00008101476108071658 0 0.000028960297730176722 0 0
          0.00016767453810311026 -0.00009113240768246489 0 0.0000027220374895450474 0 0
          0.00018460292608116213 -0.00010175212987215132 0 -0.000024325554564472365 0 0
          0.0002030497167183759 -0.00011381736291241062 0 -0.000052566774990440614 0 0
          0.00012467373457161757 -0.0000637531307510486 0 0.00006130777078986233 0 0
          0.0001408426124205886 -0.00007399318260628562 0 0.00003761182912040419 0 0
          0.00015651509571780464 -0.00008381699088569339 0 0.000010805555859571163 0 0
          0.00017243985009930685 -0.00009394260501638385 0 -0.000019004238142950644 0 0
          0.00018945848903353935 -0.00010510356824591782 0 -0.000052039897976223186 0 0
          0.00011558698838767811 -0.00005692854422356674 0 0.00006640773922072064 0 0
          0.0001298922278390735 -0.00006602567694569128 0 0.000043768485271000045 0 0
          0.00014368925296270874 -0.00007478425563658964 0 0.00001652595987648031 0 0
          0.00015763116276300282 -0.00008375941770608075 0 -0.000015336984627772365 0 0
          0.00017236278654905735 -0.00009349781035211667 0 -0.00005198288099262965 0 0
          0.00010638514580375845 -0.000049333354703640087 0 0.0000702273300705492 0 0
          0.00011788804572163136 -0.00005661671654264011 0 0.00004797883109073473 0 0
          0.0001291239383265641 -0.00006387544913824539 0 0.000019700725396667207 0 0
          0.000140522218364747 -0.00007141951463021656 0 -0.000014059166997272434 0 0
          0.00015239408405466615 -0.00007947919323128548 0 -0.000053568151406801816 0 0
          0.00009660815291956393 -0.000040513969472744105 0 0.00007378014974793336 0 0
          0.0001039369515861005 -0.00004494335205701416 0 0.000050594740495550955 0 0
          0.0001119348833863304 -0.00005003867559494335 0 0.000019612693435072216 0 0
          0.00012083639132987047 -0.00005637525650797892 0 -0.0000170838183610807 0 0
          0.00012980339432014376 -0.00006299364665340867 0 -0.00005821069376546603 0 0
          0.00008563625754035019 -0.00003050279961980262 0 0.00008089394654166997 0 0
          0.00008673075358664462 -0.00002978772095513227 0 0.00005578443010554812 0 0
          0.00009016335980299715 -0.000031749012683407456 0 0.00001719114076530926 0 0
          0.00009794244236151217 -0.00003770161972230234 0 -0.000026465828654328188 0 0
          0.00010703841893203168 -0.000045486503812808277 0 -0.00006669732089091764 0 0
          0.00007521458424405991 -0.000019030587263851872 0 0.00009305263642142389 0 0
          0.00006648142940800239 -0.000013523764279682604 0 0.000059973823531150205 0 0
          0.00006598309690780679 -0.000013910465173627706 0 0.00001318956552616939 0 0
          0.0000728337100600468 -0.000018302363307187708 0 -0.00003798309494892019 0 0
          0.00008728903613318406 -0.00002812762074988484 0 -0.00008318675646794602 0 0
          0.0000698873804633321 -0.000019530687080299147 0 0.00007096434672892023 0 0
          0.00006108117665179491 -0.000020694730086784352 0 0.0000350097312602961 0 0
          0.00006193031029899654 -0.000023934289378912954 0 0.000006736320079990089 0 0
          0.00006467674201672546 -0.00002468042688630323 0 -0.000024217639665365485 0 0
          0.00007695620910229406 -0.000026573973275462178 0 -0.0000686807041735503 0 0
          <InformationKey name="L2_NORM_RANGE" location="vtkDataArray" length="2">
            <Value index="0">
              6.6735234697e-05
            </Value>
            <Value index="1">
              0.00025171480732
            </Value>
          </InformationKey>
        </DataArray>
        <DataArray type="Float64" Name="Btraction" NumberOfComponents="3" format="ascii" RangeMin="0" RangeMax="66.34301933332793">
          5.489580331991198 46.24833947416298 0 0 0 0
          0 0 0 0 0 0
          8.129020202860595 -52.04624238316592 0 7.952527337280502 39.86909106706734 0
          0 0 0 0 0 0
          0 0 0 10.254714008119524 -45.45363894154233 0
          10.510186211246141 34.39497621221268 0 0 0 0
          0 0 0 0 0 0
          12.217464958028033 -39.99509825818312 0 12.811703315210687 30.82774399561062 0
          0 0 0 0 0 0
          0 0 0 13.934826375594902 -36.24452731324253 0
          14.873129505684588 28.94624909850197 0 0 0 0
          0 0 0 0 0 0