<?xml version="1.0"?>
<VTKFile type="UnstructuredGrid" version="0.1" byte_order="LittleEndian" header_type="UInt32" compressor="vtkZLibDataCompressor">
  <UnstructuredGrid>
    <Piece NumberOfPoints="90" NumberOfCells="70">
      <PointData>
        <DataArray type="Float64" Name="sld_BC" NumberOfComponents="3" format="ascii" RangeMin="0" RangeMax="0">
          0 0 0 0 0 0
          0 0 0 0 0 0
          0 0 0 0 0 0
          0 0 0 0 0 0
          0 0 0 0 0 0
          0 0 0 0 0 0
          0 0 0 0 0 0
          0 0 0 0 0 0
          0 0 0 0 0 0
          0 0 0 0 0 0
          0 0 0 0 0 0
          0 0 0 0 0 0
          0 0 0 0 0 0
          0 0 0 0 0 0
          0 0 0 0 0 0
          0 0 0 0 0 0
          0 0 0 0 0 0
          0 0 0 0 0 0
          0 0 0 0 0 0
          0 0 0 0 0 0
          0 0 0 0 0 0
          0 0 0 0 0 0
          0 0 0 0 0 0
          0 0 0 0 0 0
          0 0 0 0 0 0
          0 0 0 0 0 0
          0 0 0 0 0 0
          0 0 0 0 0 0
          0 0 0 0 0 0
          0 0 0 0 0 0
          0 0 0 0 0 0
          0 0 0 0 0 0
          0 0 0 0 0 0
          0 0 0 0 0 0
          0 0 0 0 0 0
          0 0 0 0 0 0
          0 0 0 0 0 0
          0 0 0 0 0 0
          0 0 0 0 0 0
          0 0 0 0 0 0
          0 0 0 0 0 0
          0 0 0 0 0 0
          0 0 0 0 0 0
          0 0 0 0 0 0
          0 0 0 0 0 0
          <InformationKey name="L2_NORM_RANGE" location="vtkDataArray" length="2">
            <Value index="0">
              0
            </Value>
            <Value index="1">
              0
            </Value>
          </InformationKey>
        </DataArray>
        <DataArray type="Float64" Name="sld_FIXNO" NumberOfComponents="3" format="ascii" RangeMin="1.4142135623730951" RangeMax="1.4142135623730951">
          -1 -1 0 -1 -1 0
          -1 -1 0 -1 -1 0
          -1 -1 0 -1 -1 0
          -1 -1 0 -1 -1 0
          -1 -1 0 -1 -1 0
          -1 -1 0 -1 -1 0
          -1 -1 0 -1 -1 0
          -1 -1 0 -1 -1 0
          -1 -1 0 -1 -1 0
          -1 -1 0 -1 -1 0
          -1 -1 0 -1 -1 0
          -1 -1 0 -1 -1 0
          -1 -1 0 -1 -1 0
          -1 -1 0 -1 -1 0
          -1 -1 0 -1 -1 0
          -1 -1 0 -1 -1 0
          -1 -1 0 -1 -1 0
          -1 -1 0 -1 -1 0
          -1 -1 0 -1 -1 0
          -1 -1 0 -1 -1 0
          -1 -1 0 -1 -1 0
          -1 -1 0 -1 -1 0
          -1 -1 0 -1 -1 0
          -1 -1 0 -1 -1 0
          -1 -1 0 -1 -1 0
          -1 -1 0 -1 -1 0
          -1 -1 0 -1 -1 0
          -1 -1 0 -1 -1 0
          -1 -1 0 -1 -1 0
          -1 -1 0 -1 -1 0
          -1 -1 0 -1 -1 0
          -1 -1 0 -1 -1 0
          -1 -1 0 -1 -1 0
          -1 -1 0 -1 -1 0
          -1 -1 0 -1 -1 0
          -1 -1 0 -1 -1 0
          -1 -1 0 -1 -1 0
          -1 -1 0 -1 -1 0
          -1 -1 0 -1 -1 0
          -1 -1 0 -1 -1 0
          -1 -1 0 -1 -1 0
          -1 -1 0 -1 -1 0
          -1 -1 0 -1 -1 0
          -1 -1 0 -1 -1 0
          -1 -1 0 -1 -1 0
          <InformationKey name="L2_NORM_RANGE" location="vtkDataArray" length="2">
            <Value index="0">
              1.4142135624
            </Value>
            <Value index="1">
              1.4142135624
            </Value>
          </InformationKey>
        </DataArray>
        <DataArray type="Float64" Name="Disp" NumberOfComponents="3" format="ascii" RangeMin="0.00004844010236907158" RangeMax="0.00011317376634586235">
          0.00010221809329611147 -0.00003557299148446101 0 0.00010275717364956733 -0.000034683012457620825 0
          0.00010336065254336647 -0.000033670979287368754 0 0.00010403489204294868 -0.00003253875419493547 0
          0.00010478527164594754 -0.00003128442060680338 0 0.00010561685996385319 -0.000029903103617302152 0
          0.00009981316023521162 -0.0000366089974303526 0 0.00010001532158011636 -0.00003566528603239843 0
          0.00010029159505594185 -0.00003459626665307364 0 0.00010063923617657385 -0.000033404272135168594 0
          0.00010105675388467883 -0.000032088178463855315 0 0.00010154298191615935 -0.00003064296354523854 0
          0.0000972555471818421 -0.00003703107908445793 0 0.00009712254499470268 -0.00003603060697402235 0
          0.00009706982815144616 -0.000034905354980332366 0 0.00009709132172492836 -0.00003365856895501624 0
          0.00009717701401253966 -0.00003228993719509465 0 0.00009731624270906742 -0.000030794176374576325 0
          0.0000945380357780914 -0.00003684776178749205 0 0.00009407328273067136 -0.00003578681768463781 0
          0.00009370078540233417 -0.00003460734990768814 0 0.00009340442320690785 -0.00003331084120495826 0
          0.00009316882445341357 -0.00003189601587291425 0 0.00009297282136711005 -0.000030360582390728512 0
          0.00009165698555457253 -0.00003603902601384951 0 0.00009088061605001898 -0.00003493913823013613 0
          0.0000902010391061685 -0.00003372503871893894 0 0.0000895965075221177 -0.00003239467865504243 0
          0.00008905000114772753 -0.00003094557945924084 0 0.00008854533178351021 -0.000029376739869715296 0
          0.00008862956042981838 -0.00003468121712949451 0 0.00008757023203306372 -0.00003355416518065763 0
          0.00008659897772363257 -0.0000323209996717186 0 0.00008569843930793993 -0.00003097754454578505 0
          0.00008485329565207904 -0.000029521580307167043 0 0.00008405364252911783 -0.000027952050841645976 0
          0.00008548158089862861 -0.00003282557589585725 0 0.00008416048133316765 -0.000031678888951672626 0
          0.00008291700149115692 -0.000030433456069883832 0 0.00008173783035226762 -0.00002908549596496974 0
          0.00008060951144254396 -0.00002763200101133178 0 0.00007951969544800185 -0.00002606898119905752 0
          0.00008223471897337614 -0.000030496044180419174 0 0.00008066577762051568 -0.000029335607188631937 0
          0.00007916779273055639 -0.000028081954728065236 0 0.0000777284949861823 -0.00002673335848506811 0
          0.00007633228198546295 -0.000025286597792542387 0 0.0000749630937034916 -0.000023736472942895788 0
          0.00007890337978637005 -0.000027709141916309547 0 0.00007709761345484313 -0.00002653887806909106 0
          0.00007536324937557148 -0.00002528315273920028 0 0.00007368253654466422 -0.000023939919258238085 0
          0.00007203745448864694 -0.000022505852485537005 0 0.0000704067084106826 -0.000020976834462657058 0
          0.00007549970126257874 -0.00002446447751260671 0 0.00007347695419913629 -0.000023304174669601217 0
          0.00007152302239875393 -0.000022063054134332923 0 0.00006961745404520849 -0.000020737924469643332 0
          0.00006774213054156596 -0.000019325821642434502 0 0.00006587637270424319 -0.00001782496586155717 0
          0.00007204150821405181 -0.00002083903729988113 0 0.00006982683438898386 -0.000019694445719549385 0
          0.0000676708295685787 -0.00001847755384108508 0 0.00006555750337467824 -0.000017184280494250446 0
          0.00006347060984916542 -0.000015812137711688522 0 0.0000613970510352558 -0.0000143605189617404 0
          0.00006855002865764985 -0.000016867348688340272 0 0.00006616206596115701 -0.000015745464240194402 0
          0.00006382524488892495 -0.00001455929055638469 0 0.0000615253115015775 -0.000013306453373364924 0
          0.000059247541062473454 -0.000011984340859072757 0 0.00005697942555720382 -0.000010589607092487389 0
          0.00006504012115014032 -0.000012571035985407497 0 0.00006249493785188867 -0.000011475273897691241 0
          0.00005999900780899101 -0.000010323615908595137 0 0.000057535678301297675 -0.000009115599190969245 0
          0.000055087152956620226 -0.000007848410320518772 0 0.00005263640511437087 -0.000006516258624086898 0
          0.00010534650698882773 -0.000033077520326175235 0 0.00010448171838936794 -0.00003390840049943262 0
          0.00010626882600339229 -0.00003212936871733487 0 0.00010726178473867965 -0.000031065135473752545 0
          0.00010833709495648751 -0.000029883381539798055 0 0.00010950575443032725 -0.00002857955800135311 0
          0.000058831005712722436 -0.0000069016176575089255 0 0.00006151503578468791 -0.000007971308456317097 0
          0.000056200353802768486 -0.000005785738740899356 0 0.000053600666567178774 -0.000004625859346798434 0
          0.000051006444669106366 -0.00000341970742435374 0 0.00004839193298356886 -0.0000021597082302742932 0
          <InformationKey name="L2_NORM_RANGE" location="vtkDataArray" length="2">
            <Value index="0">
              4.8440102369e-05
            </Value>
            <Value index="1">
              0.00011317376635
            </Value>
          </InformationKey>
        </DataArray>
        <DataArray type="Float64" Name="Sld_traction" NumberOfComponents="3" format="ascii" RangeMin="0" RangeMax="247.43582368171457">
          28.95805516241501 -1.8670312465107939 0 0 0 0
          0 0 0 0 0 0
          0 0 0 30.359144612071027 -99.64616211625639 0
          26.578781891838226 -1.402598460776819 0 0 0 0
          0 0 0 0 0 0
          0 0 0 29.0306512153559 -99.73376647598347 0
          25.04286852461937 0.43251898529809535 0 0 0 0
          0 0 0 0 0 0
          0 0 0 27.675530680748953 -99.86039651576003 0
          22.36175786924885 4.305582262477887 0 0 0 0
          0 0 0 0 0 0
          0 0 0 26.452570012204294 -98.11816647778186 0
          19.344206482200264 18.055737903621793 0 0 0 0
          0 0 0 0 0 0
          0 0 0 22.85341507069575 -97.51473935743657 0
          17.6221861041847 35.229239291996244 0 0 0 0
          0 0 0 0 0 0
          0 0 0 17.778901998472723 -109.02224793201479 0
          15.926002999068675 51.63119884967705 0 0 0 0
          0 0 0 0 0 0
          0 0 0 13.919046379198747 -123.12598759901115 0
          13.840727364267966 67.28695347511889 0 0 0 0
          0 0 0 0 0 0
          0 0 0 10.317646812540334 -136.3221426265693 0
          10.711243071039194 84.34968910452577 0 0 0 0
          0 0 0 0 0 0
          0 0 0 6.944032804252465 -148.38485321073674 0
          7.906381915413918 108.2545697805157 0 0 0 0
          0 0 0 0 0 0
          0 0 0 2.647697913725473 -160.40758348830659 0
          6.180831206044677 132.81964374828385 0 0 0 0
          0 0 0 0 0 0
          0 0 0 -1.604954915692445 -179.72929345338423 0
          4.044299085673977 156.89009150612358 0 0 0 0
          0 0 0 0 0 0
          0 0 0 -4.302098337236018 -202.86761748793288 0
          1.3231723599439604 180.95667808328062 0 0 0 0
          0 0 0 0 0 0
          0 0 0 -6.163891321211562 -225.76375735097704 0
          0 0 0 31.997312245644377 2.1010281137623217 0
          0 0 0 0 0 0
          0 0 0 31.144093645948242 -100.55312742514256 0
          0 0 0 -1.8951503003293722 205.4783066879415 0
          0 0 0 0 0 0
          0 0 0 -7.439955810123785 -247.32394525923272 0
          <InformationKey name="L2_NORM_RANGE" location="vtkDataArray" length="2">
            <Value index="0">
              0
            </Value>
            <Value index="1">
              247.43582368
            </Value>
          </InformationKey>
        </DataArray>
        <DataArray type="Float64" Name="Fld_traction" NumberOfComponents="3" format="ascii" RangeMin="0" RangeMax="225.7037550770922">
          32.5233663924852 44.49819614681898 0 0 0 0
          0 0 0 0 0 0
          0 0 0 35.73342256277051 -50.97592423738847 0
          31.37514862472769 46.12078517331503 0 0 0 0
          0 0 0 0 0 0
          0 0 0 33.32373323219328 -50.22004102993859 0
          30.226930856970164 47.7433741998111 0 0 0 0
          0 0 0 0 0 0
          0 0 0 30.44280391139309 -51.09043963051938 0
          29.078713089212638 49.365963226307166 0 0 0 0
          0 0 0 0 0 0
          0 0 0 27.561874590592915 -51.96083823110014 0
          26.777059889826674 60.33647296850914 0 0 0 0
          0 0 0 0 0 0
          0 0 0 24.68094526979272 -52.831236831680926 0
          24.12291922507866 74.16368781021781 0 0 0 0
          0 0 0 0 0 0
          0 0 0 20.32786442409146 -66.09993419174845 0
          21.46877856033062 87.99090265192656 0 0 0 0
          0 0 0 0 0 0
          0 0 0 15.740847191393705 -81.33881815804327 0
          18.814637895582607 101.81811749363524 0 0 0 0
          0 0 0 0 0 0
          0 0 0 11.15382995869599 -96.57770212433796 0
          16.154803242262155 116.29270768216713 0 0 0 0
          0 0 0 0 0 0
          0 0 0 6.566812725998273 -111.81658609063267 0
          13.433862880695552 137.7146825669384 0 0 0 0
          0 0 0 0 0 0
          0 0 0 1.9797954933005206 -127.05547005692749 0
          10.712922519128975 159.13665745170948 0 0 0 0
          0 0 0 0 0 0
          0 0 0 -1.3624628959451401 -149.7231324265041 0
          7.991982157562377 180.55863233648074 0 0 0 0
          0 0 0 0 0 0
          0 0 0 -4.27175025770075 -174.97478593234385 0
          5.271041795995798 201.9806072212518 0 0 0 0
          0 0 0 0 0 0
          0 0 0 -7.1810376194563394 -200.22643943818343 0
          0 0 0 34.77960933103644 46.42185641095079 0
          0 0 0 0 0 0
          0 0 0 37.56867092628707 -53.71437218917326 0
          0 0 0 2.5501014344291977 223.40258210602306 0
          0 0 0 0 0 0
          0 0 0 -10.09032498121195 -225.4780929440232 0
          <InformationKey name="L2_NORM_RANGE" location="vtkDataArray" length="2">
            <Value index="0">
              0
            </Value>
            <Value index="1">
              225.70375508
            </Value>
          </InformationKey>
        </DataArray>
        <DataArray type="Float64" Name="Velocity" NumberOfComponents="3" format="ascii" RangeMin="0.000011965759687120756" RangeMax="0.0008556693862387125">
          -0.0004592747417975205 -0.0006255683635397146 0 -0.0004588461930361532 -0.0006403859660157694 0
          -0.0004636608346461845 -0.000652235571376947 0 -0.00047385503699544796 -0.0006612921872702169 0
          -0.0004895792775871087 -0.0006675944499115844 0 -0.0005110271386885691 -0.0006710585502230389 0
          -0.0004101518881487105 -0.0005969187905480555 0 -0.0004177251088713259 -0.0006129028009309714 0
          -0.00043003786634822436 -0.0006259612601859372 0 -0.00044751449549244524 -0.0006362662344531314 0
          -0.0004705460948111 -0.0006438720789999621 0 -0.0004995367985793325 -0.0006487320099655147 0
          -0.0003597837621379953 -0.0005541843702645685 0 -0.00037490421175273873 -0.0005711697850502586 0
          -0.00039437493113492726 -0.0005854280149748213 0 -0.0004188182220685559 -0.0005970919255852717 0
          -0.0004488190162272071 -0.0006062077225100768 0 -0.00048494335918570835 -0.0006127441979400764 0
          -0.00030863501277653875 -0.0004983167982248753 0 -0.00033062005153933335 -0.0005161943621503532 0
          -0.00035664093507368697 -0.0005315942658357186 0 -0.00038747167723026223 -0.0005446523109933566 0
          -0.0004238906000624378 -0.0005554164910368902 0 -0.00046661679155455714 -0.0005638170575732124 0
          -0.00025715398826662043 -0.00043093737961189286 0 -0.00028518151720825086 -0.00044942634103841794 0
          -0.000316930799337296 -0.0004657844149258579 0 -0.00035332032398204937 -0.00048015215805877773 0
          -0.00039530538203853697 -0.0004926015189866673 0 -0.000443929063556892 -0.0005031081678876224 0
          -0.00020583191448718483 -0.00035344975066184473 0 -0.00023892637460287496 -0.0003723870625218942 0
          -0.00027543578970181813 -0.00038955514905775695 0 -0.0003164180660529931 -0.00040506361146814787 0
          -0.00036294045617100133 -0.00041898438808403047 0 -0.00041618182825411965 -0.00043137243518819393 0
          -0.00015501294607888488 -0.00026788890086098974 0 -0.00019200155411683252 -0.00028723282365549933 0
          -0.00023224099152287713 -0.0003052043780435935 0 -0.00027683182287316106 -0.0003218471841629322 0
          -0.00032682437441299613 -0.000337227203439144 0 -0.00038329124789935514 -0.0003514892342439491 0
          -0.00010474390283998769 -0.0001766889915145245 0 -0.00014431578394431344 -0.00019649866983925386 0
          -0.00018722758371690564 -0.00021536514612725452 0 -0.00023450979643983025 -0.00023318461130977162 0
          -0.00028698343771018926 -0.0002500104037362242 0 -0.00034546742171231927 -0.00026605073817388854 0
          -0.00005470814238133577 -0.0000824519611465664 0 -0.00009556638933179364 -0.00010290209441732399 0
          -0.00014033112334109216 -0.00012257909990395142 0 -0.00018949741581653426 -0.00014144817162336528 0
          -0.0002436651310760811 -0.00015960038693833367 0 -0.0003032976277443193 -0.0001771919623741081 0
          -0.000004442029925273098 0.000011110705424629999 0 -0.0000462042292634318 -0.000008976978214838617 0
          -0.00009201234755390822 -0.000028661282666165406 0 -0.00014216755478519165 -0.00004803749240829373 0
          -0.00019719324422201156 -0.00006719460568563036 0 -0.00025758270535385097 -0.0000861816087210375 0
          0.00004564304685191335 0.00010588173580654281 0 0.0000031456551319250254 0.00008620657777034195 0
          -0.000042934502795640306 0.00006675587871261704 0 -0.00009317705790738446 0.000047316228391254035 0
          -0.00014820854791829617 0.00002778676675006212 0 -0.00020881944833858355 0.000008161981482474414 0
          0.00009488511549241821 0.0002010642493823507 0 0.00005228278558543076 0.0001820109044460552 0
          0.000006578872466152415 0.00016290968680784577 0 -0.000043000871637886504 0.0001435771989886059 0
          -0.00009724743537141878 0.00012388868146898221 0 -0.00015703868614224022 0.00010375134784318494 0
          0.00014271237530146495 0.0002950547787599227 0 0.00010093454143063276 0.00027673619178058493 0
          0.00005640673530415909 0.0002580328394893063 0 0.000008276450016922801 0.00023880680429261015 0
          -0.00004428618089485892 0.00021892487227049033 0 -0.00010213563554869153 0.00019822789498903577 0
          -0.0004981486865145686 -0.0006529032661186603 0 -0.0005066501177858149 -0.0006391735425999424 0
          -0.0004953956521314561 -0.0006636861876111301 0 -0.0004982235809646053 -0.0006716816413941957 0
          -0.0005065367416049408 -0.0006769285598112764 0 -0.0005202522329376125 -0.0006793435895550669 0
          0.00014898268762359313 0.0003683070959089712 0 0.0001888545847930842 0.00038586186519517764 0
          0.0001065502009056083 0.0003499759987178643 0 0.000060699828609630125 0.0003308239603190238 0
          0.000010697689350119789 0.00031074691782895957 0 -0.00004416975008408354 0.0002895420316015602 0
          <InformationKey name="L2_NORM_RANGE" location="vtkDataArray" length="2">
            <Value index="0">
              1.1965759687e-05
            </Value>
            <Value index="1">
              0.00085566938624
            </Value>
          </InformationKey>
        </DataArray>
      </PointData>
      <CellData>
        <DataArray type="UInt8" Name="vtkGhostType" format="ascii" RangeMin="0" RangeMax="1">
          1 1 1 1 1 0
          0 0 0 0 0 0
          0 0 0 0 0 0
          0 0 0 0 0 0
          0 0 0 0 0 0
          0 0 0 0 0 0
          0 0 0 0 0 0
          0 0 0 0 0 0
          0 0 0 0 0 0
          0 0 0 0 0 0
          0 0 0 0 0 0
          0 0 0 0
        </DataArray>
        <DataArray type="Float64" Name="Gauss Stress" NumberOfComponents="6" format="ascii" RangeMin="609.0240723925383" RangeMax="1151.3396895221972">
          606.6093957974375 45.912560193381985 0 28.764535462068622 0 0
          684.4509127976607 47.93757405523301 0 16.773938456584023 0 0
          761.5573497225774 50.10707327905143 0 3.250481274635857 0 0
          839.1201208620611 51.880097191998445 0 -11.64989009542053 0 0
          918.2403964530473 52.72614944870138 0 -27.891470200716974 0 0
          995.3305728938027 212.71969052518267 0 -0.10802008133856322 0 0
          1028.1999613814637 213.356239205206 0 -4.326396707197721 0 0
          1060.9755442453456 214.28780618118614 0 -5.318011967178232 0 0
          1094.830561695824 214.87736589607056 0 -2.705659450545631 0 0
          979.6047809354968 191.317006059783 0 3.0133061618243406 0 0
          1017.0834553067938 191.2550938646741 0 -1.1095055431860854 0 0
          1055.1758703364546 191.00963005015524 0 -2.635543032859779 0 0
          1094.4031691801017 190.38868411537308 0 -1.4033563097416084 0 0
          1135.4576238985883 189.08062014636818 0 2.3058511934931523 0 0
          962.8363970583813 169.92059373245698 0 5.371191199383349 0 0
          1004.2820929646449 169.08598356204675 0 0.4027603373148865 0 0
          1046.9615490331937 167.72729720931807 0 -2.044975978824295 0 0
          1090.5176863494873 165.88890295000311 0 -1.8702366043404046 0 0
          1134.7853013609542 163.69993111310072 0 0.48986311830637286 0 0
          942.8724073149984 148.56410368379684 0 6.975156188011606 0 0
          988.7060369049047 147.21184709328787 0 0.4220463349896568 0 0
          1036.106173070372 145.3871335448636 0 -3.2795825104388534 0 0
          1084.174626953509 142.87064862065608 0 -4.27421312361629 0 0
          1131.658611820344 139.46597884195126 0 -2.5396633601091665 0 0
          918.3964632178727 126.85556617859973 0 8.355051758840693 0 0
          970.0282333476391 126.62729930163573 0 0.458980801887483 0 0
          1022.0358525669062 125.55718016426391 0 -4.760376750498045 0 0
          1074.7535999864883 123.64916582399059 0 -7.4601142359236166 0 0
          1128.1692580806293 120.9765521644663 0 -7.179787286869345 0 0
          891.5759292475312 108.9030155446925 0 11.916079257916504 0 0
          947.9423396445636 109.24979928087 0 2.587885381449784 0 0
          1004.3458525445518 108.83333977700605 0 -4.3235568954439305 0 0
          1061.7810603759076 107.73944356494812 0 -8.60860736479636 0 0
          1121.1892466381987 106.01802054621149 0 -9.999688932850148 0 0
          863.6249335144671 95.14331280586444 0 14.086868847316463 0 0
          922.8983193509124 94.66048872428651 0 4.012579112249876 0 0
          983.4167800798306 93.85833122491651 0 -3.996290019077162 0 0
          1045.2364822879758 92.62454419737118 0 -9.657060619272883 0 0
          1108.8673412811363 90.68208890187078 0 -13.061261255440893 0 0
          832.6099156808705 81.39060529242033 0 15.805872301669169 0 0
          895.4216702254708 80.5794485195909 0 4.309736917471908 0 0
          959.8434658117804 79.18213689160335 0 -4.731190666222023 0 0
          1025.294752258006 77.38065045766673 0 -11.449135830562888 0 0
          1091.9438482774412 75.32506958917143 0 -16.38435609903292 0 0
          797.2576864303961 67.5478519321029 0 16.977518454768 0 0
          864.8870367943762 66.72610891443064 0 3.7748261610463283 0 0
          933.7444523743228 65.42452445865318 0 -6.48320378389587 0 0
          1002.910774667149 63.34870005644471 0 -14.285820615449088 0 0
          1071.3409014725592 60.352280799707884 0 -20.01619013172938 0 0
          757.3166415309743 54.67582299949502 0 18.533214884075797 0 0
          831.2604577557516 55.478041628912614 0 4.097278195730286 0 0
          904.3226230505783 55.57319255144641 0 -7.790851652368719 0 0
          977.2595627098534 54.80151232056126 0 -17.642243915652852 0 0
          1049.4755135741102 52.86218194055066 0 -25.14396547351069 0 0
          716.5740442582545 48.21839808472358 0 22.130528321500243 0 0
          794.8971112169261 49.737958142424546 0 7.264061221111186 0 0
          871.4284624803939 51.046903138419246 0 -5.832181045151096 0 0
          947.8795641687166 51.97035242017881 0 -17.056422056481804 0 0
          1026.141581569146 52.52155549109188 0 -25.933958850660986 0 0
          678.3019159764475 47.13272954305625 0 23.72665020900536 0 0
          757.631919448096 47.90929624231287 0 10.057121775896174 0 0
          836.4238337652722 49.48815911002208 0 -2.9906798767352543 0 0
          915.4553138430814 50.92630212209372 0 -15.187711527016907 0 0
          996.3564150700404 51.462275618848864 0 -26.49401173980693 0 0
          641.1092654316847 45.374972055439216 0 25.579851344215886 0 0
          721.1202736127525 47.17277691817299 0 12.987045998941717 0 0
          799.9688928573783 49.068371065594555 0 -0.04631121379589054 0 0
          879.2586712957628 50.623133274526595 0 -13.492006800302445 0 0
          960.0741438649704 51.13136093374846 0 -27.327770379188028 0 0
          1131.203608689127 214.35878235348653 0 3.4334801144717257 0 0
          <InformationKey name="L2_NORM_RANGE" location="vtkDataArray" length="2">
            <Value index="0">
              609.02407239
            </Value>
            <Value index="1">
              1151.3396895
            </Value>
          </InformationKey>
        </DataArray>
        <DataArray type="Float64" Name="Gauss Strain" NumberOfComponents="6" format="ascii" RangeMin="0.0004110350230909246" RangeMax="0.0007398774521190104">
          0.0003454718744193424 -0.0002151516407493392 0 0.00005752169743158062 0 0
          0.0003913310774514012 -0.00024508889621210894 0 0.00003354310454335812 0 0
          0.00043668702223126354 -0.0002746476434554168 0 0.000006500057030271715 0 0
          0.0004824699351987649 -0.0003046296902267098 0 -0.000023295466594790613 0 0
          0.0005295513892813464 -0.0003357946721165017 0 -0.000055771930869593334 0 0
          0.0005118438559219425 -0.0002705779404375275 0 -2.1601298181611762e-7 0 0
          0.0005312894423143838 -0.00028335195504294863 0 -0.000008650678473715856 0 0
          0.0005505601588354087 -0.0002959116486152824 0 -0.000010633356984366096 0 0
          0.0005706135810558676 -0.0003091091459670181 0 -0.000005409963100035208 0 0
          0.0005109682889023609 -0.00027713487481687005 0 0.000006025172851722919 0 0
          0.0005334553221438554 -0.0002921734637393314 0 -0.0000022185128497268364 0 0
          0.0005563823581823668 -0.00030756850826921256 0 -0.000005269823140362475 0 0
          0.000580138314049794 -0.0003236438934205166 0 -0.000002806056304813004 0 0
          0.0006052623185848205 -0.0003408640049532563 0 0.000004610402105906856 0 0
          0.0005094653714081271 -0.0002832707812938928 0 0.000010739921956570532 0 0
          0.0005346385861245556 -0.00030036151435897107 0 8.052933096332985e-7 0 0
          0.0005607590731252915 -0.0003182615764296681 0 -0.000004089010679056016 0 0
          0.0005875950092265325 -0.00033680143946177016 0 -0.0000037395994503760725 0 0
          0.0006149956964231762 -0.0003558375041584072 0 9.79395475801345e-7 0 0
          0.0005060312573996055 -0.0002881036328875597 0 0.000013947246953353045 0 0
          0.0005340411384354844 -0.0003072618540393701 0 8.438671107581961e-7 0 0
          0.0005631767112874858 -0.00032733183570843316 0 -0.000006557661192723692 0 0
          0.0005929871885042431 -0.0003480857787931668 0 -0.000008546387320291307 0 0
          0.0006228002250635578 -0.00036914017958863954 0 -0.000005078106431343274 0 0
          0.0005000335375408282 -0.00029134184434034816 0 0.000016706596038587754 0 0
          0.0005310696850483605 -0.0003121462284056409 0 9.17738121348606e-7 0 0
          0.0005626651051061499 -0.0003336077782662706 0 -0.000009518597030393511 0 0
          0.0005950185009190173 -0.00035585794922524117 0 -0.000014916688350167606 0 0
          0.0006280931653780825 -0.0003788479023740521 0 -0.000014356033961584123 0 0
          0.0004911300119092576 -0.0002913862334782136 0 0.000023827406854551233 0 0
          0.0005247746414476089 -0.0003137405167511764 0 0.0000051746799789482455 0 0
          0.0005587437143048657 -0.000336569381092805 0 -0.00000864519816621355 0 0
          0.0005935989979339862 -0.000360219426888686 0 -0.000017213210617283968 0 0
          0.0006298844351127486 -0.0003850375929079497 0 -0.00001999450893700217 0 0
          0.00047987378669402114 -0.0002884604062464713 0 0.000028168359962834888 0 0
          0.0005155928750050082 -0.00031247633355013793 0 0.000008023539779589852 0 0
          0.0005521826673297869 -0.00033718406131505446 0 -0.000007990857420231028 0 0
          0.0005897215776731884 -0.0003626735182328811 0 -0.000019309739762736458 0 0
          0.00062862562516805 -0.0003893153057924481 0 -0.000026116282505928924 0 0
          0.00046677799362755673 -0.0002843039124953428 0 0.000031606002725492014 0 0
          0.0005047499613321238 -0.0003099331203133271 0 0.00000861781471489892 0 0
          0.0005439175249229294 -0.00033656072016940985 0 -0.000009460406989885262 0 0
          0.0005838599457333865 -0.0003638450391773851 0 -0.000022893228303550292 0 0
          0.0006246180169152682 -0.0003917633693699963 0 -0.00003276107800434725 0 0
          0.00045111809043603396 -0.00027846543145967906 0 0.00003394921837528158 0 0
          0.000491983056594536 -0.0003060290538247079 0 0.000007548284321897238 0 0
          0.0005337716783409691 -0.0003343746344538212 0 -0.000012963790543786027 0 0
          0.0005760506657864206 -0.000363310961019353 0 -0.00002856553620869057 0 0
          0.0006182522202243246 -0.0003925075105379317 0 -0.00004002332133200017 0 0
          0.0004323191370620704 -0.00027020744491274007 0 0.000037060495343782106 0 0
          0.00047632178655475366 -0.00029932293026477264 0 0.000008193176801222047 0 0
          0.0005200738238325814 -0.00032851255870300355 0 -0.000015578640936493196 0 0
          0.000564092622002979 -0.0003581749275633761 0 -0.000035277133651409704 0 0
          0.0006081414111867993 -0.00038825212437748613 0 -0.00005027677706684517 0 0
          0.0004104757833127137 -0.00025777748906155584 0 0.000044254426474345605 0 0
          0.0004568189887176055 -0.0002882141623261336 0 0.000014525788452166424 0 0
          0.00050216729061342 -0.00031806279868079596 0 -0.000011662101718385416 0 0
          0.0005476166747587635 -0.00034811327652556345 0 -0.00003410592243568901 0 0
          0.0005942952221585084 -0.00037911465519532833 0 -0.000051856640381299054 0 0
          0.00038796603149930664 -0.0002431114275235624 0 0.00004744654831189141 0 0
          0.00043521197864987426 -0.0002743961644524062 0 0.00002011113140386489 0 0