<?xml version="1.0"?>
<VTKFile type="UnstructuredGrid" version="0.1" byte_order="LittleEndian" header_type="UInt32" compressor="vtkZLibDataCompressor">
  <UnstructuredGrid>
    <Piece NumberOfPoints="87" NumberOfCells="67">
      <PointData>
        <DataArray type="Float64" Name="sld_BC" NumberOfComponents="3" format="ascii" RangeMin="0" RangeMax="0">
          0 0 0 0 0 0
          0 0 0 0 0 0
          0 0 0 0 0 0
          0 0 0 0 0 0
          0 0 0 0 0 0
          0 0 0 0 0 0
          0 0 0 0 0 0
          0 0 0 0 0 0
          0 0 0 0 0 0
          0 0 0 0 0 0
          0 0 0 0 0 0
          0 0 0 0 0 0
          0 0 0 0 0 0
          0 0 0 0 0 0
          0 0 0 0 0 0
          0 0 0 0 0 0
          0 0 0 0 0 0
          0 0 0 0 0 0
          0 0 0 0 0 0
          0 0 0 0 0 0
          0 0 0 0 0 0
          0 0 0 0 0 0
          0 0 0 0 0 0
          0 0 0 0 0 0
          0 0 0 0 0 0
          0 0 0 0 0 0
          0 0 0 0 0 0
          0 0 0 0 0 0
          0 0 0 0 0 0
          0 0 0 0 0 0
          0 0 0 0 0 0
          0 0 0 0 0 0
          0 0 0 0 0 0
          0 0 0 0 0 0
          0 0 0 0 0 0
          0 0 0 0 0 0
          0 0 0 0 0 0
          0 0 0 0 0 0
          0 0 0 0 0 0
          0 0 0 0 0 0
          0 0 0 0 0 0
          0 0 0 0 0 0
          0 0 0 0 0 0
          0 0 0
          <InformationKey name="L2_NORM_RANGE" location="vtkDataArray" length="2">
            <Value index="0">
              0
            </Value>
            <Value index="1">
              0
            </Value>
          </InformationKey>
        </DataArray>
        <DataArray type="Float64" Name="sld_FIXNO" NumberOfComponents="3" format="ascii" RangeMin="1.4142135623730951" RangeMax="1.4142135623730951">
          -1 -1 0 -1 -1 0
          -1 -1 0 -1 -1 0
          -1 -1 0 -1 -1 0
          -1 -1 0 -1 -1 0
          -1 -1 0 -1 -1 0
          -1 -1 0 -1 -1 0
          -1 -1 0 -1 -1 0
          -1 -1 0 -1 -1 0
          -1 -1 0 -1 -1 0
          -1 -1 0 -1 -1 0
          -1 -1 0 -1 -1 0
          -1 -1 0 -1 -1 0
          -1 -1 0 -1 -1 0
          -1 -1 0 -1 -1 0
          -1 -1 0 -1 -1 0
          -1 -1 0 -1 -1 0
          -1 -1 0 -1 -1 0
          -1 -1 0 -1 -1 0
          -1 -1 0 -1 -1 0
          -1 -1 0 -1 -1 0
          -1 -1 0 -1 -1 0
          -1 -1 0 -1 -1 0
          -1 -1 0 -1 -1 0
          -1 -1 0 -1 -1 0
          -1 -1 0 -1 -1 0
          -1 -1 0 -1 -1 0
          -1 -1 0 -1 -1 0
          -1 -1 0 -1 -1 0
          -1 -1 0 -1 -1 0
          -1 -1 0 -1 -1 0
          -1 -1 0 -1 -1 0
          -1 -1 0 -1 -1 0
          -1 -1 0 -1 -1 0
          -1 -1 0 -1 -1 0
          -1 -1 0 -1 -1 0
          -1 -1 0 -1 -1 0
          -1 -1 0 -1 -1 0
          -1 -1 0 -1 -1 0
          -1 -1 0 -1 -1 0
          -1 -1 0 -1 -1 0
          -1 -1 0 -1 -1 0
          -1 -1 0 -1 -1 0
          -1 -1 0 -1 -1 0
          -1 -1 0
          <InformationKey name="L2_NORM_RANGE" location="vtkDataArray" length="2">
            <Value index="0">
              1.4142135624
            </Value>
            <Value index="1">
              1.4142135624
            </Value>
          </InformationKey>
        </DataArray>
        <DataArray type="Float64" Name="Disp" NumberOfComponents="3" format="ascii" RangeMin="0.00003982670739635543" RangeMax="0.00007568476533295321">
          -0.0000025757125639307796 0.00004641920577080614 0 -0.00000605328179139373 0.00004648875461671506 0
          -0.000009494355356805438 0.00004643548540661384 0 -0.000012928682370873896 0.000046263378113823205 0
          -0.00001638722491129586 0.000045975605403260014 0 -0.000019900580598436654 0.00004557493157302134 0
          -0.000004122929082357071 0.00005247517340842899 0 -0.00000725612075651049 0.00005249156134986912 0
          -0.000010359074160776507 0.000052370779156400486 0 -0.000013460990117696419 0.000052115068652125554 0
          -0.00001659313280805074 0.00005172744776126568 0 -0.000019786656782252987 0.0000512115822295224 0
          -0.000005636211506252901 0.00005793265325453569 0 -0.000008391595664090404 0.00005789096809904043 0
          -0.000011118096725189426 0.000057696935805324166 0 -0.000013848644592531653 0.00005735334610789613 0
          -0.000016615026718548017 0.0000568631782929965 0 -0.00001945062246137711 0.00005622937039916597 0
          -0.000007107550494974412 0.0000627421423632556 0 -0.000009444635872301453 0.00006262804304845346 0
          -0.000011759407394661873 0.00006234930813825938 0 -0.000014083974013687104 0.00006191034867414535 0
          -0.00001644805967235626 0.00006131379764938783 0 -0.000018883541863395596 0.000060560119285135544 0
          -0.000008520574019822368 0.00006680455559029589 0 -0.000010399313592998935 0.00006661300959707552 0
          -0.000012269812332725463 0.00006624376451966544 0 -0.000014157102181470859 0.00006570268103432994 0
          -0.000016085663996787718 0.00006499202622280248 0 -0.00001807798547787957 0.00006411014203206555 0
          -0.000009853328433795445 0.0000700573001138328 0 -0.000011242910777162095 0.00006978095827566738 0
          -0.000012639446366646735 0.00006931655457190515 0 -0.000014061413794217912 0.00006867018379359332 0
          -0.000015525790264558732 0.00006784473523048253 0 -0.00001704816608940989 0.00006683940903271672 0
          -0.000011083477910072595 0.00007245486151064771 0 -0.000011960362517889126 0.00007208696560719093 0
          -0.000012860056948381199 0.00007152308075740365 0 -0.000013795552012188888 0.00007077014434265601 0
          -0.000014776843884312004 0.0000698316996636873 0 -0.000015811429847272256 0.00006870801433811253 0
          -0.000012190418766348163 0.00007396086581013403 0 -0.000012538653276469356 0.00007349655998757221 0
          -0.000012927606025487798 0.00007283439119646654 0 -0.000013361073604638124 0.0000719779099210642 0
          -0.000013846321419576175 0.00007092940541561067 0 -0.000014386250187128804 0.00006969189180262528 0
          -0.000013159233012602203 0.00007453199507610296 0 -0.000012981490384046929 0.00007398525579751403 0
          -0.000012849627570458855 0.00007323772509932095 0 -0.00001276832970497221 0.00007229061897981345 0
          -0.000012744076468566954 0.00007114526968376192 0 -0.00001278750685940102 0.00006980332766837672 0
          -0.000014002707431307174 0.00007418989935454761 0 -0.000013295952990579934 0.00007356228046987494 0
          -0.00001263893071564527 0.00007273413884220791 0 -0.000012039020967744 0.0000717099694012041 0
          -0.000011499148066179566 0.00007049193131769397 0 -0.000011027595770334221 0.0000690777932176075 0
          -0.000014722475835689867 0.00007290870246458596 0 -0.00001347685287647131 0.00007219584011317278 0
          -0.000012300715026879168 0.00007128752082386149 0 -0.000011189869978071232 0.00007019079388177276 0
          -0.000010138602996967828 0.00006890577753715332 0 -0.000009138550237391264 0.00006742708502759883 0
          -0.00001529718245092588 0.00007063279580774179 0 -0.000013523083250507 0.000069842467395536 0
          -0.000011843332560070602 0.00006886729285402582 0 -0.00001023474963565073 0.00006771108938957452 0
          -0.00000867964249228115 0.00006637113108034424 0 -0.00000716252361135072 0.00006483977545526098 0
          -0.000015710424982875904 0.00006737037917807917 0 -0.000013446135344512483 0.00006651803282614494 0
          -0.000004790533069556856 0.00003993373767483879 0 -0.0000010027494316662558 0.000039814081875791203 0
          -0.000008530780612069365 0.00003994572479016771 0 -0.00001225656519462735 0.00003985548024810812 0
          -0.00001600129514795846 0.00003966640648407249 0 -0.000013245662027499542 0.00006228979937504452 0
          -0.000015961373174037768 0.00006321074646465886 0 -0.000010650226694165008 0.00006121685978727818 0
          -0.000011287923942335376 0.00006549365164234518 0 -0.000009204828734999544 0.00006430054093210052 0
          -0.0000071663587337988484 0.00006293675777371173 0 -0.000005146903181971052 0.0000613929996750208 0
          -0.000019797534475793532 0.00003938016759753153 0
          <InformationKey name="L2_NORM_RANGE" location="vtkDataArray" length="2">
            <Value index="0">
              3.9826707396e-05
            </Value>
            <Value index="1">
              7.5684765333e-05
            </Value>
          </InformationKey>
        </DataArray>
        <DataArray type="Float64" Name="Sld_traction" NumberOfComponents="3" format="ascii" RangeMin="0" RangeMax="737.3301058974934">
          -16.429205068778916 394.50627210058684 0 0 0 0
          0 0 0 0 0 0
          0 0 0 -17.276562918863096 -300.864928570477 0
          -18.615004005677775 425.74667838694955 0 0 0 0
          0 0 0 0 0 0
          0 0 0 -19.162467003321268 -324.6220466490454 0
          -21.629095472065284 459.31653268780343 0 0 0 0
          0 0 0 0 0 0
          0 0 0 -20.814617037059936 -348.08345225583906 0
          -24.265524160449168 497.83635151567046 0 0 0 0
          0 0 0 0 0 0
          0 0 0 -23.02342187181821 -371.5700139055217 0
          -25.980754829540974 536.1501348771652 0 0 0 0
          0 0 0 0 0 0
          0 0 0 -24.971412283979518 -399.86042198370563 0
          -27.750126612508094 573.3527580084916 0 0 0 0
          0 0 0 0 0 0
          0 0 0 -26.266347821186553 -430.7192364262492 0
          -29.54893191400618 609.4089737648416 0 0 0 0
          0 0 0 0 0 0
          0 0 0 -27.65095326406541 -463.0394846710343 0
          -30.2827174720061 642.0090620098293 0 0 0 0
          0 0 0 0 0 0
          0 0 0 -28.471759649803225 -496.1077346210888 0
          -30.42225295394745 667.8172188192174 0 0 0 0
          0 0 0 0 0 0
          0 0 0 -26.909299700276662 -523.8442391084693 0
          -30.815633504269293 693.7868060306803 0 0 0 0
          0 0 0 0 0 0
          0 0 0 -25.3636099320536 -539.7475074854434 0
          -28.98139621742083 718.0544778002513 0 0 0 0
          0 0 0 0 0 0
          0 0 0 -26.089162503295736 -556.9737071638106 0
          -23.998982456945665 731.7682677713731 0 0 0 0
          0 0 0 0 0 0
          0 0 0 -25.451676057255277 -575.0994848751592 0
          -18.261040402273046 735.2304390863263 0 0 0 0
          0 0 0 -14.700637333601911 362.9809411608352 0
          0 0 0 0 0 0
          0 0 0 0 0 0
          -12.060079226482632 737.2314694530204 0 0 0 0
          0 0 0 0 0 0
          0 0 0 -23.955845639988425 -584.6227763587 0
          -15.042834604620205 -277.16923872832103 0
          <InformationKey name="L2_NORM_RANGE" location="vtkDataArray" length="2">
            <Value index="0">
              0
            </Value>
            <Value index="1">
              737.3301059
            </Value>
          </InformationKey>
        </DataArray>
        <DataArray type="Float64" Name="Fld_traction" NumberOfComponents="3" format="ascii" RangeMin="0" RangeMax="679.221882633876">
          -12.591775725774472 347.67944097290194 0 0 0 0
          0 0 0 0 0 0
          0 0 0 -22.407884325614337 -342.696953302575 0
          -15.226020064538115 373.8401185316994 0 0 0 0
          0 0 0 0 0 0
          0 0 0 -24.75317981179948 -372.00862763598985 0
          -17.96954726110391 401.82733386764 0 0 0 0
          0 0 0 0 0 0
          0 0 0 -27.09847529798462 -401.3203019694046 0
          -21.027254379766394 435.06570668674624 0 0 0 0
          0 0 0 0 0 0
          0 0 0 -29.443770784169782 -430.6319763028196 0
          -24.08496149842886 468.3040795058521 0 0 0 0
          0 0 0 0 0 0
          0 0 0 -30.1683616595374 -464.3424574032452 0
          -27.142668617091346 501.5424523249583 0 0 0 0
          0 0 0 0 0 0
          0 0 0 -30.74193107065618 -498.4628307409532 0
          -30.200375735753806 534.7808251440641 0 0 0 0
          0 0 0 0 0 0
          0 0 0 -31.315500481774954 -532.5832040786611 0
          -32.87150812740473 566.9530468531453 0 0 0 0
          0 0 0 0 0 0
          0 0 0 -31.889069892893733 -566.7035774163692 0
          -33.10994254861606 592.4160259234493 0 0 0 0
          0 0 0 0 0 0
          0 0 0 -31.947630583678574 -596.8498190987751 0
          -33.348376969827385 617.8790049937531 0 0 0 0
          0 0 0 0 0 0
          0 0 0 -30.320941828726113 -613.9916146330809 0
          -33.586811391038715 643.3419840640571 0 0 0 0
          0 0 0 0 0 0
          0 0 0 -28.694253073773638 -631.1334101673867 0
          -31.505081107372767 661.2922893403745 0 0 0 0
          0 0 0 0 0 0
          0 0 0 -27.067541147276845 -648.2754498798575 0
          -26.595099400436155 670.0839598585242 0 0 0 0
          0 0 0 -9.957531387010809 321.51876341410417 0
          0 0 0 0 0 0
          0 0 0 0 0 0
          -21.685117693499574 678.8756303766736 0 0 0 0
          0 0 0 0 0 0
          0 0 0 -23.903820679883896 -654.305112066389 0
          -20.062588839429175 -313.38527896916 0
          <InformationKey name="L2_NORM_RANGE" location="vtkDataArray" length="2">
            <Value index="0">
              0
            </Value>
            <Value index="1">
              679.22188263
            </Value>
          </InformationKey>
        </DataArray>
        <DataArray type="Float64" Name="Velocity" NumberOfComponents="3" format="ascii" RangeMin="0.001525897621953425" RangeMax="0.0033157645747382337">
          -0.0027524845187378317 0.0017897587038897518 0 -0.0027443541877882394 0.0017673077950599884 0
          -0.002734338567288566 0.0017388729671826638 0 -0.002721873786131737 0.0017047455381058417 0
          -0.002706444472566209 0.0016650655952755906 0 -0.0026875307931961373 0.001619843560530265 0
          -0.0027169074750440507 0.0017515869036272094 0 -0.0026934957365219903 0.0017272170549297889 0
          -0.002668829995915759 0.0016971836120746897 0 -0.0026420586615330545 0.001661715523020157 0
          -0.002612435714189125 0.0016209362959659981 0 -0.0025792262436053204 0.0015748719850637695 0
          -0.00267693714040309 0.0016879782405279436 0 -0.0026393407186362135 0.0016613067959840785 0
          -0.0026009719818851362 0.001629355432915177 0 -0.0025608692472236455 0.0015924531097002781 0
          -0.0025179290412647285 0.0015507381781396192 0 -0.0024712414995249443 0.0015041038306672972 0
          -0.002631566655564144 0.001601868845832523 0 -0.0025808073023506246 0.0015718467342854764 0
          -0.0025302354810445207 0.0015372541432542948 0 -0.0024784051572152915 0.001498536300478291 0
          -0.0024237267191076564 0.0014558761107540507 0 -0.0023645237246824654 0.0014091439259763217 0
          -0.0025789200574636096 0.0014942683306009437 0 -0.0025166914047654552 0.0014604028633041343 0
          -0.0024558540214080268 0.0014227311653987832 0 -0.002394306627842801 0.0013816725737908154 0
          -0.0023299418715152375 0.0013373908223560317 0 -0.002260367812285254 0.0012898227674680764 0
          -0.002517255883347165 0.0013694562625778473 0 -0.0024461558027908856 0.0013313224171767526 0
          -0.0023773372622974192 0.001290376154123584 0 -0.002308295185463203 0.0012468838310932505 0
          -0.002236603237272548 0.0012010113866992157 0 -0.002159748758385782 0.0011529137961657724 0
          -0.0024454563510489364 0.001233152573986599 0 -0.0023686898303772385 0.0011905778882636072 0
          -0.0022945658723686423 0.0011463233765586873 0 -0.002220497333632002 0.0011004251145169041 0
          -0.0021441451360553402 0.0010530470730388273 0 -0.0020631481302990796 0.00100447353823454 0
          -0.002363232715715718 0.001092022971317541 0 -0.002284193984905028 0.0010450027782221327 0
          -0.0022074070040219605 0.0009972402863079272 0 -0.0021308594462808314 0.0009487359165954642 0
          -0.0020524784758582377 0.0008996947511434017 0 -0.0019702384019721635 0.0008504490153868247 0
          -0.0022708871530752665 0.0009537475752728664 0 -0.002192079213757129 0.0009013010714957392 0
          -0.002115227476168949 0.00084918847334607 0 -0.002038776930471336 0.0007974256346800463 0
          -0.001960973485871768 0.0007461822891294118 0 -0.0018799990811274978 0.0006957708961764299 0
          -0.0021685478934981204 0.0008201640442643213 0 -0.002091942504938358 0.0007624783117592683 0
          -0.0020173715195563988 0.0007059129812134 0 -0.0019433595372880753 0.0006505077356861529 0
          -0.00186847010180289 0.0005964112496652586 0 -0.0017911440173093347 0.0005439490637625159 0
          -0.002056459118533077 0.0006951332843778883 0 -0.001984133451443332 0.0006323444660868132 0
          -0.0019137004055249888 0.0005713916268494966 0 -0.0018439790182015307 0.0005122298258911728 0
          -0.0017738837816501864 0.000455017752296225 0 -0.0017023704724901554 0.0004001393804020699 0
          -0.001935022748229045 0.000582857010576368 0 -0.0018688171997110843 0.000514855660176842 0
          -0.001804065475750283 0.0004492979485414367 0 -0.0017401409650296584 0.0003861107067261435 0
          -0.001676366244224941 0.0003254585197477977 0 -0.001612136101358199 0.0002676702554186118 0
          -0.0018049365482858846 0.0004858044492368764 0 -0.0017459116002484555 0.0004124236453813281 0
          -0.0027923533782884535 0.001779624271120616 0 -0.0027844271985737285 0.0018003499356880255 0
          -0.0027975982721465745 0.0017527407884612078 0 -0.002799966189853924 0.0017200363732704843 0
          -0.0027992517432882886 0.00168166779991316 0 -0.0016154474977533762 0.0003255298048714402 0
          -0.0016669399960674907 0.00040416325381609035 0 -0.0015652595526651411 0.0002500896085557915 0
          -0.0016880228251292249 0.00034190183468005893 0 -0.0016311117586192186 0.0002742510267549345 0
          -0.0015748085693092673 0.0002095930873879145 0 -0.001518688214754886 0.0001481541732376593 0
          -0.002795221948057885 0.0016376291538757013 0
          <InformationKey name="L2_NORM_RANGE" location="vtkDataArray" length="2">
            <Value index="0">
              0.001525897622
            </Value>
            <Value index="1">
              0.0033157645747
            </Value>
          </InformationKey>
        </DataArray>
      </PointData>
      <CellData>
        <DataArray type="UInt8" Name="vtkGhostType" format="ascii" RangeMin="0" RangeMax="1">
          1 1 1 1 0 0
          0 0 0 0 0 0
          0 0 0 0 0 0
          0 0 0 0 0 0
          0 0 0 0 0 0
          0 0 0 0 0 0
          0 0 0 0 0 0
          0 0 0 0 0 0
          0 0 0 0 0 0
          0 0 0 0 0 0
          0 0 0 0 0 0
          1
        </DataArray>
        <DataArray type="Float64" Name="Gauss Stress" NumberOfComponents="6" format="ascii" RangeMin="431.18764359872534" RangeMax="827.4933501451516">
          560.5957121645804 335.0241165731852 0 -14.670842098014099 0 0
          487.9944996201105 334.63044767714996 0 -15.780549155172281 0 0
          417.05858522564125 333.38115976893994 0 -11.835318095885574 0 0
          347.26585528751707 331.5200803903067 0 -2.67755808738156 0 0
          454.8931234941268 672.9195261281955 0 -12.610449535091098 0 0
          345.9939568621253 667.830010103708 0 5.676844659819914 0 0
          482.9712549208786 664.31504891466 0 -17.873617571403827 0 0
          365.2073958387789 660.1582446157252 0 -1.4143716486117306 0 0
          249.0064877524647 655.5557992932968 0 10.768445503458006 0 0
          132.91759582891294 651.9968025719486 0 19.03645541888323 0 0
          15.109363200230145 650.8174444137525 0 23.86255183253187 0 0
          508.63552060848974 652.2759000140583 0 -23.901923994257373 0 0
          383.1948084856869 647.880934934473 0 -8.545512828089473 0 0
          261.591045039398 643.7767147113112 0 4.461087518356035 0 0
          140.5769278402246 640.6056640804652 0 15.581151197420539 0 0
          18.675966673669066 639.5544244583928 0 24.96771590826907 0 0
          527.5336450097791 630.9209600187144 0 -27.745165508646895 0 0
          400.489131623313 628.7210904757009 0 -14.418242790394578 0 0
          276.5089611038543 626.1562842219051 0 -1.3427913754994467 0 0
          153.59244299634838 623.8231778924375 0 11.089013845599792 0 0
          28.809933497857816 621.8300780688866 0 23.231302267053614 0 0
          540.8731015799817 605.183571640925 0 -28.035163016482265 0 0
          415.9826539045091 605.5286352221945 0 -16.315183776482936 0 0
          291.86918179585246 605.1994484082189 0 -3.97655096322545 0 0
          168.9039478217216 604.905713161015 0 8.668367365310509 0 0
          46.84190420579264 605.3322432586853 0 22.323500567390525 0 0
          554.2432052803983 580.0809306321369 0 -27.08254238786448 0 0
          430.26910087011277 580.4810200463103 0 -15.693234795542331 0 0
          307.48205061311126 580.6769468323321 0 -3.481972890997561 0 0
          186.19060140981122 581.1128668320563 0 9.99750019175576 0 0
          67.61993296868472 582.3882071122251 0 24.81506394153849 0 0
          568.0613173924594 552.0703289160584 0 -27.2573477930298 0 0
          444.4706987265141 551.7233654074928 0 -16.34396705877617 0 0
          323.93046614445365 551.22259545106 0 -4.127683695043557 0 0
          205.05734518560752 550.6156173116337 0 9.586687516232692 0 0
          86.92338093971622 549.8152216803792 0 24.31721145171091 0 0
          577.2878611623348 519.1253795444384 0 -25.853208962384244 0 0
          457.62358633328233 519.3519709490137 0 -17.172739536020153 0 0
          340.29215971729474 518.416364754846 0 -5.991841841892315 0 0
          224.27936434392063 517.0172345552951 0 7.355787302115218 0 0
          108.10509879830532 515.6186523165343 0 22.56654149785676 0 0
          582.3073590330799 485.8179481535948 0 -24.398813111208987 0 0
          467.98383311499913 485.7931960058578 0 -18.04703587980573 0 0
          355.7557852572277 484.6720607491893 0 -8.247545348252526 0 0
          244.31954699401234 483.0017952650569 0 4.841739989771496 0 0
          132.5007577186708 481.5854799336442 0 20.957678074128335 0 0
          582.9215798748955 452.5309017240662 0 -23.123845445347577 0 0
          475.66076691508346 452.3330499600698 0 -19.023405125885986 0 0
          370.33118309539645 451.2798032325936 0 -10.474616749310542 0 0
          265.6430564451855 449.63034706499866 0 2.301419695039389 0 0
          159.99271602461283 447.5845998225077 0 19.40433750605088 0 0
          579.2632033690222 418.9865663829738 0 -21.738906013800815 0 0
          481.16535055000884 419.61473233236103 0 -19.311214386855802 0 0
          383.9027705451443 419.2967571797269 0 -12.002835759545754 0 0
          287.2553116469743 418.21677385118664 0 -0.07887435524604935 0 0
          191.01397374542873 416.69531591929297 0 16.795935420019074 0 0
          573.5623314495554 388.1176230228184 0 -18.66244074674452 0 0
          484.78186139016043 389.23620570144277 0 -17.646837497469846 0 0
          396.12548493984565 389.3857705635253 0 -11.688159597148115 0 0
          308.2601913596725 388.8097523679053 0 -0.7466244368746873 0 0
          221.62156248885867 387.67186162405915 0 15.298115337368978 0 0
          567.7531131486943 361.1901449488912 0 -16.34425364616271 0 0
          486.91708689115814 361.4531492774471 0 -16.183190448246442 0 0
          407.0904116978122 361.08911249636674 0 -11.255443153196852 0 0
          328.2289469740167 360.07492316815166 0 -1.288402120722159 0 0
          250.45608636493702 358.4428426474765 0 13.662123417583906 0 0
          278.2096306571897 329.2232221913026 0 11.586862033685444 0 0
          <InformationKey name="L2_NORM_RANGE" location="vtkDataArray" length="2">
            <Value index="0">
              431.1876436
            </Value>
            <Value index="1">
              827.49335015
            </Value>
          </InformationKey>
        </DataArray>
        <DataArray type="Float64" Name="Gauss Strain" NumberOfComponents="6" format="ascii" RangeMin="0.00009600899353402245" RangeMax="0.0004616529907595695">
          0.00020231823054792097 -0.00002321280848285867 0 -0.000029336321299905527 0 0
          0.00015892974065502552 0.000005591051315603779 0 -0.00003155577111818556 0 0
          0.00011687843671809306 0.0000332136796153959 0 -0.000023666919055451538 0 0
          0.00007575382005664544 0.00006001027060527353 0 -0.000005354194606781237 0 0
          0.0000037878660863466218 0.00022176540674856413 0 -0.000025214995801124603 0 0
          -0.0000595263725542694 0.00026224473265286374 0 0.000011351533955741029 0 0
          0.000024077212765719058 0.00020537977908251237 0 -0.000035738822016468446 0 0
          -0.000044926886522467235 0.00024996384780914815 0 -0.000002828000422779166 0 0
          -0.00011282540141938077 0.0002936507353575174 0 0.000021533115965502438 0 0
          -0.00018108435546340673 0.000337913765866546 0 0.00003806701454249138 0 0
          -0.0002513380485996697 0.00038428581297568487 0 0.00004771879240909388 0 0
          0.00004429082939895468 0.00018789829613811981 0 -0.00004779246523784222 0 0
          -0.000029221438213378196 0.00023541050882570913 0 -0.00001708726856189399 0 0
          -0.00010055936946337664 0.00028155749755962023 0 0.000008920763960098495 0 0
          -0.00017192810992738838 0.0003280229248340816 0 0.00003115762544287212 0 0
          -0.00024468893426271565 0.0003761082448834468 0 0.00004992904779131166 0 0
          0.00006416965355503235 0.0001675334655949351 0 -0.00005547715635633947 0 0
          -0.000011179548236150975 0.00021700585034886696 0 -0.000028830262264024154 0 0
          -0.0000845563936957283 0.0002650282202545512 0 -0.0000026848420381523206 0 0
          -0.00015739955848226295 0.0003127584882766376 0 0.000022174816117327884 0 0
          -0.00023151096163562257 0.0003614324821329534 0 0.00004645679535005478 0 0
          0.00008246541939446739 0.00014676158643706083 0 -0.00005605717785544799 0 0
          0.000007394055111728526 0.0001969017417104285 0 -0.0000326234086706131 0 0
          -0.00006695387460486922 0.00024632059915254134 0 -0.000007951399299734508 0 0
          -0.00014063917955683958 0.00029529553553654664 0 0.00001733431042166577 0 0
          -0.00021408277361620318 0.000344335154017758 0 0.00004464143526725085 0 0
          0.00010052499597365537 0.00012635729135720974 0 -0.0000541524966257824 0 0
          0.000025984659994385262 0.00017616663233914473 0 -0.00003137981785193886 0 0
          -0.000047774044080906026 0.00022537272790537632 0 -0.000006962387041083121 0 0
          -0.00012074333207637289 0.00027411872091816225 0 0.00001999227235594082 0 0
          -0.0001924273331928572 0.0003222743906887843 0 0.00004962403450001656 0 0
          0.00012001523425057836 0.00010402825245277303 0 -0.000054502130541926275 0 0
          0.000046007271482406686 0.0001532389583765864 0 -0.00003268107494520417 0 0
          -0.000026120887442582223 0.00020113182747308336 0 -0.000008253564045630407 0 0
          -0.00009721770306797549 0.0002482886972564602 0 0.00001917085373265364 0 0
          -0.00016780494041146454 0.00029502830550942605 0 0.00004862861841441092 0 0
          0.00013872332616848837 0.00008057400027537687 0 -0.00005169475527848344 0 0
          0.00006684491494554634 0.0001285616029740727 0 -0.00003433842705963258 0 0
          -0.000003180205782743471 0.00017491374734590615 0 -0.000011981268212335906 0 0
          -0.00007223952999269033 0.0002204552671804666 0 0.000014709769722177007 0 0
          -0.0001414068917294231 0.00026605616039220015 0 0.00004512785135756584 0 0
          0.00015505194651294071 0.000058583516788987544 0 -0.000048786915360916016 0 0
          0.00008648094891693103 0.00010428724689043323 0 -0.000036086875431151676 0 0
          0.00001959552626104588 0.00014849043988748867 0 -0.00001649198040397252 0 0
          -0.00004660504875658721 0.00019204277483253482 0 0.000009682438545867477 0 0
          -0.00011314691161914969 0.00023589523332220863 0 0.00004191060830451168 0 0
          0.00016872939121689856 0.000038366041533927087 0 -0.000046237868377032985 0 0
          0.00010446687301529643 0.00008114377694276585 0 -0.00003803947138875998 0 0
          0.0000416962676826893 0.00012263185429225998 0 -0.000020945483263499554 0 0
          -0.00002045967986455399 0.00016350154254696214 0 0.000004602523291637188 0 0
          -0.00008304352638249801 0.0002045136577963208 0 0.000038804350773964084 0 0
          0.00017994655369135693 0.000019702186442191457 0 -0.00004346892265502229 0 0
          0.00012085225596472626 0.00005931297640100752 0 -0.00003861523013499207 0 0
          0.0000626300054702572 0.00009801853732442634 0 -0.000024001548373443316 0 0
          0.0000050741549734861746 0.0001360173531254477 0 -1.5743165517605042e-7 0 0
          -0.000052069079095662385 0.0001735850290714158 0 0.00003358811844318001 0 0
          0.0001888688192651783 0.000003460004273342365 0 -0.000037317551248633595 0 0
          0.00013516892700815575 0.00003964018570236372 0 -0.000035287315360536644 0 0
          0.00008192486968582047 0.00007518640711805247 0 -0.00002337242179371348 0 0
          0.000029439441767031838 0.00010997794388065141 0 -0.0000014927823566180735 0 0
          -0.000022091579442801157 0.00014393862869052643 0 0.00003059279298919406 0 0
          0.0001961501050085079 -0.00001037429848205207 0 -0.000032682307943057796 0 0
          0.00014755878342492812 0.000022116304512223572 0 -0.00003236073176595464 0 0
          0.00009981872925600432 0.000053824648311232015 0 -0.00002250723629506404 0 0
          0.00005291281666422454 0.00008475453686936085 0 -0.000002576225049024894 0 0
          0.000006902092052590846 0.00011487580107694129 0 0.000027321172960921913 0 0
          0.00003524141325562946 0.00008624887413585802 0 0.00002317113163958184 0 0
          <InformationKey name="L2_NORM_RANGE" location="vtkDataArray" length="2">
            <Value index="0">
              9.6008993534e-05
            </Value>
            <Value index="1">
              0.00046165299076
            </Value>
          </InformationKey>
        </DataArray>