<?xml version="1.0"?>
<VTKFile type="UnstructuredGrid" version="0.1" byte_order="LittleEndian" header_type="UInt32" compressor="vtkZLibDataCompressor">
  <UnstructuredGrid>
    <Piece NumberOfPoints="90" NumberOfCells="70">
      <PointData>
        <DataArray type="Float64" Name="sld_BC" NumberOfComponents="3" format="ascii" RangeMin="0" RangeMax="0">
          0 0 0 0 0 0
          0 0 0 0 0 0
          0 0 0 0 0 0
          0 0 0 0 0 0
          0 0 0 0 0 0
          0 0 0 0 0 0
          0 0 0 0 0 0
          0 0 0 0 0 0
          0 0 0 0 0 0
          0 0 0 0 0 0
          0 0 0 0 0 0
          0 0 0 0 0 0
          0 0 0 0 0 0
          0 0 0 0 0 0
          0 0 0 0 0 0
          0 0 0 0 0 0
          0 0 0 0 0 0
          0 0 0 0 0 0
          0 0 0 0 0 0
          0 0 0 0 0 0
          0 0 0 0 0 0
          0 0 0 0 0 0
          0 0 0 0 0 0
          0 0 0 0 0 0
          0 0 0 0 0 0
          0 0 0 0 0 0
          0 0 0 0 0 0
          0 0 0 0 0 0
          0 0 0 0 0 0
          0 0 0 0 0 0
          0 0 0 0 0 0
          0 0 0 0 0 0
          0 0 0 0 0 0
          0 0 0 0 0 0
          0 0 0 0 0 0
          0 0 0 0 0 0
          0 0 0 0 0 0
          0 0 0 0 0 0
          0 0 0 0 0 0
          0 0 0 0 0 0
          0 0 0 0 0 0
          0 0 0 0 0 0
          0 0 0 0 0 0
          0 0 0 0 0 0
          0 0 0 0 0 0
          <InformationKey name="L2_NORM_RANGE" location="vtkDataArray" length="2">
            <Value index="0">
              0
            </Value>
            <Value index="1">
              0
            </Value>
          </InformationKey>
        </DataArray>
        <DataArray type="Float64" Name="sld_FIXNO" NumberOfComponents="3" format="ascii" RangeMin="1.4142135623730951" RangeMax="1.4142135623730951">
          -1 -1 0 -1 -1 0
          -1 -1 0 -1 -1 0
          -1 -1 0 -1 -1 0
          -1 -1 0 -1 -1 0
          -1 -1 0 -1 -1 0
          -1 -1 0 -1 -1 0
          -1 -1 0 -1 -1 0
          -1 -1 0 -1 -1 0
          -1 -1 0 -1 -1 0
          -1 -1 0 -1 -1 0
          -1 -1 0 -1 -1 0
          -1 -1 0 -1 -1 0
          -1 -1 0 -1 -1 0
          -1 -1 0 -1 -1 0
          -1 -1 0 -1 -1 0
          -1 -1 0 -1 -1 0
          -1 -1 0 -1 -1 0
          -1 -1 0 -1 -1 0
          -1 -1 0 -1 -1 0
          -1 -1 0 -1 -1 0
          -1 -1 0 -1 -1 0
          -1 -1 0 -1 -1 0
          -1 -1 0 -1 -1 0
          -1 -1 0 -1 -1 0
          -1 -1 0 -1 -1 0
          -1 -1 0 -1 -1 0
          -1 -1 0 -1 -1 0
          -1 -1 0 -1 -1 0
          -1 -1 0 -1 -1 0
          -1 -1 0 -1 -1 0
          -1 -1 0 -1 -1 0
          -1 -1 0 -1 -1 0
          -1 -1 0 -1 -1 0
          -1 -1 0 -1 -1 0
          -1 -1 0 -1 -1 0
          -1 -1 0 -1 -1 0
          -1 -1 0 -1 -1 0
          -1 -1 0 -1 -1 0
          -1 -1 0 -1 -1 0
          -1 -1 0 -1 -1 0
          -1 -1 0 -1 -1 0
          -1 -1 0 -1 -1 0
          -1 -1 0 -1 -1 0
          -1 -1 0 -1 -1 0
          -1 -1 0 -1 -1 0
          <InformationKey name="L2_NORM_RANGE" location="vtkDataArray" length="2">
            <Value index="0">
              1.4142135624
            </Value>
            <Value index="1">
              1.4142135624
            </Value>
          </InformationKey>
        </DataArray>
        <DataArray type="Float64" Name="Disp" NumberOfComponents="3" format="ascii" RangeMin="0.000026919891002716948" RangeMax="0.00016368897618742868">
          -0.000025696981182287443 -0.000008021576510594787 0 -0.00003583536890653847 -0.0000076058545109362525 0
          -0.00004581514188362856 -0.000007216947972405455 0 -0.00005570145280559146 -0.000006859615611405824 0
          -0.00006556175910145413 -0.000006529669110037963 0 -0.00007546603041524375 -0.000006215461608011444 0
          -0.00002717880234896331 0.000009836251709192416 0 -0.000037234527394427815 0.00001026280998580931 0
          -0.000047108088490692425 0.00001063428605805223 0 -0.000056885961759501556 0.000010945759852887606 0
          -0.00006665072155517758 0.000011199782905184703 0 -0.0000764853071946823 0.000011405890314949657 0
          -0.000028834890113735772 0.00002750535248226639 0 -0.0000387059107179677 0.000027951386015336744 0
          -0.00004838382406902404 0.000028303725784204705 0 -0.00005796259366480468 0.00002855920651854261 0
          -0.00006753863846280258 0.000028719693748280062 0 -0.00007720853639760805 0.000028793609703004362 0
          -0.00003068459706465696 0.00004479330799965477 0 -0.00004026265917990207 0.00004526410532038733 0
          -0.00004963585134932703 0.000045596110669426966 0 -0.00005890994575239325 0.0000457891757407984 0
          -0.00006818928016696945 0.000045846443427230286 0 -0.0000775831850172588 0.00004577336613696176 0
          -0.00003273662213904848 0.00006152649748380345 0 -0.00004189544613800785 0.00006200242278759403 0
          -0.0000508492812963256 0.00006229608939519365 0 -0.00005970853767238582 0.00006241233316482091 0
          -0.0000685787404957279 0.00006235493474687637 0 -0.00007756767959330483 0.00006212540445344847 0
          -0.00003497195301368675 0.00007743907504281288 0 -0.00004357817371184962 0.00007790618234405844 0
          -0.00005199808020942471 0.00007814632472092774 0 -0.000060332927525923306 0.00007816893054591624 0
          -0.00006868129100340357 0.00007797753324904383 0 -0.00007713986117369114 0.00007757004683508573 0
          -0.00003735055672158226 0.0000922885528706881 0 -0.00004528322328620725 0.00009273195394673296 0
          -0.00005305839672363171 0.00009290784439338792 0 -0.00006076314016122111 0.00009282848322640266 0
          -0.0000684824152550404 0.00009249851034675812 0 -0.00007630115121333897 0.00009191502683925912 0
          -0.00003982072037084187 0.00010587121035458713 0 -0.000046975672395737156 0.0001062727344066446 0
          -0.00005400924613064268 0.00010637262295890082 0 -0.00006099199820982987 0.00010618671844870945 0
          -0.00006799059518371604 0.00010572037104147573 0 -0.00007507242865510305 0.00010496890332215581 0
          -0.00004232095247603597 0.00011801190375036112 0 -0.00004861308800170643 0.00011835019176572665 0
          -0.00005483096519294142 0.00011836501537754641 0 -0.00006101862101666626 0.00011807142891358419 0
          -0.0000672229301150486 0.00011747360600283735 0 -0.00007349014136572361 0.00011656653363989662 0
          -0.00004478235868776893 0.00012854744858188796 0 -0.00005016398002162817 0.00012882128157638237 0
          -0.000055511786328114395 0.00012875393396287945 0 -0.000060848346093423774 0.00012835828677792795 0
          -0.00006620105554589216 0.00012763814596680143 0 -0.00007160004126130727 0.00012658845456663882 0
          -0.00004714928288235827 0.00013745297298283917 0 -0.00005159721879011852 0.000137642898202834 0
          -0.00005604104202389228 0.00013748445426315056 0 -0.00006048919539963121 0.0001369876218486198 0
          -0.00006495204612953797 0.00013615510402212636 0 -0.00006944194409536992 0.00013498116175783404 0
          -0.0000493688488819339 0.0001447001499519711 0 -0.000052874158434271855 0.00014479039962129312 0
          -0.00005640157100083425 0.00014453085779077558 0 -0.00005994539367790438 0.00014393038556955923 0
          -0.00006350109305738565 0.00014299085721039223 0 -0.00006706415574329233 0.00014170680807061648 0
          -0.00005139194608652116 0.0001502894035561873 0 -0.00005396126963634791 0.00015026522684892114 0
          -0.00005657601131558021 0.00014989567912386168 0 -0.000059217515495156583 0.00014918846784131552 0
          -0.00006186796726823233 0.00014814529916957559 0 -0.00006450914298217 0.00014676174618811406 0
          -0.00003450820964199384 -0.0000254654318770382 0 -0.000024356438993788554 -0.000025858114239975995 0
          -0.000044520049303299034 -0.000025074509570040922 0 -0.000054440092439991094 -0.000024688890145952175 0
          -0.00006432005915387002 -0.000024305229013911657 0 -0.00007421252538320217 -0.00002391194086130565 0
          -0.000054828583406503375 0.0001540982596415292 0 -0.00005317370129554594 0.00015424977155967224 0
          -0.000056548904796568995 0.00015361087947016376 0 -0.00005830521854623229 0.00015279431645809865 0
          -0.00006006865979348922 0.00015165037344257078 0 -0.00006180979495295596 0.00015017589969688774 0
          <InformationKey name="L2_NORM_RANGE" location="vtkDataArray" length="2">
            <Value index="0">
              2.6919891003e-05
            </Value>
            <Value index="1">
              0.00016368897619
            </Value>
          </InformationKey>
        </DataArray>
        <DataArray type="Float64" Name="Sld_traction" NumberOfComponents="3" format="ascii" RangeMin="0" RangeMax="583.3052288012168">
          -4.604539174007523 107.79659050622928 0 0 0 0
          0 0 0 0 0 0
          0 0 0 20.80244907559005 -107.22637339853343 0
          -9.549626824043838 141.78437258277512 0 0 0 0
          0 0 0 0 0 0
          0 0 0 18.882692625193094 -111.91818322853753 0
          -12.35276849881888 179.43643792965227 0 0 0 0
          0 0 0 0 0 0
          0 0 0 17.05211988064434 -117.55223409239136 0
          -15.904578298597606 219.49568443662335 0 0 0 0
          0 0 0 0 0 0
          0 0 0 15.147099790846708 -121.0505754037317 0
          -19.36965810567564 268.6453373381815 0 0 0 0
          0 0 0 0 0 0
          0 0 0 11.141340125801236 -124.37901798298151 0
          -21.032034906555484 320.34882981656057 0 0 0 0
          0 0 0 0 0 0
          0 0 0 5.725640017210348 -136.14560793954428 0
          -21.882034616827475 370.2260642568838 0 0 0 0
          0 0 0 0 0 0
          0 0 0 0.38216707252856047 -151.61273025911768 0
          -22.26517619739687 417.4978755746791 0 0 0 0
          0 0 0 0 0 0
          0 0 0 -5.693454214166551 -169.3573838052933 0
          -20.910090219965518 459.31640268930687 0 0 0 0
          0 0 0 0 0 0
          0 0 0 -12.31305131000209 -190.01690365317998 0
          -19.137122959566234 489.2569836001995 0 0 0 0
          0 0 0 0 0 0
          0 0 0 -18.17455707499757 -212.6573132006131 0
          -18.601498041202966 515.8264293623735 0 0 0 0
          0 0 0 0 0 0
          0 0 0 -22.410626240453414 -235.47706296154797 0
          -18.17382001483961 540.2954695971434 0 0 0 0
          0 0 0 0 0 0
          0 0 0 -25.908368355253536 -260.7837953866725 0
          -17.982908478516173 562.6235559420168 0 0 0 0
          0 0 0 0 0 0
          0 0 0 -28.973418589092002 -288.9619199114863 0
          0 0 0 2.090287231737735 85.1896561439056 0
          0 0 0 0 0 0
          0 0 0 22.02815923628901 -103.79080507082136 0
          0 0 0 -18.118475966207242 583.0237651892947 0
          0 0 0 0 0 0
          0 0 0 -31.65850484463089 -319.32933711280975 0
          <InformationKey name="L2_NORM_RANGE" location="vtkDataArray" length="2">
            <Value index="0">
              0
            </Value>
            <Value index="1">
              583.3052288
            </Value>
          </InformationKey>
        </DataArray>
        <DataArray type="Float64" Name="Fld_traction" NumberOfComponents="3" format="ascii" RangeMin="0" RangeMax="456.28082227118205">
          8.66410444389267 99.38516314901574 0 0 0 0
          0 0 0 0 0 0
          0 0 0 14.132331460732129 -110.68513516214836 0
          6.67641915224856 122.25854854905688 0 0 0 0
          0 0 0 0 0 0
          0 0 0 9.953734358904624 -127.84094426997369 0
          4.688733860604415 145.13193394909837 0 0 0 0
          0 0 0 0 0 0
          0 0 0 5.834823058350799 -148.25394735338523 0
          2.701048568960288 168.00531934913968 0 0 0 0
          0 0 0 0 0 0
          0 0 0 1.7159117577970049 -168.6669504367966 0
          -0.4228236117917319 199.3898223704703 0 0 0 0
          0 0 0 0 0 0
          0 0 0 -2.40299954275682 -189.07995352020814 0
          -3.8939121392392915 233.37530520866926 0 0 0 0
          0 0 0 0 0 0
          0 0 0 -6.526638534022741 -217.72978527450397 0
          -7.365000666686879 267.3607880468685 0 0 0 0
          0 0 0 0 0 0
          0 0 0 -10.651028792305251 -247.68851350241886 0
          -10.83608919413444 301.34627088506744 0 0 0 0
          0 0 0 0 0 0
          0 0 0 -14.775419050587727 -277.6472417303335 0
          -14.176814875037524 334.50028302220755 0 0 0 0
          0 0 0 0 0 0
          0 0 0 -18.899809308870203 -307.6059699582481 0
          -16.1185363314431 358.73126951085146 0 0 0 0
          0 0 0 0 0 0
          0 0 0 -23.024199567152714 -337.564698186163 0
          -18.060257787848663 382.9622559994953 0 0 0 0
          0 0 0 0 0 0
          0 0 0 -24.99480956236809 -364.8783368256528 0
          -20.001979244254237 407.1932424881393 0 0 0 0
          0 0 0 0 0 0
          0 0 0 -26.216258819828152 -391.2719200159061 0
          -21.943700700659793 431.42422897678307 0 0 0 0
          0 0 0 0 0 0
          0 0 0 -27.437708077288207 -417.6655032061592 0
          0 0 0 13.294216884072124 85.6081947476362 0
          0 0 0 0 0 0
          0 0 0 18.38374935071025 -97.49983437051537 0
          0 0 0 -23.88542215706537 455.6552154654271 0
          0 0 0 0 0 0
          0 0 0 -28.659157334748265 -444.05908639641245 0
          <InformationKey name="L2_NORM_RANGE" location="vtkDataArray" length="2">
            <Value index="0">
              0
            </Value>
            <Value index="1">
              456.28082227
            </Value>
          </InformationKey>
        </DataArray>
        <DataArray type="Float64" Name="Velocity" NumberOfComponents="3" format="ascii" RangeMin="0.001303873406445291" RangeMax="0.002990870606523299">
          0.0016063999695266435 0.0014118281877573914 0 0.0014347999573058484 0.0014369084531851597 0
          0.0012585693310364133 0.0014545982458369603 0 0.001076591409253902 0.0014648927891861624 0
          0.0008876941006441511 0.001467709160531221 0 0.0006906036668380814 0.0014628917714260097 0
          0.001531968528342483 0.0017207570731185289 0 0.001380604789996347 0.001746159656404019 0
          0.0012245025601519146 0.0017637483956548078 0 0.0010627121904427774 0.00177353958835206 0
          0.0008942569643519576 0.001775443656235176 0 0.0007180661326160382 0.0017692353805610758 0
          0.0014546709028099665 0.00199260890608521 0 0.0013247077274834754 0.0020179770380573817 0
          0.0011897713269310938 0.0020351647078177063 0 0.001049126562596871 0.0020442711543981673 0
          0.0009021151643348485 0.0020452247561524367 0 0.000748042267536254 0.002037747390684478 0
          0.001375649384962822 0.002225538122927853 0 0.0012680321952751972 0.002250386305779559 0
          0.0011549410304596075 0.00226692209815574 0 0.0010360878984054826 0.0022752263509596164 0
          0.000911131217377726 0.0022752014126272454 0 0.0007798308364374081 0.002266632070424362 0
          0.0012961398667788934 0.0024172343423179477 0 0.0012111534478809398 0.002441737538495931 0
          0.0011202744383049428 0.002457837202687793 0 0.001023631577781485 0.0024655478516476745 0
          0.0009211684366918563 0.0024647278390641054 0 0.0008126892796187805 0.0024551420205398125 0
          0.0012170833387631867 0.002568600741845111 0 0.0011544368538129344 0.0025925772523902376 0
          0.0010857616837662487 0.0026083089935604654 0 0.0010113827828024512 0.002615777415681299 0
          0.0009315159388372258 0.002614842886638471 0 0.000846131715897955 0.0026052094316897888 0
          0.0011393878700286398 0.0026803932384711015 0 0.001098618633660928 0.0027034774676355858 0
          0.0010516518846503354 0.002718603243550402 0 0.0009990617417201652 0.0027257938440519366 0
          0.0009414111604350724 0.0027248958227790937 0 0.0008791827238797847 0.002715492731875759 0
          0.001064224121732064 0.002753289190768682 0 0.0010447010004259673 0.002775028167780241 0
          0.0010185776834748918 0.002789183807142964 0 0.0009867951755408635 0.0027959265462025994 0
          0.0009504885049540016 0.0027951048964649327 0 0.0009107662260115718 0.002786239864787047 0
          0.0009931235344949846 0.0027883977777340852 0 0.0009938790744387924 0.0028082327163866513 0
          0.0009871300114274511 0.0028212730003007907 0 0.000974693740502271 0.0028275924559933913 0
          0.000958232859022252 0.002826996389105333 0 0.0009395505844608499 0.002819088147527857 0
          0.0009276786028006466 0.002786101268874121 0 0.000946413345748538 0.0028048988277779357 0
          0.0009572635590775055 0.002817555598078464 0 0.0009625127932456697 0.0028239755753081295 0
          0.0009641282427044926 0.002823973141001173 0 0.0009641132026917496 0.002817316344687696 0
          0.0008684558438869965 0.002753959849721991 0 0.0009022916108953013 0.0027714849070228876 0
          0.0009286707987409522 0.002783849296628422 0 0.0009497018982572718 0.0027907866236173582 0
          0.0009673854199480927 0.0027921059239554994 0 0.0009835081615934675 0.002787674700132316 0
          0.0008155257024766525 0.0026967682921949683 0 0.0008619258244168294 0.002713035563974315 0
          0.0009014195373075943 0.0027250719480151984 0 0.0009359662676232759 0.002732614551269581 0
          0.00096745033972732 0.002735449019811019 0 0.0009976333709831508 0.0027333765778097406 0
          0.000768859332379533 0.002618662931527819 0 0.0008255239156168114 0.002633635295842678 0
          0.0008757890440061408 0.0026452573848865504 0 0.0009215281778327546 0.002653283130457811 0
          0.0009645848584773332 0.0026574879075069637 0 0.0010067576078028268 0.002657633989747601 0
          0.0014864725897186233 0.0010926213072124243 0 0.0016769786696962958 0.001068283381125078 0
          0.001291387124831976 0.001110099973981646 0 0.00109048861292223 0.0011207095224284398 0
          0.0008824636130096214 0.0011243796201960443 0 0.000665948052983738 0.0011209812892115619 0
          0.0007933421231838544 0.002537072405932577 0 0.0007285649694732249 0.0025234639276648925 0
          0.0008521565896980237 0.002548142795359333 0 0.0009068123391174012 0.0025564919956651755 0
          0.0009591870772784747 0.0025619251262968407 0 0.0010111622190153657 0.0025641951644243917 0
          <InformationKey name="L2_NORM_RANGE" location="vtkDataArray" length="2">
            <Value index="0">
              0.0013038734064
            </Value>
            <Value index="1">
              0.0029908706065
            </Value>
          </InformationKey>
        </DataArray>
      </PointData>
      <CellData>
        <DataArray type="UInt8" Name="vtkGhostType" format="ascii" RangeMin="0" RangeMax="1">
          1 1 1 1 1 0
          0 0 0 0 0 0
          0 0 0 0 0 0
          0 0 0 0 0 0
          0 0 0 0 0 0
          0 0 0 0 0 0
          0 0 0 0 0 0
          0 0 0 0 0 0
          0 0 0 0 0 0
          0 0 0 0 0 0
          0 0 0 0 0 0
          0 0 0 0
        </DataArray>
        <DataArray type="Float64" Name="Gauss Stress" NumberOfComponents="6" format="ascii" RangeMin="229.08222010119613" RangeMax="792.2300150443322">
          383.9426563558395 92.92325460454929 0 -3.409290718768618 0 0
          381.10078997890514 96.98776727895944 0 -22.804901325195537 0 0
          376.0772319916058 101.31177759139189 0 -33.29045795007095 0 0
          371.91563858768706 104.62611360502945 0 -34.48998906295887 0 0
          371.7717645800653 105.76428662305045 0 -26.23058288838245 0 0
          610.5217981520968 443.83887218275885 0 -13.565707826967108 0 0
          394.4055901043588 441.6717630073307 0 2.149954592359075 0 0
          180.88267407927862 438.2291101898094 0 14.217967337327794 0 0
          -31.990771279954416 434.4827260521006 0 22.760026596945437 0 0
          649.3554687673414 419.6231040881484 0 -14.43150935199776 0 0
          428.22144739037685 417.00885235484486 0 -2.1358693547301684 0 0
          210.0804369293715 412.9315806504966 0 8.362232695248107 0 0
          -7.425785128639397 408.52506315197587 0 17.235723817821174 0 0
          -226.6974165357978 404.99555380423374 0 24.430226038244832 0 0
          679.4023967396538 395.40923394453205 0 -15.680247425197818 0 0
          456.793526671613 392.43483621304335 0 -7.2959892291659365 0 0
          237.60438680502307 387.80714269618244 0 1.3978187431899531 0 0
          19.19984363565409 382.7410716402293 0 10.665299247303885 0 0
          -201.26233332314428 378.6289634004647 0 20.653580776923263 0 0
          699.7019198044839 371.14907661128774 0 -17.14593507659203 0 0
          479.4863649337776 367.9759302287765 0 -13.149314790775842 0 0
          263.189953234501 362.6431962724761 0 -6.604724362795615 0 0
          48.24871624552276 356.8479396922663 0 3.05568544846758 0 0
          -168.44724613042663 352.1213075200004 0 16.193652629644852 0 0
          709.5047119836778 347.3132832473005 0 -18.73405244011181 0 0
          495.2210330683786 342.9073490812791 0 -20.111370046536198 0 0
          286.62965738915983 336.4634599873755 0 -15.995101942642371 0 0
          79.97711380214568 329.63668637277334 0 -5.810413262614995 0 0
          -127.83090556960246 324.1238367035618 0 10.593753223516272 0 0
          706.1454436222073 319.0869314988032 0 -22.32951618879885 0 0
          503.7131253112408 314.33920211246243 0 -29.10552351262485 0 0
          308.0454512678916 307.6500882481502 0 -27.14815585244957 0 0
          114.59215961507994 300.4389689837806 0 -16.44600261360911 0 0
          -80.59116442956696 294.07820201015033 0 3.067478972901208 0 0
          687.0634432070042 285.10013427152 0 -23.31214696680165 0 0
          504.57934604288766 281.99662216789454 0 -36.36957522495316 0 0
          327.0367878058311 276.3143621775142 0 -37.28517255122064 0 0
          151.52573641904513 269.8882153313124 0 -26.579110521198213 0 0
          -25.219777930073356 264.1995378864101 0 -4.16311314864471 0 0
          655.6222914139883 251.0918669077015 0 -23.521062884198553 0 0
          497.3471797859801 248.57491106314532 0 -41.709890306181165 0 0
          343.03296039709113 244.1582076438214 0 -45.35350440864435 0 0
          190.1144832630668 238.94907985120727 0 -34.884322098315934 0 0
          36.45627264776829 234.26445905563193 0 -10.426458240819597 0 0
          613.7822492156475 216.98245022536994 0 -23.156079545074462 0 0
          483.64415396496895 215.46626239703141 0 -45.24338271336348 0 0
          356.0986114098308 212.68264555595943 0 -51.09089714476691 0 0
          229.4359951461838 208.94218067992267 0 -41.32126686426385 0 0
          101.76941848701489 204.62890643227382 0 -15.768946687696706 0 0
          564.4244443929599 183.768665418921 0 -21.364103580496618 0 0
          465.17746025427914 184.48280718974274 0 -45.67442171726364 0 0
          365.85412454493303 184.1459190555347 0 -53.561122619631185 0 0
          267.13397363801454 182.7480127241129 0 -45.61804271268858 0 0
          168.9352810753739 180.22499297623614 0 -21.271919352546764 0 0
          513.471044534483 156.35523800792154 0 -17.05096395422575 0 0
          443.55420746569087 158.18116764139745 0 -41.98963235993606 0 0
          372.11205599751815 159.6550877082771 0 -51.342724708029394 0 0
          301.2789503237423 160.4686703749437 0 -45.20097072771058 0 0
          233.25731711405066 160.24224236817173 0 -23.183880699722963 0 0
          465.64937523354314 133.91697620180705 0 -14.133667614976803 0 0
          421.24040997618 135.30650201169053 0 -37.5383139237683 0 0
          375.9183784854165 137.74945029159946 0 -46.9784962450168 0 0
          331.11239812744975 139.5953445984189 0 -42.5856989455595 0 0
          289.30755919099107 139.67929511019602 0 -24.266820818902673 0 0
          420.96028853895393 110.55200769894373 0 -10.53552333001127 0 0
          400.7605545637527 114.14528224873783 0 -31.565126920040242 0 0
          377.59858369092746 117.76331409387986 0 -41.09731798702451 0 0
          355.15097351041436 120.43687719925437 0 -39.17334016058315 0 0
          335.807954619395 120.74954266328615 0 -25.48427895935655 0 0
          -246.19984079162634 431.41879769814284 0 27.66597909241952 0 0
          <InformationKey name="L2_NORM_RANGE" location="vtkDataArray" length="2">
            <Value index="0">
              229.0822201
            </Value>
            <Value index="1">
              792.23001504
            </Value>
          </InformationKey>
        </DataArray>
        <DataArray type="Float64" Name="Gauss Strain" NumberOfComponents="6" format="ascii" RangeMin="0.00006566338214853777" RangeMax="0.0004830162369755464">
          0.0001931588147955354 -0.0000978328353787028 0 -0.000006817933293927758 0 0
          0.00018982877224317518 -0.00009425708381657905 0 -0.00004560544131974637 0 0
          0.0001850863563618715 -0.00008965286747525392 0 -0.00006657455262566789 0 0
          0.00018126516220762223 -0.00008599890329089033 0 -0.00006897339677777857 0 0
          0.00018072442362301877 -0.00008525768202305439 0 -0.000052456162047893286 0 0
          0.00018875816724517325 0.000022111721246373395 0 -0.00002712489267827631 0 0
          0.00005998147920822926 0.0001072410279856495 0 0.000004299915473446586 0 0
          -0.00006676514998674166 0.00019055068371294498 0 0.000028433079926873053 0 0
          -0.00019303539618703566 0.0002734018377342079 0 0.00004551700503570933 0 0
          0.00022173030801528323 -0.000007951525687180383 0 -0.000028856111444387423 0 0
          0.00009013192600056119 0.00007892257151430325 0 -0.000004270326396127433 0 0
          -0.00003912313424520031 0.00016370405063539928 0 0.00001672304359241167 0 0
          -0.000167901882438648 0.00024801693458478824 0 0.000034469327919421466 0 0
          -0.0002981277670191518 0.0003335440887417135 0 0.000048859342370195915 0 0
          0.00024942970359374816 -0.00003450095878926307 0 -0.00003135310853527671 0 0
          0.00011709903254776553 0.00005275264010291825 0 -0.000014588863975927845 0 0
          -0.000012556561971965866 0.0001376287324004466 0 0.000002795931358481531 0 0
          -0.00014160250607425648 0.00022191083354621 0 0.000021329550778664523 0 0
          -0.00027230204587297413 0.00030757008963752663 0 0.00004130639875128865 0 0
          0.00027130054719592955 -0.00005718049101355315 0 -0.00003428398927363058 0 0
          0.00014049171345663358 0.000029001518027288453 0 -0.000026293607602489322 0 0
          0.000012861014437051677 0.00011230308980011983 0 -0.000013207178725502148 0 0
          -0.00011380673405148034 0.00019476876241839022 0 0.000006111562162742375 0 0
          -0.00024199076326819613 0.00027855999896105044 0 0.0000323868921062488 0 0
          0.0002867062748445476 -0.00007540721903817603 0 -0.000037459785022439775 0 0
          0.00015995315073850933 0.00000766624405704186 0 -0.0000402155083237012 0 0
          0.000037395719988092546 0.00008722448244245784 0 -0.00003198562182435699 0 0
          -0.0000838774222186589 0.00016576284694234944 0 -0.000011619159815120009 0 0
          -0.00020640222644432996 0.0002455359509130478 0 0.0000211875254228962 0 0
          0.00029597377486230425 -0.0000910041346590118 0 -0.00004464950344595296 0 0
          0.00017646858017789088 -0.00001287327135957028 0 -0.00005820104825149136 0 0
          0.00006176774910375549 0.00006137344310652715 0 -0.000054289038750106945 0 0
          -0.00005142348517425677 0.00013440887472219998 0 -0.00003288855852201162 0 0
          -0.00016602141478727628 0.00020863295560089035 0 0.000006135566529937283 0 0
          0.00029811582510839985 -0.00010376831671632392 0 -0.00004661500826128868 0 0
          0.0001899185450405655 -0.00003262826281863473 0 -0.00007272732224190284 0 0
          0.00008569241491640511 0.00003497693230956889 0 -0.00007456081936759744 0 0
          -0.000017039795127085647 0.00010131348908819227 0 -0.00005315306632886529 0 0
          -0.0001208308142133796 0.00016857544216243578 0 -0.00000832497820616294 0 0
          0.00029285560952208023 -0.00011160069406501716 0 -0.000047033488465428406 0 0
          0.00019894252270039048 -0.000049791951563238346 0 -0.00008340705296375008 0 0
          0.00010814703853667673 0.000009284514827914703 0 -0.00009069591590212569 0 0
          0.000018489460942544552 0.00006732043592298786 0 -0.00006976205873840074 0 0
          -0.00007183895397788742 0.0001259590538528338 0 -0.000020851013843151032 0 0
          0.0002814002690014611 -0.00011533308691036305 0 -0.00004630443326584721 0 0
          0.00020396038991803142 -0.00006417953763676598 0 -0.00009047391861721384 0 0
          0.00012857054290582592 -0.000014828688991996852 0 -0.00010216983384656278 0 0
          0.000054082515606748705 0.0000335908648891603 0 -0.00008263480776684202 0 0
          -0.00002079015632415471 0.00008206333912801067 0 -0.00003153531209678207 0 0
          0.00026507873497139123 -0.00011551978851412348 0 -0.000042721829929046554 0 0
          0.00020527190639577084 -0.0000753859864308648 0 -0.00009133686508845284 0 0
          0.00014583275245351468 -0.00003585520490775873 0 -0.00010711024344704765 0 0
          0.00008717395808778561 0.000002795804570965287 0 -0.000091227554091541 0 0
          0.000029271575632650038 0.000040560648943185895 0 -0.00004254043220836608 0 0
          0.0002454813770662173 -0.00011158644854461497 0 -0.000034097410421821226 0 0
          0.0002028189996675922 -0.00008251954244159475 0 -0.00008396911639945254 0 0
          0.00015937922688670503 -0.00005305500948260544 0 -0.00010267439825463158 0 0
          0.00011656649641533788 -0.000024230686345910746 0 -0.0000903933824276392 0 0
          0.00007585345240156138 0.0000028441403160106562 0 -0.00004636383317005066 0 0
          0.00022577248412890274 -0.00010592008187679247 0 -0.000028263970870921018 0 0
          0.00019858189603885745 -0.00008732012309467518 0 -0.00007506824592076164 0 0
          0.00017042136286871123 -0.00006772304726032628 0 -0.0000939472636569775 0 0
          0.00014280880195283174 -0.00004869020738978991 0 -0.00008516325843201372 0 0
          0.00011770040575810603 -0.000031915065697774025 0 -0.000048529327775738486 0 0