<?xml version="1.0"?>
<VTKFile type="UnstructuredGrid" version="0.1" byte_order="LittleEndian" header_type="UInt32" compressor="vtkZLibDataCompressor">
  <UnstructuredGrid>
    <Piece NumberOfPoints="38" NumberOfCells="54">
      <PointData>
        <DataArray type="Float64" Name="ale_BC" NumberOfComponents="3" format="ascii" RangeMin="0" RangeMax="1">
          0 0 0 0 0 0
          0 0 0 0 0 0
          0 0 0 0 0 0
          0 0 0 0 0 0
          0 0 0 1 0 0
          0 0 0 0 0 0
          0 0 0 0 0 0
          1 0 0 0 0 0
          0 0 0 1 0 0
          0 0 0 0 0 0
          1 0 0 0 0 0
          0 0 0 0 0 0
          0 0 0 0 0 0
          0 0 0 0 0 0
          0 0 0 0 0 0
          0 0 0 0 0 0
          0 0 0 0 0 0
          0 0 0 0 0 0
          0 0 0 0 0 0
          <InformationKey name="L2_NORM_RANGE" location="vtkDataArray" length="2">
            <Value index="0">
              0
            </Value>
            <Value index="1">
              1
            </Value>
          </InformationKey>
        </DataArray>
        <DataArray type="Float64" Name="ale_FIXNO" NumberOfComponents="3" format="ascii" RangeMin="1.4142135623730951" RangeMax="3.1622776601683795">
          1 1 0 1 1 0
          1 1 0 -1 -1 0
          -1 -1 0 1 1 0
          1 1 0 -1 -1 0
          -1 -1 0 1 1 0
          -1 -1 0 1 1 0
          1 1 0 -1 -1 0
          1 1 0 -1 -1 0
          -1 -1 0 1 1 0
          -1 -1 0 1 1 0
          1 1 0 -1 -1 0
          1 1 0 1 3 0
          -1 -1 0 -1 -1 0
          1 3 0 -1 -1 0
          -1 -1 0 -1 -1 0
          1 1 0 1 1 0
          1 3 0 1 1 0
          -1 -1 0 1 3 0
          1 1 0 1 1 0
          <InformationKey name="L2_NORM_RANGE" location="vtkDataArray" length="2">
            <Value index="0">
              1.4142135624
            </Value>
            <Value index="1">
              3.1622776602
            </Value>
          </InformationKey>
        </DataArray>
        <DataArray type="Float64" Name="nsi_BC" NumberOfComponents="3" format="ascii" RangeMin="0" RangeMax="1">
          0 0 0 0 0 0
          0 0 0 0 0 0
          0 0 0 0 0 0
          0 0 0 0 0 0
          0 0 0 0 0 0
          0 0 0 0 0 0
          0 0 0 0 0 0
          0 0 0 0 0 0
          0 0 0 0 0 0
          0 0 0 0 0 0
          0 0 0 0 0 0
          0 0 0 0 0 0
          0 0 0 0 0 0
          0 0 0 0 0 0
          0 0 0 0 0 0
          0 0 0 1 0 0
          0 0 0 1 0 0
          0 0 0 0 0 0
          1 0 0 0 0 0
          <InformationKey name="L2_NORM_RANGE" location="vtkDataArray" length="2">
            <Value index="0">
              0
            </Value>
            <Value index="1">
              1
            </Value>
          </InformationKey>
        </DataArray>
        <DataArray type="Float64" Name="nsi_FIXNO" NumberOfComponents="3" format="ascii" RangeMin="1.4142135623730951" RangeMax="1.4142135623730951">
          1 1 0 1 1 0
          -1 -1 0 -1 -1 0
          -1 -1 0 1 1 0
          -1 -1 0 -1 -1 0
          -1 -1 0 1 1 0
          -1 -1 0 1 1 0
          -1 -1 0 -1 -1 0
          1 1 0 -1 -1 0
          -1 -1 0 1 1 0
          -1 -1 0 1 1 0
          1 1 0 -1 -1 0
          1 1 0 1 1 0
          -1 -1 0 -1 -1 0
          1 1 0 -1 -1 0
          -1 -1 0 -1 -1 0
          1 1 0 1 1 0
          1 1 0 1 1 0
          -1 -1 0 1 1 0
          1 1 0 1 1 0
          <InformationKey name="L2_NORM_RANGE" location="vtkDataArray" length="2">
            <Value index="0">
              1.4142135624
            </Value>
            <Value index="1">
              1.4142135624
            </Value>
          </InformationKey>
        </DataArray>
      </PointData>
      <CellData>
        <DataArray type="UInt8" Name="vtkGhostType" format="ascii" RangeMin="0" RangeMax="0">
          0 0 0 0 0 0
          0 0 0 0 0 0
          0 0 0 0 0 0
          0 0 0 0 0 0
          0 0 0 0 0 0
          0 0 0 0 0 0
          0 0 0 0 0 0
          0 0 0 0 0 0
          0 0 0 0 0 0
        </DataArray>
      </CellData>
      <Points>
        <DataArray type="Float32" Name="Points" NumberOfComponents="3" format="ascii" RangeMin="0.27486616442409084" RangeMax="4.3142984182665565">
          3.42372989654541 -1.1242899894714355 0 2.454237937927246 -1.1288100481033325 0
          3.361582040786743 -0.11299250274896622 0 2.235898971557617 0.03558244928717613 0
          2.7337710857391357 0.5622639060020447 0 1.484745979309082 -1.13332998752594 0
          3.2994349002838135 0.8983049988746643 0 1.4636809825897217 -0.3740426003932953 0
          2.0009939670562744 0.8546469211578369 0 1.401129961013794 0.41242900490760803 0
          2.639246940612793 1.318418025970459 0 0.515254020690918 -1.137850046157837 0
          3.2372870445251465 1.9096020460128784 0 0.4851810038089752 -0.291694700717926 0
          1.31072998046875 1.1355899572372437 0 2.5410780906677246 2.125011920928955 0
          1.834494948387146 1.8600540161132812 0 0.2598870098590851 0.4802260100841522 0
          -0.27462801337242126 0.011439519934356213 0 -0.45423799753189087 -1.1423699855804443 0
          0.1468929946422577 1.1468900442123413 0 0.7959300875663757 1.9558650255203247 0
          3.175139904022217 2.9209001064300537 0 2.228247880935669 2.8711841106414795 0
          -0.39127838611602783 0.712766706943512 0 -0.9148772954940796 -0.4425585865974426 0
          1.2813559770584106 2.8214681148529053 0 -0.9641628861427307 0.2571151852607727 0
          -0.13235770165920258 1.9994369745254517 0 -0.6724379062652588 1.3821619749069214 0
          -1.4237300157546997 -1.1468900442123413 0 -1.4576270580291748 -0.19208750128746033 0
          0.33446401357650757 2.771752119064331 0 -1.4915250539779663 0.7627149820327759 0
          -0.8304513096809387 2.0797200202941895 0 -0.6124280095100403 2.7220358848571777 0
          -1.5254219770431519 1.7175179719924927 0 -1.5593199729919434 2.6723198890686035 0
          <InformationKey name="L2_NORM_RANGE" location="vtkDataArray" length="2">
            <Value index="0">
              0.27486616442
            </Value>
            <Value index="1">
              4.3142984183
            </Value>
          </InformationKey>
        </DataArray>
      </Points>
      <Cells>
        <DataArray type="Int64" Name="connectivity" format="ascii" RangeMin="0" RangeMax="37">
          17 20 24 24 20 29
          17 24 18 29 20 28
          24 29 33 18 24 27
          17 18 13 14 9 8
          28 20 21 27 24 33
          27 33 31 27 31 25
          13 18 19 29 28 34
          18 27 25 18 25 19
          19 25 30 17 13 9
          8 9 3 14 8 16
          21 20 14 21 14 16
          28 21 32 34 28 35
          29 34 36 3 9 7
          8 3 4 16 8 10
          25 31 30 7 9 13
          4 3 2 10 8 4
          10 4 6 6 4 2
          10 6 12 3 7 1
          16 10 15 10 12 15
          15 12 22 16 23 26
          22 23 15 15 23 16
          26 32 21 35 37 34
          35 28 32 37 36 34
          36 33 29 11 5 7
          7 5 1 1 0 2
          19 11 13 13 11 7
          21 16 26 2 3 1
        </DataArray>
        <DataArray type="Int64" Name="offsets" format="ascii" RangeMin="3" RangeMax="162">
          3 6 9 12 15 18
          21 24 27 30 33 36
          39 42 45 48 51 54
          57 60 63 66 69 72
          75 78 81 84 87 90
          93 96 99 102 105 108
          111 114 117 120 123 126
          129 132 135 138 141 144
          147 150 153 156 159 162
        </DataArray>
        <DataArray type="UInt8" Name="types" format="ascii" RangeMin="5" RangeMax="5">
          5 5 5 5 5 5
          5 5 5 5 5 5
          5 5 5 5 5 5
          5 5 5 5 5 5
          5 5 5 5 5 5
          5 5 5 5 5 5
          5 5 5 5 5 5
          5 5 5 5 5 5
          5 5 5 5 5 5
        </DataArray>
      </Cells>
    </Piece>
  </UnstructuredGrid>
</VTKFile>
