<?xml version="1.0"?>
<VTKFile type="UnstructuredGrid" version="0.1" byte_order="LittleEndian" header_type="UInt32" compressor="vtkZLibDataCompressor">
  <UnstructuredGrid>
    <Piece NumberOfPoints="99" NumberOfCells="80">
      <PointData>
        <DataArray type="Float64" Name="Velocity" NumberOfComponents="3" format="ascii" RangeMin="0" RangeMax="1.0664561344975105">
          0 0 0 0.4375 0 0
          0.7499999999999999 0 0 0.9375000000000001 0 0
          0 0 0 1 0 0
          0.3236704747667509 -0.004767410606933326 0 0.7044628181493316 -0.011483737478853286 0
          0.963211502058055 -0.010305793177689123 0 0.9375000000000001 0 0
          1.0521441502698277 1.205073774058693e-16 0 0.75 0 0
          0.9632115020580547 0.01030579317768894 0 0.4375 0 0
          0.7044628181493314 0.01148373747885298 0 0 0 0
          0 0 0 0.32367047476675 0.004767410606933562 0
          0.4519097602924882 -0.0008962558294185922 0 0.773015217625779 0.0042958264171719185 0
          0.9900479962033072 0.005272689422089429 0 0 0 0
          1.0664561344975105 -2.1013193355484683e-16 0 0.9900479962033084 -0.0052726894220895895 0
          0.7730152176257794 -0.0042958264171710486 0 0.4519097602924882 0.0008962558294196808 0
          0 0 0 0 0 0
          0.40383610650439655 0.0024521549073717847 0 0.732119592659931 0.001129551628838823 0
          0.9434123511880819 -0.000050338533605374064 0 1.0145789136584096 1.3032110113275763e-16 0
          0.9434123511880819 0.000050338533605776005 0 0.7321195926599321 -0.0011295516288383565 0
          0.4038361065043971 -0.002452154907371283 0 0 0 0
          0 0 0 0.3966895630649972 0.0006902985953582368 0
          0.7178481541901894 0.0013131718175893139 0 0.9312429241257434 0.0009334554247114245 0
          1.004711365798054 9.488937413593135e-16 0 0.9312429241257428 -0.0009334554247095884 0
          0.717848154190189 -0.0013131718175873773 0 0.3966895630649967 -0.0006902985953567268 0
          0 0 0 0 0 0
          0.40623968445524533 -0.00047770407477326627 0 0.7299024710814821 -0.0005017339041876217 0
          0.9413734229668108 -0.00021412893322690413 0 1.013866012435021 5.531599484021044e-16 0
          0.9413734229668116 0.00021412893322769044 0 0.7299024710814839 0.0005017339041884265 0
          0.4062396844552461 0.00047770407477388437 0 0 0 0
          0 0 0 0.40422168294771554 0.00004250622932657206 0
          0.7289506066666588 -0.00004163065451501987 0 0.9414005923016573 -0.00008974703250209156 0
          1.0141614472283498 -6.162605148407607e-16 0 0.9414005923016568 0.00008974703250104032 0
          0.7289506066666586 0.00004163065451390463 0 0.40422168294771577 -0.0000425062293273634 0
          0 0 0 0 0 0
          0.40418435916296125 0.0000016200464627377673 0 0.7283868698177659 0.0000317801306244284 0
          0.9407466115717213 0.00004076883370079412 0 1.0135953029609621 -8.303973446942011e-16 0
          0.940746611571721 -0.00004076883370216812 0 0.7283868698177661 -0.00003178013062506524 0
          0.40418435916296147 -0.0000016200464628129974 0 0 0 0
          0 0 0 0.40426592518281423 -0.00000106433671702693 0
          0.7285898665893269 -0.000012041856998396905 0 0.9408855611605239 -0.00001598019406527998 0
          1.0136634632213546 -2.667137344314341e-17 0 0.9408855611605238 0.00001598019406515085 0
          0.7285898665893271 0.000012041856998167442 0 0.4042659251828145 0.000001064336716850747 0
          0 0 0 0 0 0
          0.40408700155800525 -0.000006069815206061983 0 0.7284047717645837 -0.000012827182414542951 0
          0.9409223381560459 -0.000005114662157015937 0 1.0138400497570625 -9.226663769441484e-17 0
          0.9409223381560448 0.000005114662156808895 0 0.7284047717645832 0.000012827182414388693 0
          0.404087001558005 0.000006069815205985004 0 0 0 0
          0 0 0 0.4032309657698863 0 0
          0.7281967681347711 0 0 0.9410670213790285 0 0
          1.0141726297440468 0 0 0.9410670213790272 0 0
          0.7281967681347707 0 0 0.4032309657698862 0 0
          0 0 0
          <InformationKey name="L2_NORM_RANGE" location="vtkDataArray" length="2">
            <Value index="0">
              0
            </Value>
            <Value index="1">
              1.0664561345
            </Value>
          </InformationKey>
        </DataArray>
        <DataArray type="Float64" Name="Pressure" format="ascii" RangeMin="0" RangeMax="19.393450545518903">
          19.25613751787893 19.393450545518903 19.318101572483112 19.091020102073664 15.720101096044477 18.976569660673622
          15.577701602317003 15.375078854543807 15.242326487759184 19.091020102073664 15.199768706597983 19.318101572483116
          15.242326487759211 19.3934505455189 15.375078854543794 19.256137517878898 11.869970509832873 15.577701602316997
          11.823239999157519 11.845818811828778 11.90004815301701 15.720101096044518 11.924966660432931 11.900048153017012
          11.845818811828794 11.823239999157565 11.869970509832935 10.981762937568126 11.014624203700023 11.026346872614647
          11.025008703723694 11.02417773740503 11.025008703723683 11.026346872614633 11.01462420370001 10.98176293756811
          9.624281087189019 9.622444759868609 9.629626894042737 9.635412337056433 9.63688453822997 9.635412337056428
          9.629626894042724 9.622444759868612 9.624281087189038 7.962783112646315 7.961470690076066 7.957964517876801
          7.956573633076598 7.956510558748553 7.956573633076608 7.957964517876797 7.96147069007608 7.962783112646325
          6.3667285571141505 6.3667877609943355 6.366632718014837 6.3658088991106645 6.365334884524393 6.365808899110657
          6.366632718014834 6.366787760994324 6.366728557114143 4.77564369044329 4.775656740344139 4.775836260603113
          4.776182222124372 4.77635015951095 4.776182222124378 4.77583626060312 4.775656740344157 4.775643690443308
          3.1853577243969955 3.1853501880261432 3.1853014520209775 3.185192663257457 3.185138856956577 3.185192663257464
          3.1853014520209837 3.1853501880261477 3.1853577243970004 1.5942186106177691 1.5941881683006318 1.5938413011948565
          1.5934612868412659 1.593298743475325 1.5934612868412688 1.5938413011948624 1.5941881683006407 1.5942186106177774
          0 0 0 0 0 0
          0 0 0
        </DataArray>
        <DataArray type="Float64" Name="stream" format="ascii" RangeMin="-0.6548060035620108" RangeMax="0.0037387912473385316">
          -0.002961246337672368 -0.027343750000000003 -0.1005273328156544 -0.20551444064440283 0.0020277124833261734 -0.3270068200784418
          -0.02461729583656634 -0.09726342082326421 -0.2022429801100658 -0.448681440759079 -0.32704077282492044 -0.554061458260539
          -0.452436550121671 -0.626844909567063 -0.5594725353311132 -0.654188659567063 0.0037387912473385316 -0.6292821883189459
          -0.02333112685226507 -0.09567732817359918 -0.20133284666341622 -0.6518501262794654 -0.3274424098411131 -0.452740048681411
          -0.5581897846258799 -0.6292446476552135 -0.6546695669764797 -0.005958801063921441 -0.02902087561061177 -0.0995803748993538
          -0.20520801955411133 -0.32866458940325033 -0.45259170436884716 -0.5584470030516293 -0.6297026834910172 -0.6548060035620108
          -0.007573512756290111 -0.03186251357164896 -0.10183472010568267 -0.20595823869796248 -0.3287225814222439 -0.45204914953782666
          -0.5572232580340921 -0.6285222337491821 -0.6540606675013776 -0.0062885463104282915 -0.03173347908389491 -0.10249929573311814
          -0.2067489310297598 -0.328993629261888 -0.45142338542365557 -0.5563022106592181 -0.627897258281842 -0.6536739530308363
          -0.007340293863280351 -0.032355940614894114 -0.10306933126666834 -0.2074187921204028 -0.3296309899453719 -0.45190306102870786
          -0.5565738913357344 -0.6278112512870934 -0.6533745297510809 -0.007968205738367505 -0.0330152789227009 -0.10371129368972547
          -0.2080358046421188 -0.3302097233112252 -0.4524034660313964 -0.5568274779576273 -0.6278341912717676 -0.6532464289748092
          -0.00811480682392671 -0.03328757502628134 -0.10402952946926923 -0.20835499734440405 -0.33051620744121596 -0.45268596714184167
          -0.5570494175147717 -0.6279064012078327 -0.6532099898981713 -0.008214793139689211 -0.033411124729134566 -0.1041451515008118
          -0.20846598886692122 -0.3306431994406195 -0.4528254477032694 -0.5571673609178743 -0.6279519773291462 -0.6531983980094256
          -0.008303130470498531 -0.03345733655322474 -0.10418062195268284 -0.20850649812307598 -0.33069698184029084 -0.45288998440198147
          -0.5572263984966223 -0.6279749787158777 -0.6531983980094256
        </DataArray>
        <DataArray type="Float64" Name="Sigma" NumberOfComponents="6" format="ascii" RangeMin="0" RangeMax="16.1245154965971">
          16 0 0 -2 0 0
          9 0 0 -1.5 0 0
          4 0 0 -1 0 0
          1 0 0 -0.5 0 0
          0.23603923219987938 0 0 -0.32276096008668237 0 0
          0 0 0 0 0 0
          0.39820527246557197 -0.0009694078759003018 0 -0.3415363889997809 0 0
          0.6669663702968702 -0.004824190333507643 0 -0.40196588541553996 0 0
          0.30067856822195627 0.006134596953196216 0 -0.2823017468833648 0 0
          1 0 0 0.5 0 0
          0.021240683378465804 0.023881358811754076 0 -1.3892938403082288e-16 0 0
          4 0 0 1 0 0
          0.3006785682219558 0.006134596953196008 0 0.28230174688336496 0 0
          9 0 0 1.5 0 0
          0.6669663702968707 -0.004824190333507846 0 0.4019658854155407 0 0
          16 0 0 2 0 0
          0.27102887941853393 0 0 -0.3214817808739853 0 0
          0.39820527246557236 -0.0009694078759005093 0 0.34153638899978167 0 0
          0.21541714143814375 -0.0013139572698731045 0 -0.3151515254257572 0 0
          -0.17726498220347808 -0.0015670511393682486 0 -0.15236154697170587 0 0
          -0.09387138275018822 0.00829105805524517 0 -0.07586785814951709 0 0
          0.23603923219987827 0 0 0.32276096008668353 0 0
          0.010839248120782932 0.01963686340607994 0 7.01388567131023e-17 0 0
          -0.09387138275018729 0.00829105805524461 0 0.07586785814951733 0 0
          -0.17726498220347783 -0.001567051139368742 0 0.1523615469717061 0 0
          0.21541714143814072 -0.0013139572698729054 0 0.31515152542575786 0 0
          0.2710288794185311 0 0 0.3214817808739859 0 0
          0.34531909472389966 0 0 -0.3564610102504466 0 0
          0.33345749397212926 0.00039526312128841787 0 -0.35682132614741874 0 0
          0.1332385656506321 -0.00003303658832830931 0 -0.183086483527414 0 0
          0.0629164624559139 -0.003076181463759824 0 -0.08513205599922848 0 0
          -0.0072639023517251065 -0.006355925019442866 0 -2.767598284128484e-16 0 0
          0.06291646245591347 -0.0030761814637610017 0 0.08513205599922764 0 0
          0.13323856565063302 -0.00003303658832863408 0 0.18308648352741425 0 0
          0.33345749397213004 0.0003952631212887552 0 0.35682132614741985 0 0
          0.3453190947238992 0 0 0.3564610102504479 0 0
          0.36893870533329387 0 0 -0.38860362439803103 0 0
          0.19272795536616535 0.00010963604522879173 0 -0.3201014629927573 0 0
          0.02031210497682879 0.0004011591283699337 0 -0.17432481872145722 0 0
          -0.00418832110637885 -0.00028814982521929266 0 -0.09086712953940483 0 0
          0.0031134845367783623 8.379058605534178e-7 0 -4.022984843687388e-16 0 0
          -0.0041883211063789205 -0.00028814982522117164 0 0.09086712953940469 0 0
          0.020312104976827724 0.00040115912836878115 0 0.17432481872145625 0 0
          0.19272795536616597 0.00010963604523016134 0 0.32010146299275877 0 0
          0.36893870533329076 0 0 0.3886036243980313 0 0
          0.3714292731532567 0 0 -0.4029110550458408 0 0
          0.23614704664092262 -0.00025753572073711347 0 -0.3237897732172797 0 0
          0.06579207218783165 -0.00003398892219309906 0 -0.17778436000503198 0 0
          0.019644372485690186 0.0007868334312367787 0 -0.08538110923493739 0 0
          -0.0016033855975481324 0.0007611148108052008 0 8.427932299619587e-17 0 0
          0.019644372485689936 0.0007868334312360718 0 0.08538110923493654 0 0
          0.06579207218783185 -0.00003398892219492664 0 0.17778436000503126 0 0
          0.2361470466409215 -0.0002575357207387171 0 0.32378977321727836 0 0
          0.37142927315325497 0 0 0.4029110550458397 0 0
          0.36947004503041825 0 0 -0.40534151197437085 0 0
          0.21792976249395407 0.00013836796900239888 0 -0.3205739292452843 0 0
          0.052568614050361805 -0.00010851456840050548 0 -0.17665091166895194 0 0
          0.01421217803187187 -0.0005016516245788796 0 -0.0882130270002954 0 0
          0.0004956921115348316 -0.0004029293022097903 0 5.774774597904811e-16 0 0
          0.014212178031872195 -0.0005016516245792041 0 0.0882130270002965 0 0
          0.05256861405036193 -0.00010851456840020163 0 0.17665091166895272 0 0
          0.21792976249395377 0.00013836796900310296 0 0.3205739292452861 0 0
          0.3694700450304166 0 0 0.4053415119743716 0 0
          0.37008402642461485 0 0 -0.4045698442411379 0 0
          0.22384939026310174 -0.00004084842348643056 0 -0.32156393296936553 0 0
          0.05449098632427489 0.00009967207690520707 0 -0.17712751284546327 0 0
          0.013666266317719234 0.00026217682400286657 0 -0.08599101871558248 0 0
          -0.00026655688609838216 0.00017700934788123613 0 3.3723024372989126e-16 0 0
          0.013666266317719224 0.0002621768240033443 0 0.08599101871558312 0 0
          0.054490986324275216 0.00009967207690653938 0 0.17712751284546357 0 0
          0.22384939026310113 -0.00004084842348412895 0 0.32156393296936664 0 0
          0.37008402642461585 0 0 0.4045698442411391 0 0
          0.370002700044869 0 0 -0.4055201234663022 0 0
          0.22205942686166463 0.000012062000400793587 0 -0.3210522163832846 0 0
          0.05562878920970668 -0.00006376358571471236 0 -0.17717729352861278 0 0
          0.01569932643942108 -0.00014167026104906674 0 -0.08708101217871284 0 0
          -0.0003466215024559388 -0.00009635126930614516 0 -5.541816126466194e-16 0 0
          0.01569932643942103 -0.0001416702610482384 0 0.08708101217871166 0 0
          0.05562878920970651 -0.00006376358571420437 0 0.17717729352861258 0 0
          0.22205942686166594 0.000012062000400874559 0 0.32105221638328457 0 0
          0.370002700044868 0 0 0.4055201234663029 0 0
          0.37071447885846015 0 0 -0.40242064759992446 0 0
          0.22391493702613835 -0.000003940949835717491 0 -0.32164236052662043 0 0
          0.055485000857109154 0.000036786935378203187 0 -0.1766474281813621 0 0
          0.014901792192138899 0.00007183880588402828 0 -0.08572595074930647 0 0
          -0.0008024126807250507 0.000056448757416545545 0 -8.759227109867305e-17 0 0
          0.014901792192138717 0.00007183880588394844 0 0.08572595074930615 0 0
          0.05548500085710919 0.00003678693537806042 0 0.1766474281813615 0 0
          0.2239149370261375 -0.000003940949835730262 0 0.32164236052662176 0 0
          0.3707144788584606 0 0 0.402420647599924 0 0
          0.36010102016108797 -0.000003372930452697797 0 -0.4169119866767907 0 0
          0.20905787813529084 0.000004605135883492537 0 -0.3182608965288203 0 0
          0.05653280377692282 -0.000022184917763681735 0 -0.17437316407626055 0 0
          0.013922355669519956 -0.00004231177915818066 0 -0.08255635115587999 0 0
          -0.0022614701565424507 -0.000030347690276884666 0 1.5498965747181878e-16 0 0
          0.013922355669519692 -0.00004231177915820491 0 0.0825563511558802 0 0
          0.0565328037769228 -0.000022184917763642745 0 0.17437316407626088 0 0
          0.20905787813529061 0.0000046051358834332734 0 0.31826089652881867 0 0
          0.3601010201610893 -0.0000033729304525684212 0 0.41691198667679247 0 0
          <InformationKey name="L2_NORM_RANGE" location="vtkDataArray" length="2">
            <Value index="0">
              0
            </Value>
            <Value index="1">
              16.124515497
            </Value>
          </InformationKey>
        </DataArray>
      </PointData>
      <CellData>
        <DataArray type="UInt8" Name="vtkGhostType" format="ascii" RangeMin="0" RangeMax="0">
          0 0 0 0 0 0
          0 0 0 0 0 0
          0 0 0 0 0 0
          0 0 0 0 0 0
          0 0 0 0 0 0
          0 0 0 0 0 0
          0 0 0 0 0 0
          0 0 0 0 0 0
          0 0 0 0 0 0
          0 0 0 0 0 0
          0 0 0 0 0 0
          0 0 0 0 0 0
          0 0 0 0 0 0
          0 0
        </DataArray>
        <DataArray type="Float64" Name="NN-Viscosity" format="ascii" RangeMin="0.0004502594863534051" RangeMax="0.1390002992863218">
          0.004475120810962213 0.13900029928631974 0.1056780729847302 0.02301411923282378 0.0037429223643894722 0.0033804938949164648
          0.003042020981379805 0.003105037649801919 0.0031415735339331502 0.002659023376286465 0.0044356056270627225 0.03684253072327888
          0.007295791718888253 0.004835889499750987 0.0036436320202436 0.003302811026229792 0.003207923271634219 0.003190293916373063
          0.0032122686226618105 0.003007501893365806 0.002180010882961065 0.007921979951778402 0.010820549695354155 0.0063704260027144955
          0.005298880220409946 0.004158981648433225 0.0041463213635134525 0.004052022722405431 0.0040197661950700965 0.003780829277620092
          0.0022650376720732292 0.0015556095624438364 0.0018863966728027777 0.0010924662666820801 0.000493848791375861 0.0005534830562160893
          0.0004638030038996434 0.00047461803197623655 0.0004998006502470136 0.0004502594863534051 0.002265037672073226 0.001555609562443841
          0.0018863966728027855 0.0010924662666820734 0.0004938487913758605 0.0005534830562160938 0.00046380300389964167 0.0004746180319762368
          0.000499800650247014 0.0004502594863534081 0.002180010882961063 0.007921979951778402 0.010820549695354233 0.006370426002714469
          0.005298880220409893 0.004158981648433234 0.00414632136351346 0.004052022722405458 0.0040197661950701 0.0037808292776201308
          0.00443560562706272 0.036842530723279025 0.007295791718888252 0.004835889499750949 0.0036436320202435915 0.0033028110262297945
          0.00320792327163421 0.0031902939163730645 0.003212268622661805 0.003007501893365846 0.004475120810962217 0.1390002992863218
          0.10567807298473092 0.02301411923282277 0.0037429223643894007 0.0033804938949164452 0.003042020981379752 0.003105037649801928
          0.003141573533933105 0.0026590233762865635
        </DataArray>
      </CellData>
      <Points>
        <DataArray type="Float32" Name="Points" NumberOfComponents="3" format="ascii" RangeMin="0" RangeMax="5.024937810560445">
          0 0.5 0 0 0.375 0
          0 0.25 0 0 0.125 0
          0.5 0.5 0 0 0 0
          0.5 0.375 0 0.5 0.25 0
          0.5 0.125 0 0 -0.125 0
          0.5 0 0 0 -0.25 0
          0.5 -0.125 0 0 -0.375 0
          0.5 -0.25 0 0 -0.5 0
          1 0.5 0 0.5 -0.375 0
          1 0.375 0 1 0.25 0
          1 0.125 0 0.5 -0.5 0
          1 0 0 1 -0.125 0
          1 -0.25 0 1 -0.375 0
          1 -0.5 0 1.5 0.5 0
          1.5 0.375 0 1.5 0.25 0
          1.5 0.125 0 1.5 0 0
          1.5 -0.125 0 1.5 -0.25 0
          1.5 -0.375 0 1.5 -0.5 0
          2 0.5 0 2 0.375 0
          2 0.25 0 2 0.125 0
          2 0 0 2 -0.125 0
          2 -0.25 0 2 -0.375 0
          2 -0.5 0 2.5 0.5 0
          2.5 0.375 0 2.5 0.25 0
          2.5 0.125 0 2.5 0 0
          2.5 -0.125 0 2.5 -0.25 0
          2.5 -0.375 0 2.5 -0.5 0
          3 0.5 0 3 0.375 0
          3 0.25 0 3 0.125 0
          3 0 0 3 -0.125 0
          3 -0.25 0 3 -0.375 0
          3 -0.5 0 3.5 0.5 0
          3.5 0.375 0 3.5 0.25 0
          3.5 0.125 0 3.5 0 0
          3.5 -0.125 0 3.5 -0.25 0
          3.5 -0.375 0 3.5 -0.5 0
          4 0.5 0 4 0.375 0
          4 0.25 0 4 0.125 0
          4 0 0 4 -0.125 0
          4 -0.25 0 4 -0.375 0
          4 -0.5 0 4.5 0.5 0
          4.5 0.375 0 4.5 0.25 0
          4.5 0.125 0 4.5 0 0
          4.5 -0.125 0 4.5 -0.25 0
          4.5 -0.375 0 4.5 -0.5 0
          5 0.5 0 5 0.375 0
          5 0.25 0 5 0.125 0
          5 0 0 5 -0.125 0
          5 -0.25 0 5 -0.375 0
          5 -0.5 0
          <InformationKey name="L2_NORM_RANGE" location="vtkDataArray" length="2">
            <Value index="0">
              0
            </Value>
            <Value index="1">
              5.0249378106
            </Value>
          </InformationKey>
        </DataArray>
      </Points>
      <Cells>
        <DataArray type="Int64" Name="connectivity" format="ascii" RangeMin="0" RangeMax="98">
          21 17 13 15 26 25
          17 21 35 34 25 26
          44 43 34 35 53 52
          43 44 62 61 52 53
          71 70 61 62 80 79
          70 71 89 88 79 80
          98 97 88 89 17 14
          11 13 25 24 14 17
          34 33 24 25 43 42
          33 34 52 51 42 43
          61 60 51 52 70 69
          60 61 79 78 69 70
          88 87 78 79 97 96
          87 88 14 12 9 11
          24 23 12 14 33 32
          23 24 42 41 32 33
          51 50 41 42 60 59
          50 51 69 68 59 60
          78 77 68 69 87 86
          77 78 96 95 86 87
          12 10 5 9 23 22
          10 12 32 31 22 23
          41 40 31 32 50 49
          40 41 59 58 49 50
          68 67 58 59 77 76
          67 68 86 85 76 77
          95 94 85 86 10 8
          3 5 22 20 8 10
          31 30 20 22 40 39
          30 31 49 48 39 40
          58 57 48 49 67 66
          57 58 76 75 66 67
          85 84 75 76 94 93
          84 85 8 7 2 3
          20 19 7 8 30 29
          19 20 39 38 29 30
          48 47 38 39 57 56
          47 48 66 65 56 57
          75 74 65 66 84 83
          74 75 93 92 83 84
          7 6 1 2 19 18
          6 7 29 28 18 19
          38 37 28 29 47 46
          37 38 56 55 46 47
          65 64 55 56 74 73
          64 65 83 82 73 74
          92 91 82 83 6 4
          0 1 18 16 4 6
          28 27 16 18 37 36
          27 28 46 45 36 37
          55 54 45 46 64 63
          54 55 73 72 63 64
          82 81 72 73 91 90
          81 82
        </DataArray>
        <DataArray type="Int64" Name="offsets" format="ascii" RangeMin="4" RangeMax="320">
          4 8 12 16 20 24
          28 32 36 40 44 48
          52 56 60 64 68 72
          76 80 84 88 92 96
          100 104 108 112 116 120
          124 128 132 136 140 144
          148 152 156 160 164 168
          172 176 180 184 188 192
          196 200 204 208 212 216
          220 224 228 232 236 240
          244 248 252 256 260 264
          268 272 276 280 284 288
          292 296 300 304 308 312
          316 320
        </DataArray>
        <DataArray type="UInt8" Name="types" format="ascii" RangeMin="9" RangeMax="9">
          9 9 9 9 9 9
          9 9 9 9 9 9
          9 9 9 9 9 9
          9 9 9 9 9 9
          9 9 9 9 9 9
          9 9 9 9 9 9
          9 9 9 9 9 9
          9 9 9 9 9 9
          9 9 9 9 9 9
          9 9 9 9 9 9
          9 9 9 9 9 9
          9 9 9 9 9 9
          9 9 9 9 9 9
          9 9
        </DataArray>
      </Cells>
    </Piece>
  </UnstructuredGrid>
</VTKFile>
