<?xml version="1.0"?>
<VTKFile type="UnstructuredGrid" version="0.1" byte_order="LittleEndian" header_type="UInt32" compressor="vtkZLibDataCompressor">
  <UnstructuredGrid>
    <Piece NumberOfPoints="99" NumberOfCells="80">
      <PointData>
        <DataArray type="Float64" Name="Velocity" NumberOfComponents="3" format="ascii" RangeMin="0" RangeMax="1">
          0 0 0 0.43750000000000006 0 0
          0.7500000000000001 0 0 0.9375000000000001 0 0
          0 0 0 1 0 0
          0.12576096081353028 0.0420081248871794 0 0.3304936341839517 0.0512423588142532 0
          0.47266373400165834 0.03209676554560794 0 0.9375000000000001 0 0
          0.5217779801897404 -7.57162751550619e-18 0 0.75 0 0
          0.47266373400165823 -0.032096765545607794 0 0.4375 0 0
          0.3304936341839508 -0.05124235881425221 0 0 0 0
          0 0 0 0.12576096081352847 -0.042008124887177575 0
          0.3050735530860825 -0.005569509591593647 0 0.4230674909673831 -0.0013807507786830963 0
          0.47659963755015683 0.0015771243269867652 0 0 0 0
          0.492346258243212 2.4754961399980555e-17 0 0.4765996375501557 -0.0015771243269864779 0
          0.4230674909673826 0.001380750778683299 0 0.3050735530860823 0.005569509591593874 0
          0 0 0 0 0 0
          0.3108676564468579 -0.0003597464691874233 0 0.45713421435275803 -0.00199397864809347 0
          0.5164686083940239 -0.001850124653902685 0 0.5323029379926802 -1.0022364882456003e-15 0
          0.5164686083940249 0.001850124653901137 0 0.45713421435275914 0.0019939786480936503 0
          0.31086765644685854 0.0003597464691870448 0 0 0 0
          0 0 0 0.303489645325961 0.00011206382343192548 0
          0.4479500053529609 0.00030309853799235956 0 0.5129771914229515 0.0002000939270646579 0
          0.5313900937406125 -1.89605275924265e-15 0 0.5129771914229515 -0.0002000939270674811 0
          0.4479500053529617 -0.0003030985379927605 0 0.30348964532596134 -0.00011206382343072439 0
          0 0 0 0 0 0
          0.30543053235859197 0.00004224751272090973 0 0.4488632374028299 0.00008132132769226176 0
          0.5117183947341173 0.00008631810118913945 0 0.5294466835746418 -2.2511018656773407e-15 0
          0.5117183947341173 -0.00008631810119276183 0 0.4488632374028291 -0.00008132132769527139 0
          0.3054305323585911 -0.000042247512722076524 0 0 0 0
          0 0 0 0.3050402822627253 -0.00002397429654678124 0
          0.44888752759001965 -0.000047035278445483047 0 0.51207573467064 -0.00004155645024386855 0
          0.5298075962165331 1.1271365785159304e-15 0 0.5120757346706399 0.00004155645024593851 0
          0.44888752759001926 0.0000470352784476904 0 0.3050402822627245 0.000023974296548143095 0
          0 0 0 0 0 0
          0.3050972336887282 0.000006136985721421285 0 0.44884090187567455 0.000011477866567305298 0
          0.5120462125644778 0.000008883785453855871 0 0.5298321796869748 2.9572673702317434e-15 0
          0.5120462125644774 -0.000008883785448328234 0 0.44884090187567444 -0.000011477866563425013 0
          0.30509723368872843 -0.000006136985719153113 0 0 0 0
          0 0 0 0.3051017285079881 -0.0000015361795123404378 0
          0.4488708047260599 -0.0000020179434558131393 0 0.5120522076374564 -9.295572965515621e-7 0
          0.5298168045998926 5.650861722994449e-16 0 0.5120522076374572 9.295572972007823e-7 0
          0.44887080472606095 0.0000020179434560073534 0 0.30510172850798895 0.000001536179512224103 0
          0 0 0 0 0 0
          0.3051014282082192 1.5707874109326808e-7 0 0.44886680899726833 2.0531050030855646e-8 0
          0.5120568510170417 -2.4010473929252365e-7 0 0.529826511384029 1.7627979362831588e-16 0
          0.5120568510170419 2.4010473966419154e-7 0 0.44886680899726855 -2.0531049669397783e-8 0
          0.3051014282082193 -1.5707874078795675e-7 0 0 0 0
          0 0 0 0.3051028069879552 0 0
          0.4488694630425808 0 0 0.5120577031330673 0 0
          0.5298268052366831 0 0 0.5120577031330673 0 0
          0.4488694630425808 0 0 0.3051028069879552 0 0
          0 0 0
          <InformationKey name="L2_NORM_RANGE" location="vtkDataArray" length="2">
            <Value index="0">
              0
            </Value>
            <Value index="1">
              1
            </Value>
          </InformationKey>
        </DataArray>
        <DataArray type="Float64" Name="Pressure" format="ascii" RangeMin="0" RangeMax="56.94393886244343">
          56.39342788417815 56.53670909319378 56.74830105803144 56.89384990820875 53.591473569172024 56.94393886244343
          53.61961863284272 53.67953617175794 53.73883368299836 56.893849908208736 53.76321696635305 56.748301058031416
          53.73883368299836 56.53670909319373 53.67953617175793 56.39342788417807 47.59633883136876 53.61961863284274
          47.59111086296267 47.602725127958166 47.62063003935824 53.59147356917208 47.62862068372444 47.620630039358254
          47.60272512795818 47.591110862962694 47.596338831368776 41.61040748580895 41.61100714371313 41.604727117103764
          41.59756588633869 41.594700279779644 41.5975658863387 41.60472711710376 41.61100714371313 41.610407485808956
          35.66738528376032 35.66709105814875 35.668127872495205 35.66893788170482 35.66915595823661 35.668937881704785
          35.66812787249516 35.667091058148735 35.66738528376034 29.72280820367244 29.722898105882862 29.72283313073972
          29.722957888011464 29.723058044645985 29.722957888011464 29.72283313073969 29.722898105882834 29.722808203672408
          23.778763322161943 23.77874830869888 23.778733839536134 23.778647506352417 23.77859869987332 23.778647506352414
          23.77873383953615 23.77874830869891 23.778763322161982 17.834070091173167 17.834071182290717 17.834078349524336
          17.834104758830467 17.83411784347668 17.834104758830488 17.834078349524372 17.834071182290764 17.834070091173217
          11.889441260805762 11.889441526528145 11.889439599850906 11.889433820474952 11.88943145685971 11.889433820474967
          11.889439599850919 11.889441526528154 11.889441260805775 5.944732419922494 5.944732297671482 5.944732724986774
          5.944733673683292 5.9447339074058405 5.944733673683289 5.944732724986772 5.944732297671482 5.9447324199224925
          0 0 0 0 0 0
          0 0 0
        </DataArray>
        <DataArray type="Float64" Name="stream" format="ascii" RangeMin="-0.5896090340861088" RangeMax="-0.014992860585474607">
          -0.014992860585474607 -0.027343750000000003 -0.09556107546319678 -0.19043861783043906 -0.04012272574428842 -0.2996054436867866
          -0.05797572952369024 -0.11649185080696718 -0.20167206411886685 -0.40804560053984024 -0.2999080225756366 -0.5005939477235707
          -0.39882481405959846 -0.5622652840861088 -0.4856050997645862 -0.5896090340861088 -0.05594786172164652 -0.5456818830067826
          -0.07349367629785263 -0.12582523487032554 -0.1992676740754918 -0.5715754885718685 -0.2837689908397411 -0.3702419159278934
          -0.4512594507722343 -0.5196753683970087 -0.5551589770183787 -0.06977621660306857 -0.08480712316050792 -0.1324150662406228
          -0.19901578711335496 -0.2759250083677823 -0.3587027101759511 -0.4386822326869811 -0.5065512401972315 -0.5405697228717694
          -0.08452269249271832 -0.09882507902033574 -0.14433557363356725 -0.20606608040083652 -0.2775665811765711 -0.3539065329112541
          -0.430042643737412 -0.49500377124852807 -0.527270798476585 -0.0969764864661311 -0.11175809553374201 -0.15706496943380513
          -0.21739052500719303 -0.28420728994327715 -0.35498584222088153 -0.4249687733738212 -0.4865477733681594 -0.5164539900585782
          -0.10808414508175547 -0.12330454269978611 -0.1686923569014802 -0.22866780536324474 -0.29422723510143245 -0.3608951866212503
          -0.42601024041850416 -0.48209449450132913 -0.5088067511006638 -0.1181166912880874 -0.1337137548194075 -0.17924351354546994
          -0.23913505993953868 -0.3043589717156259 -0.36990403524169174 -0.4313552276944391 -0.4830479851550021 -0.5056224062328242
          -0.12245013119112158 -0.13956804967400738 -0.1856429138817518 -0.24552622898521 -0.3106555804592115 -0.37588791980285313
          -0.4363294205809504 -0.48471142776334697 -0.5047457279209181 -0.12188987344393637 -0.14061097248092827 -0.18735606914584257
          -0.2472829823755322 -0.31238918532502336 -0.37753662422126744 -0.4376999965540302 -0.485169814309517 -0.5045044488910769
          -0.12176860494559072 -0.14072427106647573 -0.18765843576892574 -0.24765083374728591 -0.3127628561216786 -0.37789549646944776
          -0.43800612399934447 -0.4853026492470808 -0.5045044488910769
        </DataArray>
        <DataArray type="Float64" Name="Sigma" NumberOfComponents="6" format="ascii" RangeMin="0" RangeMax="16.1245154965971">
          16 0 0 -2 0 0
          9 0 0 -1.5000000000000002 0 0
          4 0 0 -1 0 0
          1 0 0 -0.5 0 0
          -0.2164061516180238 0 0 -0.09511484296965378 0 0
          0 0 0 0 0 0
          -0.17530215233488428 -0.008474862941571524 0 -0.07723073407832048 0 0
          -0.10156122687529033 -0.0036678567912935968 0 -0.06500253215593148 0 0
          -0.06787916822602069 0.007810264337081744 0 -0.04443551001405826 0 0
          1 0 0 0.5 0 0
          0.01582153253243456 0.01274362621718908 0 3.8132538611353285e-17 0 0
          4 0 0 1 0 0
          -0.06787916822602096 0.007810264337081587 0 0.04443551001405853 0 0
          9 0 0 1.5 0 0
          -0.1015612268752899 -0.003667856791294173 0 0.06500253215593207 0 0
          16 0 0 2 0 0
          0.04784684175157986 0 0 -0.13885461675134037 0 0
          -0.17530215233488464 -0.008474862941571069 0 0.0772307340783202 0 0
          0.04890752017540152 0.0013266583128756031 0 -0.08769397995019698 0 0
          0.026976905660782504 -0.0005065634290161442 0 -0.028579426830691645 0 0
          0.01805480042167583 0.00027214454223274106 0 -0.011413195264135943 0 0
          -0.21640615161802143 0 0 0.09511484296965321 0 0
          -0.0028848124063102095 0.001255877800110213 0 2.7352326434833405e-16 0 0
          0.01805480042167598 0.0002721445422326926 0 0.011413195264135896 0 0
          0.02697690566078244 -0.000506563429016127 0 0.028579426830691267 0 0
          0.04890752017540188 0.0013266583128756552 0 0.08769397995019686 0 0
          0.04784684175157908 0 0 0.13885461675134003 0 0
          -0.009805335667508654 0 0 -0.13927167628977488 0 0
          -0.011834762640475434 0.0002892266327955526 0 -0.09280588032269793 0 0
          -0.00396248528092546 0.000042192817361061014 0 -0.03566465820850334 0 0
          -0.0016067751676849197 -0.0005778732704380765 0 -0.015482420259053909 0 0
          0.003921486360297809 -0.0009023158347013589 0 -3.403649307301578e-16 0 0
          -0.0016067751676848558 -0.0005778732704386746 0 0.015482420259053513 0 0
          -0.0039624852809253056 0.000042192817360831855 0 0.035664658208503494 0 0
          -0.011834762640475449 0.0002892266327956651 0 0.09280588032269832 0 0
          -0.009805335667508448 0 0 0.13927167628977524 0 0
          0.0019200130130679757 0 0 -0.1367370210449454 0 0
          0.0022754948880726847 -0.00002803854166890122 0 -0.09134699499092157 0 0
          0.00016769092204831947 0.00007877050810307122 0 -0.03548420453650374 0 0
          0.000006547278724715484 0.00010156550357431408 0 -0.015401096971198293 0 0
          -0.0012410929059149087 0.00009605898733232313 0 -4.999760183796139e-17 0 0
          0.000006547278724614265 0.00010156550357356037 0 0.015401096971197879 0 0
          0.00016769092204815556 0.00007877050810201655 0 0.03548420453650335 0 0
          0.0022754948880725928 -0.00002803854166875804 0 0.0913469949909216 0 0
          0.0019200130130679154 0 0 0.13673702104494542 0 0
          -0.00031597145386563915 0 0 -0.1374306637974733 0 0
          -0.00035786422409547764 -0.00003585929918335791 0 -0.09149078359987564 0 0
          0.0000847019957703884 -0.000037894189229358935 0 -0.03534138659304309 0 0
          -0.000055455979616545336 0.000008311400920278803 0 -0.01554058517818243 0 0
          0.00019634169403562833 0.00003760276064427534 0 1.164118238634163e-16 0 0
          -0.00005545597961651489 0.000008311400919945052 0 0.015540585178182872 0 0
          0.00008470199577033175 -0.000037894189229815004 0 0.03534138659304349 0 0
          -0.00035786422409555526 -0.00003585929918414669 0 0.09149078359987539 0 0
          -0.0003159714538656297 0 0 0.1374306637974729 0 0
          0.000030696447938879665 0 0 -0.13728824389648828 0 0
          0.000034060672738498815 0.000016679929440247453 0 -0.09149934765853099 0 0
          -0.000038780876645393055 0.000011277378662676653 0 -0.035338584482788836 0 0
          0.000034777601372923345 -0.000007830583081784525 0 -0.015405269667239376 0 0
          -0.000021178084772631914 -0.00001777748417670725 0 4.0090153419214375e-16 0 0
          0.00003477760137286705 -0.00000783058308178284 0 0.015405269667240092 0 0
          -0.00003878087664535279 0.000011277378662726216 0 0.03533858448278955 0 0
          0.0000340606727385827 0.000016679929440897246 0 0.09149934765853124 0 0
          0.00003069644793886913 0 0 0.13728824389648778 0 0
          0.0000063683524497695155 0 0 -0.13731338580131217 0 0
          0.000005191645206385143 -0.000004262030980103193 0 -0.09148806017594727 0 0
          0.000012498701246498328 -0.000002414489053600715 0 -0.03535402335728329 0 0
          -0.000009429105892605991 0.0000018844411379411865 0 -0.015462500921830876 0 0
          0.0000062107460483694155 0.00000347333164751284 0 4.098284211995205e-17 0 0
          -0.00000942910589253054 0.000001884441138398818 0 0.015462500921830716 0 0
          0.000012498701246581081 -0.0000024144890529901434 0 0.03535402335728286 0 0
          0.000005191645206496909 -0.000004262030979091743 0 0.09148806017594711 0 0
          0.000006368352449765275 0 0 0.1373133858013124 0 0
          -0.0000056401058763030524 0 0 -0.13731308176437934 0 0
          -0.0000036769655741693367 9.289984314954024e-7 0 -0.09149509354000293 0 0
          -0.0000022947826772038044 2.499994257504129e-7 0 -0.035348978381152085 0 0
          0.0000027261451798527205 -2.714689742349394e-7 0 -0.015446672650929963 0 0
          -0.000002202782742721781 -1.8879055280338002e-7 0 -3.686173017567976e-16 0 0
          0.000002726145179904492 -2.714689739955526e-7 0 0.015446672650929404 0 0
          -0.0000022947826771695317 2.4999942591601687e-7 0 0.03534897838115185 0 0
          -0.000003676965574191267 9.289984315122641e-7 0 0.09149509354000308 0 0
          -0.0000056401058763076315 0 0 0.13731308176437965 0 0
          0.0000026531034820891966 0 0 -0.13731410102382535 0 0
          0.0000017871902805913551 -1.1604819254970861e-7 0 -0.09149400725235962 0 0
          7.150622565896313e-7 -1.568418029416438e-8 0 -0.035350647674980445 0 0
          -1.9148808587885927e-7 -4.186315583324533e-8 0 -0.015450173194058881 0 0
          0.0000014221165571621496 -1.8139603725238717e-7 0 -4.103860108882274e-17 0 0
          -1.914880859458454e-7 -4.186315583404763e-8 0 0.015450173194058902 0 0
          7.15062256505244e-7 -1.5684180301633026e-8 0 0.03535064767498048 0 0
          0.0000017871902805290516 -1.1604819243940364e-7 0 0.09149400725235973 0 0
          0.0000026531034820858885 0 0 0.13731410102382544 0 0
          -0.0000016035283118185147 -4.3503838287567896e-8 0 -0.13731422256959103 0 0
          -8.755165583688892e-7 5.4151441689397195e-8 0 -0.09149461524604871 0 0
          -4.116585209007739e-8 6.83321820214555e-8 0 -0.03535035473679766 0 0
          1.8137656423230887e-7 2.5550705267445412e-8 0 -0.015449571008643097 0 0
          -6.481955979329394e-7 1.1727968729434614e-8 0 -2.5760643618255588e-17 0 0
          1.8137656423281482e-7 2.555070526612553e-8 0 0.015449571008642991 0 0
          -4.1165852077598024e-8 6.833218202673516e-8 0 0.0353503547367976 0 0
          -8.755165583421469e-7 5.4151441669597814e-8 0 0.09149461524604859 0 0
          -0.0000016035283118266238 -4.350383821365101e-8 0 0.13731422256959103 0 0
          <InformationKey name="L2_NORM_RANGE" location="vtkDataArray" length="2">
            <Value index="0">
              0
            </Value>
            <Value index="1">
              16.124515497
            </Value>
          </InformationKey>
        </DataArray>
      </PointData>
      <CellData>
        <DataArray type="UInt8" Name="vtkGhostType" format="ascii" RangeMin="0" RangeMax="0">
          0 0 0 0 0 0
          0 0 0 0 0 0
          0 0 0 0 0 0
          0 0 0 0 0 0
          0 0 0 0 0 0
          0 0 0 0 0 0
          0 0 0 0 0 0
          0 0 0 0 0 0
          0 0 0 0 0 0
          0 0 0 0 0 0
          0 0 0 0 0 0
          0 0 0 0 0 0
          0 0 0 0 0 0
          0 0
        </DataArray>
        <DataArray type="Float64" Name="NN-Viscosity" format="ascii" RangeMin="7.817662688040286e-8" RangeMax="0.05226319011068778">
          0.0016559771008182618 0.05226319011068778 0.004619459681019637 0.0008336559861449643 0.0006587834470126461 0.00028069877680257096
          0.00007754364718362626 0.000013638966548937075 0.0000016857402804762479 2.403232178787476e-7 0.0034554454724479134 0.01910657489622474
          0.005337034946322169 0.0007461016451739428 0.0001244320860467411 0.000040181189053766864 0.000016441190631905315 0.00000681049368825076
          0.0000027404863671890553 9.002739772278646e-7 0.003915329309533658 0.013994736567061664 0.0032883623549302405 0.0006299853322891634
          0.0006451435230224675 0.000325114461001574 0.000018843736231759943 0.0000011982191700526195 4.277966200301284e-7 2.2820445617704549e-7
          0.006906285246916791 0.0019777891483457885 0.0005358669529781589 0.00009489086896419495 0.00003558233478686029 0.000007992965823058578
          0.0000019659280535100753 8.035953805247407e-7 2.7423790440030324e-7 7.817662688040289e-8 0.0069062852469167855 0.0019777891483457903
          0.0005358669529781592 0.00009489086896419501 0.00003558233478686032 0.00000799296582305858 0.0000019659280535100766 8.035953805247411e-7
          2.7423790440030334e-7 7.817662688040286e-8 0.003915329309533658 0.013994736567061659 0.0032883623549302414 0.0006299853322891659
          0.0006451435230224725 0.00032511446100157046 0.000018843736231759784 0.0000011982191700526148 4.277966200301246e-7 2.2820445617704324e-7
          0.0034554454724479125 0.01910657489622467 0.005337034946322136 0.0007461016451739369 0.00012443208604673991 0.000040181189053766335
          0.00001644119063190501 0.000006810493688250605 0.0000027404863671889795 9.002739772278604e-7 0.0016559771008182636 0.05226319011068771
          0.004619459681019632 0.0008336559861449586 0.0006587834470126403 0.000280698776802567 0.00007754364718362455 0.000013638966548936738
          0.0000016857402804762102 2.4032321787874363e-7
        </DataArray>
      </CellData>
      <Points>
        <DataArray type="Float32" Name="Points" NumberOfComponents="3" format="ascii" RangeMin="0" RangeMax="5.024937810560445">
          0 0.5 0 0 0.375 0
          0 0.25 0 0 0.125 0
          0.5 0.5 0 0 0 0
          0.5 0.375 0 0.5 0.25 0
          0.5 0.125 0 0 -0.125 0
          0.5 0 0 0 -0.25 0
          0.5 -0.125 0 0 -0.375 0
          0.5 -0.25 0 0 -0.5 0
          1 0.5 0 0.5 -0.375 0
          1 0.375 0 1 0.25 0
          1 0.125 0 0.5 -0.5 0
          1 0 0 1 -0.125 0
          1 -0.25 0 1 -0.375 0
          1 -0.5 0 1.5 0.5 0
          1.5 0.375 0 1.5 0.25 0
          1.5 0.125 0 1.5 0 0
          1.5 -0.125 0 1.5 -0.25 0
          1.5 -0.375 0 1.5 -0.5 0
          2 0.5 0 2 0.375 0
          2 0.25 0 2 0.125 0
          2 0 0 2 -0.125 0
          2 -0.25 0 2 -0.375 0
          2 -0.5 0 2.5 0.5 0
          2.5 0.375 0 2.5 0.25 0
          2.5 0.125 0 2.5 0 0
          2.5 -0.125 0 2.5 -0.25 0
          2.5 -0.375 0 2.5 -0.5 0
          3 0.5 0 3 0.375 0
          3 0.25 0 3 0.125 0
          3 0 0 3 -0.125 0
          3 -0.25 0 3 -0.375 0
          3 -0.5 0 3.5 0.5 0
          3.5 0.375 0 3.5 0.25 0
          3.5 0.125 0 3.5 0 0
          3.5 -0.125 0 3.5 -0.25 0
          3.5 -0.375 0 3.5 -0.5 0
          4 0.5 0 4 0.375 0
          4 0.25 0 4 0.125 0
          4 0 0 4 -0.125 0
          4 -0.25 0 4 -0.375 0
          4 -0.5 0 4.5 0.5 0
          4.5 0.375 0 4.5 0.25 0
          4.5 0.125 0 4.5 0 0
          4.5 -0.125 0 4.5 -0.25 0
          4.5 -0.375 0 4.5 -0.5 0
          5 0.5 0 5 0.375 0
          5 0.25 0 5 0.125 0
          5 0 0 5 -0.125 0
          5 -0.25 0 5 -0.375 0
          5 -0.5 0
          <InformationKey name="L2_NORM_RANGE" location="vtkDataArray" length="2">
            <Value index="0">
              0
            </Value>
            <Value index="1">
              5.0249378106
            </Value>
          </InformationKey>
        </DataArray>
      </Points>
      <Cells>
        <DataArray type="Int64" Name="connectivity" format="ascii" RangeMin="0" RangeMax="98">
          21 17 13 15 26 25
          17 21 35 34 25 26
          44 43 34 35 53 52
          43 44 62 61 52 53
          71 70 61 62 80 79
          70 71 89 88 79 80
          98 97 88 89 17 14
          11 13 25 24 14 17
          34 33 24 25 43 42
          33 34 52 51 42 43
          61 60 51 52 70 69
          60 61 79 78 69 70
          88 87 78 79 97 96
          87 88 14 12 9 11
          24 23 12 14 33 32
          23 24 42 41 32 33
          51 50 41 42 60 59
          50 51 69 68 59 60
          78 77 68 69 87 86
          77 78 96 95 86 87
          12 10 5 9 23 22
          10 12 32 31 22 23
          41 40 31 32 50 49
          40 41 59 58 49 50
          68 67 58 59 77 76
          67 68 86 85 76 77
          95 94 85 86 10 8
          3 5 22 20 8 10
          31 30 20 22 40 39
          30 31 49 48 39 40
          58 57 48 49 67 66
          57 58 76 75 66 67
          85 84 75 76 94 93
          84 85 8 7 2 3
          20 19 7 8 30 29
          19 20 39 38 29 30
          48 47 38 39 57 56
          47 48 66 65 56 57
          75 74 65 66 84 83
          74 75 93 92 83 84
          7 6 1 2 19 18
          6 7 29 28 18 19
          38 37 28 29 47 46
          37 38 56 55 46 47
          65 64 55 56 74 73
          64 65 83 82 73 74
          92 91 82 83 6 4
          0 1 18 16 4 6
          28 27 16 18 37 36
          27 28 46 45 36 37
          55 54 45 46 64 63
          54 55 73 72 63 64
          82 81 72 73 91 90
          81 82
        </DataArray>
        <DataArray type="Int64" Name="offsets" format="ascii" RangeMin="4" RangeMax="320">
          4 8 12 16 20 24
          28 32 36 40 44 48
          52 56 60 64 68 72
          76 80 84 88 92 96
          100 104 108 112 116 120
          124 128 132 136 140 144
          148 152 156 160 164 168
          172 176 180 184 188 192
          196 200 204 208 212 216
          220 224 228 232 236 240
          244 248 252 256 260 264
          268 272 276 280 284 288
          292 296 300 304 308 312
          316 320
        </DataArray>
        <DataArray type="UInt8" Name="types" format="ascii" RangeMin="9" RangeMax="9">
          9 9 9 9 9 9
          9 9 9 9 9 9
          9 9 9 9 9 9
          9 9 9 9 9 9
          9 9 9 9 9 9
          9 9 9 9 9 9
          9 9 9 9 9 9
          9 9 9 9 9 9
          9 9 9 9 9 9
          9 9 9 9 9 9
          9 9 9 9 9 9
          9 9 9 9 9 9
          9 9 9 9 9 9
          9 9
        </DataArray>
      </Cells>
    </Piece>
  </UnstructuredGrid>
</VTKFile>
