<?xml version="1.0"?>
<VTKFile type="UnstructuredGrid" version="0.1" byte_order="LittleEndian" header_type="UInt32" compressor="vtkZLibDataCompressor">
  <UnstructuredGrid>
    <Piece NumberOfPoints="51" NumberOfCells="75">
      <PointData>
        <DataArray type="Float64" Name="nsi_BC" NumberOfComponents="3" format="ascii" RangeMin="0" RangeMax="100">
          0 0 0 0 0 0
          0 0 0 0 0 0
          0 0 0 0 0 0
          0 0 0 0 0 0
          0 0 0 0 0 0
          0 0 0 0 0 0
          0 0 0 0 0 0
          0 0 0 0 0 0
          0 0 0 0 0 0
          0 0 0 0 0 0
          0 0 0 0 0 0
          0 0 0 0 0 0
          0 0 0 0 0 0
          0 0 0 0 0 0
          0 0 0 0 0 0
          0 0 0 0 0 0
          0 0 0 0 0 0
          0 0 0 0 0 0
          0 0 0 0 0 0
          0 0 0 0 0 0
          0 0 0 0 0 0
          0 0 0 0 0 0
          0 0 0 100 0 0
          0 0 0 100 0 0
          100 0 0 100 0 0
          100 0 0
          <InformationKey name="L2_NORM_RANGE" location="vtkDataArray" length="2">
            <Value index="0">
              0
            </Value>
            <Value index="1">
              100
            </Value>
          </InformationKey>
        </DataArray>
        <DataArray type="Float64" Name="nsi_FIXNO" NumberOfComponents="3" format="ascii" RangeMin="1" RangeMax="1.4142135623730951">
          0 1 0 -1 -1 0
          0 1 0 -1 -1 0
          -1 -1 0 0 1 0
          -1 -1 0 -1 -1 0
          -1 -1 0 0 1 0
          -1 -1 0 -1 -1 0
          -1 -1 0 -1 -1 0
          0 1 0 0 1 0
          -1 -1 0 0 1 0
          0 1 0 -1 -1 0
          -1 -1 0 -1 -1 0
          0 1 0 0 1 0
          -1 -1 0 -1 -1 0
          -1 -1 0 0 1 0
          -1 -1 0 0 1 0
          1 1 0 -1 -1 0
          -1 -1 0 1 1 0
          0 1 0 -1 -1 0
          1 1 0 -1 -1 0
          -1 -1 0 -1 -1 0
          0 1 0 -1 -1 0
          0 1 0 -1 -1 0
          -1 -1 0 1 1 0
          0 1 0 1 1 0
          1 1 0 1 1 0
          1 1 0
          <InformationKey name="L2_NORM_RANGE" location="vtkDataArray" length="2">
            <Value index="0">
              1
            </Value>
            <Value index="1">
              1.4142135624
            </Value>
          </InformationKey>
        </DataArray>
        <DataArray type="Float64" Name="tem_BC" format="ascii" RangeMin="0" RangeMax="1">
          0 0 0 0 0 0
          0 0 0 0 0 0
          0 0 0 0 0 0
          0 0 0 0 0 0
          0 0 0 0 0 0
          0 0 0 0 0 0
          0 0 0 0 0 0
          0 0 0 1 0 1
          1 1 1
        </DataArray>
        <DataArray type="Float64" Name="tem_FIXNO" format="ascii" RangeMin="-1" RangeMax="1">
          -1 -1 -1 -1 -1 -1
          -1 -1 -1 -1 -1 -1
          -1 -1 -1 -1 -1 -1
          -1 -1 -1 -1 -1 -1
          -1 -1 -1 -1 -1 -1
          1 -1 -1 1 -1 -1
          1 -1 -1 -1 -1 -1
          -1 -1 -1 1 -1 1
          1 1 1
        </DataArray>
        <DataArray type="Float64" Name="Velocity" NumberOfComponents="3" format="ascii" RangeMin="0" RangeMax="100.00000000005214">
          49.98028162548228 0 0 49.99151853147884 -0.011799731416903372 0
          49.98964119496695 0 0 49.990685353737206 -0.002587034837081507 0
          49.99884608628619 -0.008563652398421096 0 49.98993131142206 0 0
          50.00275544891159 -0.0007031860551193885 0 49.99400997895704 0.006957802525971297 0
          50.01026307550291 -0.009326294911134788 0 49.98971088455231 0 0
          50.003820662174725 0.01241505520482436 0 50.00969491738763 0.0009321866962063214 0
          49.90063472324085 -0.026394147564936268 0 49.970759375731774 0.008215405647952749 0
          50.02334575718416 0 0 50.269005631550804 0 0
          49.996100128701535 0.033164887350645884 0 50.01114494863462 0 0
          50.04575621134436 0 0 49.92626939623724 0.30279797410867637 0
          49.905060944826424 -0.24864195227168928 0 50.23515611355752 0.01994408496736703 0
          49.964952637803755 0 0 51.13062110300345 0 0
          48.94822785690378 -0.34727296850857503 0 49.945835432274556 -0.3061528079105541 0
          48.905018361071036 0.4017482994679168 0 50.34423265981528 0 0
          61.57651241004404 -2.158737836031716 0 51.2953251635461 0 0
          0 0 0 49.61490905833741 -0.035073148597380144 0
          61.927739175699756 2.8809344672152695 0 0 0 0
          51.48262363079497 0 0 48.595719087403815 0.6405351480927395 0
          0 0 0 53.31732184369852 1.2811133145273712 0
          54.394317205575014 0.2133879049063478 0 58.23483349700126 -0.5507552114596869 0
          48.09100183017763 0 0 48.134649004092665 0.952017594752659 0
          51.89607815416043 0 0 42.94056028118938 0.02283594360199792 0
          44.71901498710153 0.34862367561725655 0 100.00000000005213 0 0
          46.173999368850616 0 0 100.00000000005214 0 0
          100.00000000005213 0 0 100.00000000005214 0 0
          100.00000000005213 0 0
          <InformationKey name="L2_NORM_RANGE" location="vtkDataArray" length="2">
            <Value index="0">
              0
            </Value>
            <Value index="1">
              100
            </Value>
          </InformationKey>
        </DataArray>
        <DataArray type="Float64" Name="Pressure" format="ascii" RangeMin="0" RangeMax="7618671.245788583">
          0 0 999708.6174298982 1214133.5772308146 0 1999501.6409858337
          1000044.6856587426 2448958.4593589026 0 2999387.6154390853 2000057.769332423 1416949.5695685677
          3472626.170469465 2999975.9931934294 0 4000043.246855944 2500579.5056395335 1000340.4964901062
          2000693.3175497518 3999380.4205442546 4389739.234381235 3568239.04718234 3001411.8315355647 5002214.844166972
          5066080.7740328945 5181556.063877512 4904426.170996363 4003504.672763877 5712569.659707322 6012901.711831119
          5689515.311587768 6110446.867987265 5632737.716630696 6169017.92153665 5008961.767851149 5563827.166429291
          6170449.067316634 6522205.7046511555 6248243.85158736 6600296.324948476 7020620.874319125 7157609.076092425
          6026307.794977111 7232931.708900309 7184166.017130454 7618671.245788583 7055795.005871375 7588453.874048643
          7591313.945297497 7595218.683624638 7490946.338482561
        </DataArray>
        <DataArray type="Float64" Name="Temperature" format="ascii" RangeMin="-0.05608054901608138" RangeMax="1.0000000000005032">
          -0.0000888689645121012 -0.000226310638792645 0.00038209325752938537 0.00018234105286963896 -0.00015077062205308894 -0.0010379966265010383
          0.00010514468145367999 0.00012447510041300287 0.00021032747903245537 0.0024137884768929752 0.00006303500372800792 -0.0006245680607560654
          -0.0012764829782706917 -0.001014758992959233 -0.00026652632283025087 -0.004063802409877764 0.0012833645439981778 0.00018145615862296083
          0.0003650339742587189 0.003990155009171125 0.004273196724769281 -0.0006085194817169256 -0.0025924897563709254 0.01516894666791337
          -0.0019973012017780213 -0.009356003156549 -0.006303714153710472 0.007162169185451814 0.028121643902703306 -0.0008732330408359438
          0 -0.024299140111153455 0.012637719598795092 0 -0.008520257690748087 0.019953143963346937
          0 -0.05413584956107623 -0.050636213609588504 -0.05608054901608138 0.0247057759055193 0.08081655614397971
          -0.003636181872658483 0.09175604729485749 0.08995443041654884 1.0000000000005032 0.06519758831647961 1.0000000000005032
          1.0000000000005032 1.0000000000005032 1.0000000000005032
        </DataArray>
        <DataArray type="Float64" Name="CN2" format="ascii" RangeMin="1.4103036324021568e-18" RangeMax="1.8113649366377607e-9">
          2.3919842695874375e-18 2.433833286860813e-18 3.6731527759884345e-15 2.695808957662727e-15 1.4103036324021568e-18 4.496105319352353e-14
          4.73869702652869e-16 3.037388408963511e-14 7.75855462362797e-18 1.0237867877732169e-13 4.669770106284215e-15 2.8278579550708935e-15
          5.140039670390281e-14 2.2269179525040164e-14 4.058348082889572e-18 1.872341000916478e-13 1.7748582305312448e-14 1.0623287209500722e-15
          1.1217083068146264e-14 1.477072812838409e-13 1.9568178948903404e-13 8.982564861322424e-14 7.658942084038252e-14 1.1498178362939337e-12
          1.1132369702249094e-12 8.002962865298495e-13 5.264146618865976e-13 1.9810745091354757e-13 4.634868316759339e-12 2.572187820834265e-12
          9.849481871500114e-13 1.0642757572159476e-11 2.5558745179645965e-12 5.732723948998249e-12 1.0521186833206984e-12 4.263584330786262e-12
          6.225654116425479e-12 2.811385353651539e-11 1.956779612518895e-11 3.6483557961515084e-11 4.508390317032775e-10 8.033963236281857e-10
          7.840586345514786e-12 9.416285757378295e-10 8.789075070850365e-10 1.6806304184541047e-9 7.590582439488265e-10 1.8111561951196228e-9
          1.8113649366377607e-9 1.8052224310143203e-9 1.6980133676126256e-9
        </DataArray>
        <DataArray type="Float64" Name="CT2" format="ascii" RangeMin="0.0000012579468430757985" RangeMax="0.2773171222756766">
          0.00000213357728016202 0.0000021709009624887873 0.000027091733177411404 0.00001392393129237178 0.0000012579468430757985 0.00009098044600240673
          0.0000034929275738257733 0.00004169905676384478 0.000006920425276313786 0.00009506566903779111 0.000009444610283965463 0.000010961297283529422
          0.00003591979307623796 0.000020669583498839488 0.000003619913746063985 0.00009934198902792314 0.000023408963439303817 0.000007826300288888213
          0.00002267292616318183 0.00007840458489963081 0.000086593636087135 0.00005954315691774473 0.00007102055191091173 0.00039405664010050504
          0.0003720515837500993 0.0002558692723021829 0.00018746920464357352 0.00010495112989872614 0.0012241383986282663 0.000613978158698019
          0.0002621075889090656 0.0024603933689534923 0.0006938193033773392 0.0013011058533249475 0.00035949749071590543 0.0011858571874581387
          0.001412336956384985 0.005713751401135447 0.00432776102657243 0.007242743274379383 0.07934024234048004 0.1362094443835794
          0.0018632812557418971 0.15640780609972516 0.14794698683821275 0.25532064781779423 0.13235018043711963 0.2773171222756766
          0.27714285374434217 0.275922803796955 0.266715384917913
        </DataArray>
      </PointData>
      <CellData>
        <DataArray type="UInt8" Name="vtkGhostType" format="ascii" RangeMin="0" RangeMax="0">
          0 0 0 0 0 0
          0 0 0 0 0 0
          0 0 0 0 0 0
          0 0 0 0 0 0
          0 0 0 0 0 0
          0 0 0 0 0 0
          0 0 0 0 0 0
          0 0 0 0 0 0
          0 0 0 0 0 0
          0 0 0 0 0 0
          0 0 0 0 0 0
          0 0 0 0 0 0
          0 0 0
        </DataArray>
      </CellData>
      <Points>
        <DataArray type="Float32" Name="Points" NumberOfComponents="3" format="ascii" RangeMin="0" RangeMax="17.88854381999832">
          16 8 0 16 6 0
          14 8 0 13.571430206298828 5.4463372230529785 0
          16 4 0 12 8 0
          14 3.464102029800415 0 11.101200103759766 5.649384021759033 0
          16 2 0 10 8 0
          12 3.464102029800415 0 13.166669845581055 1.776708960533142 0
          9.0526123046875 5.597301006317139 0 10 3.464102029800415 0
          16 0 0 8 8 0
          11 1.7320510149002075 0 14 0 0
          12 0 0 8 3.464102029800415 0
          7.214476108551025 5.006220817565918 0 8.865592002868652 1.8541419506072998 0
          10 0 0 6 8 0
          5.868243217468262 6.172163009643555 0 5.61288595199585 4.4169921875 0
          6.193554878234863 2.464600086212158 0 8 0 0
          4.574699878692627 4.995409965515137 0 4 8 0
          4.5 4 0 3.80739688873291 6.614357948303223 0
          4.723260879516602 3.0721371173858643 0 3.75 4.433012962341309 0
          6 0 0 4.8942999839782715 1.5862879753112793 0
          3.75 3.5669870376586914 0 3.0087170600891113 5.149643898010254 0
          3.5546820163726807 2.3947041034698486 0 2.864197015762329 3.831125020980835 0
          2 8 0 1.7273950576782227 6.389729976654053 0
          4 0 0 1.5482569932937622 4.574378967285156 0
          1.6611889600753784 2.800034999847412 0 0 8 0
          2 0 0 0 6 0
          0 4 0 0 2 0
          0 0 0
          <InformationKey name="L2_NORM_RANGE" location="vtkDataArray" length="2">
            <Value index="0">
              0
            </Value>
            <Value index="1">
              17.88854382
            </Value>
          </InformationKey>
        </DataArray>
      </Points>
      <Cells>
        <DataArray type="Int64" Name="connectivity" format="ascii" RangeMin="0" RangeMax="50">
          30 36 32 36 33 39
          33 30 28 32 36 38
          39 33 37 28 30 25
          30 32 25 36 39 38
          33 28 37 32 38 35
          39 37 43 28 25 24
          35 38 42 43 37 41
          24 25 20 32 35 26
          39 43 44 28 24 31
          41 37 31 26 35 34
          31 24 23 20 25 19
          44 43 48 48 43 47
          43 41 47 47 41 45
          32 26 25 28 31 37
          24 20 15 39 44 38
          35 42 34 44 48 49
          44 49 46 50 46 49
          14 8 17 15 23 24
          27 22 21 21 22 16
          27 21 26 16 22 18
          16 18 11 11 18 17
          16 11 10 11 17 8
          10 11 6 6 11 8
          10 6 3 3 4 1
          10 3 7 7 3 5
          10 7 13 13 7 12
          10 13 16 12 7 9
          13 12 19 16 13 21
          19 12 20 20 12 15
          19 25 26 21 13 19
          21 19 26 0 2 1
          4 3 6 29 40 31
          29 31 23 5 9 7
          46 42 38 8 4 6
          2 5 3 34 27 26
          40 45 41 40 41 31
          9 15 12 38 44 46
          1 2 3
        </DataArray>
        <DataArray type="Int64" Name="offsets" format="ascii" RangeMin="3" RangeMax="225">
          3 6 9 12 15 18
          21 24 27 30 33 36
          39 42 45 48 51 54
          57 60 63 66 69 72
          75 78 81 84 87 90
          93 96 99 102 105 108
          111 114 117 120 123 126
          129 132 135 138 141 144
          147 150 153 156 159 162
          165 168 171 174 177 180
          183 186 189 192 195 198
          201 204 207 210 213 216
          219 222 225
        </DataArray>
        <DataArray type="UInt8" Name="types" format="ascii" RangeMin="5" RangeMax="5">
          5 5 5 5 5 5
          5 5 5 5 5 5
          5 5 5 5 5 5
          5 5 5 5 5 5
          5 5 5 5 5 5
          5 5 5 5 5 5
          5 5 5 5 5 5
          5 5 5 5 5 5
          5 5 5 5 5 5
          5 5 5 5 5 5
          5 5 5 5 5 5
          5 5 5 5 5 5
          5 5 5
        </DataArray>
      </Cells>
    </Piece>
  </UnstructuredGrid>
</VTKFile>
