<?xml version="1.0"?>
<VTKFile type="UnstructuredGrid" version="0.1" byte_order="LittleEndian" header_type="UInt32" compressor="vtkZLibDataCompressor">
  <UnstructuredGrid>
    <Piece NumberOfPoints="18" NumberOfCells="20">
      <PointData>
        <DataArray type="Float64" Name="Velocity" NumberOfComponents="3" format="ascii" RangeMin="0" RangeMax="0.22985142721633295">
          0.019472091673217964 -0.18948491772468776 0 -0.07000888755083212 0.07003957654438264 0
          -0.007964911964485066 -0.22971338396093338 0 0 0 0
          0 0 0 0 0 0
          -0.05581457674919926 -0.16970691937870006 0 0 0 0
          0 0 0 0 0 0
          0 0 0 0 0 0
          -0.07940940825942844 -0.016788264808311637 0 0 0 0
          0.001365509814963417 0.04084038288894043 0 0.044999255000445895 0.013938068273736018 0
          0.09393162025543106 -0.05823303065975294 0 0 0 0
          <InformationKey name="L2_NORM_RANGE" location="vtkDataArray" length="2">
            <Value index="0">
              0
            </Value>
            <Value index="1">
              0.22985142722
            </Value>
          </InformationKey>
        </DataArray>
        <DataArray type="Float64" Name="Pressure" format="ascii" RangeMin="0.5777644305663472" RangeMax="2.307309026896968">
          1.2644073327263303 1.8581730534560579 1.5663021068057428 0.9494723618574804 2.123328101197783 1.2623470360366733
          1.8794288785951823 2.1535726685987715 1.5696359539389897 2.213025543847239 1.891379003388661 2.307309026896968
          1.8422656765126773 2.093903696226825 1.5639310176328538 1.2718174566771607 0.9654782288341799 0.5777644305663472
        </DataArray>
        <DataArray type="Float64" Name="Temperature" format="ascii" RangeMin="239.9999999994246" RangeMax="635.9157275795319">
          582.0063811560664 603.7499900693784 569.417115410299 239.9999999994246 601.715857216036 239.99999999942463
          560.1741377393871 621.1447996864349 239.9999999994246 515.5790624253128 239.99999999942463 239.9999999994246
          598.2486337982153 635.9157275795319 600.0234280785179 597.4368585686601 607.313516087679 239.99999999942463
        </DataArray>
        <DataArray type="Float64" Name="Density" format="ascii" RangeMin="0.5541264594549389" RangeMax="1.4682405443175093">
          0.6054533799705307 0.5836484247310129 0.6188393729286628 1.4682405443175093 0.5856214796560398 1.468240544317509
          0.6290503379134865 0.5673036799362147 1.4682405443175093 0.6834601253544952 1.468240544317509 1.4682405443175093
          0.5890155208515055 0.5541264594549389 0.5872732865844797 0.5898158534771095 0.5802237580770127 1.468240544317509
        </DataArray>
        <DataArray type="Float64" Name="stream" format="ascii" RangeMin="-0.027977643120107212" RangeMax="0.013355590529330177">
          -0.007260171304137845 -0.019838546570341984 -0.013367233801708437 0.011766905551143902 -0.008867399174774807 0.009376861038578436
          -0.011146235938214965 -0.012443299742692095 0.001866820140993505 -0.005309968244553038 -0.002340788446097551 -0.005309968244553038
          -0.0165400969420056 -0.010277982596893918 -0.027977643120107212 -0.020562659833417048 0.0027662325287960594 0.013355590529330177
        </DataArray>
      </PointData>
      <CellData>
        <DataArray type="UInt8" Name="vtkGhostType" format="ascii" RangeMin="0" RangeMax="1">
          1 1 1 1 1 1
          0 1 0 1 1 0
          0 0 0 0 0 0
          0 0
        </DataArray>
      </CellData>
      <Points>
        <DataArray type="Float32" Name="Points" NumberOfComponents="3" format="ascii" RangeMin="0.20000000298023224" RangeMax="1.4142135623730951">
          0.800000011920929 0.6000000238418579 0 0.6000000238418579 0.20000000298023224 0
          0.800000011920929 0.4000000059604645 0 1 0.800000011920929 0
          0.4000000059604645 0 0 1 0.6000000238418579 0
          0.800000011920929 0.20000000298023224 0 0.6000000238418579 0 0
          1 0.4000000059604645 0 0.800000011920929 0 0
          1 0.20000000298023224 0 1 0 0
          0.4000000059604645 0.20000000298023224 0 0.20000000298023224 0 0
          0.6000000238418579 0.4000000059604645 0 0.6000000238418579 0.6000000238418579 0
          0.800000011920929 0.800000011920929 0 1 1 0
          <InformationKey name="L2_NORM_RANGE" location="vtkDataArray" length="2">
            <Value index="0">
              0.20000000298
            </Value>
            <Value index="1">
              1.4142135624
            </Value>
          </InformationKey>
        </DataArray>
      </Points>
      <Cells>
        <DataArray type="Int64" Name="connectivity" format="ascii" RangeMin="0" RangeMax="17">
          4 12 13 1 12 4
          1 14 12 2 14 1
          2 0 14 0 15 14
          5 0 2 0 16 15
          5 3 0 3 16 0
          3 17 16 7 1 4
          9 6 7 6 1 7
          11 10 9 10 6 9
          6 2 1 10 8 6
          8 2 6 8 5 2
        </DataArray>
        <DataArray type="Int64" Name="offsets" format="ascii" RangeMin="3" RangeMax="60">
          3 6 9 12 15 18
          21 24 27 30 33 36
          39 42 45 48 51 54
          57 60
        </DataArray>
        <DataArray type="UInt8" Name="types" format="ascii" RangeMin="5" RangeMax="5">
          5 5 5 5 5 5
          5 5 5 5 5 5
          5 5 5 5 5 5
          5 5
        </DataArray>
      </Cells>
    </Piece>
  </UnstructuredGrid>
</VTKFile>
