<?xml version="1.0"?>
<VTKFile type="UnstructuredGrid" version="0.1" byte_order="LittleEndian" header_type="UInt32" compressor="vtkZLibDataCompressor">
  <UnstructuredGrid>
    <Piece NumberOfPoints="21" NumberOfCells="27">
      <PointData>
        <DataArray type="Float64" Name="Velocity" NumberOfComponents="3" format="ascii" RangeMin="0" RangeMax="0.06844313344605203">
          0.01057147075534234 -0.0028292139564177754 0 0.014749190244600308 -0.019526375441561272 0
          0 0 0 0.0010846074000698813 -0.005180561594219313 0
          0.014504569980027804 -0.009117070540737224 0 0.0036645610526694905 -0.016917504329127198 0
          0 0 0 -0.01729954165494596 -0.013932041570306697 0
          0.005252105763660558 -0.0071853290960481875 0 -0.01041133049979015 -0.010929668901761164 0
          0 0 0 0 0 0
          0 0 0 0.03325059966623631 -0.002794659522231846 0
          0.03381150157123858 -0.016874130493494448 0 0.029563718611096412 -0.00619804709647781 0
          0.019647823527766783 -0.0368156416133994 0 0 0 0
          -0.00523791120825895 -0.0005152422264339956 0 -0.002030056209880726 -0.06841302060060506 0
          0.0036083535997010197 -0.06301678899906826 0
          <InformationKey name="L2_NORM_RANGE" location="vtkDataArray" length="2">
            <Value index="0">
              0
            </Value>
            <Value index="1">
              0.068443133446
            </Value>
          </InformationKey>
        </DataArray>
        <DataArray type="Float64" Name="Pressure" format="ascii" RangeMin="5.970589308088229" RangeMax="7.087045479339613">
          6.305041364259535 6.288903276935421 6.5531006324563945 6.5542294824335885 6.272010797125084 6.552147135392431
          6.790743310888119 6.801911490186161 6.547202427443153 6.816591755977016 7.002903667947987 7.047314550875702
          6.310604853206586 6.058296345265351 6.02474565642748 5.995431994232593 5.970589308088229 7.087045479339613
          6.82373169187908 6.541145065544117 6.256957468791505
        </DataArray>
        <DataArray type="Float64" Name="Temperature" format="ascii" RangeMin="555.4644898156029" RangeMax="959.9999999997219">
          647.8538374801057 591.9866751419338 959.9999999997219 649.129221484261 597.0978361758088 595.8872554245152
          959.9999999997217 644.4546637421676 597.331675800996 599.0714384052043 959.9999999997217 639.1359373769584
          959.9999999997216 646.6164530088346 589.9062716098099 598.7326349789942 563.9977411682306 602.9519342995114
          599.227492457002 555.4644898156029 557.974236491678
        </DataArray>
        <DataArray type="Float64" Name="Density" format="ascii" RangeMin="0.3642110917043153" RangeMax="0.6294599464893103">
          0.5396937207256695 0.5906258750709408 0.3642110917043153 0.5386333513634911 0.5855701140626693 0.5867597349215885
          0.36421109170431537 0.5425403332575244 0.5853408787792573 0.5836409910758382 0.36421109170431537 0.5470552156259434
          0.3642110917043154 0.5407264946771534 0.5927088164055162 0.583971254629052 0.6199362559711904 0.5798847771211548
          0.5834889961446992 0.6294599464893103 0.6266286598364408
        </DataArray>
        <DataArray type="Float64" Name="stream" format="ascii" RangeMin="-0.004642445433161232" RangeMax="0.010453834213474752">
          -0.0027884852492234317 -0.00037944453710977554 -0.004519388831427635 -0.0044245459417692305 0.002152100860940524 -0.0019935895071162986
          -0.004642445433161232 -0.004028118532038528 -0.0007942898448845457 -0.0024330902865451346 -0.003996049059091934 -0.0027283629959003264
          -0.0030088436783544956 0.0019035468882724464 0.004242594239541868 0.006541414976686193 0.010453834213474752 -0.0020044426243960773
          -0.0013872902326885744 0.005772142216491074 0.0075021845228899695
        </DataArray>
      </PointData>
      <CellData>
        <DataArray type="UInt8" Name="vtkGhostType" format="ascii" RangeMin="0" RangeMax="1">
          0 0 1 0 0 0
          1 1 1 1 1 1
          0 0 0 0 0 0
          0 0 0 0 0 0
          0 0 1
        </DataArray>
      </CellData>
      <Points>
        <DataArray type="Float32" Name="Points" NumberOfComponents="3" format="ascii" RangeMin="0" RangeMax="1.1313708667572155">
          0.20000000298023224 0.6000000238418579 0 0.4000000059604645 0.6000000238418579 0
          0 0.4000000059604645 0 0.20000000298023224 0.4000000059604645 0
          0.6000000238418579 0.6000000238418579 0 0.4000000059604645 0.4000000059604645 0
          0 0.20000000298023224 0 0.20000000298023224 0.20000000298023224 0
          0.6000000238418579 0.4000000059604645 0 0.4000000059604645 0.20000000298023224 0
          0 0 0 0.20000000298023224 0 0
          0 0.6000000238418579 0 0.20000000298023224 0.800000011920929 0
          0.4000000059604645 0.800000011920929 0 0.6000000238418579 0.800000011920929 0
          0.800000011920929 0.800000011920929 0 0.4000000059604645 0 0
          0.6000000238418579 0.20000000298023224 0 0.800000011920929 0.4000000059604645 0
          0.800000011920929 0.6000000238418579 0
          <InformationKey name="L2_NORM_RANGE" location="vtkDataArray" length="2">
            <Value index="0">
              0
            </Value>
            <Value index="1">
              1.1313708668
            </Value>
          </InformationKey>
        </DataArray>
      </Points>
      <Cells>
        <DataArray type="Int64" Name="connectivity" format="ascii" RangeMin="0" RangeMax="20">
          3 2 6 3 0 2
          0 12 2 5 1 3
          1 0 3 4 1 5
          0 13 12 1 14 0
          14 13 0 4 15 1
          15 14 1 16 15 4
          11 7 10 7 6 10
          17 9 11 9 7 11
          18 9 17 7 3 6
          9 5 7 5 3 7
          18 8 9 8 5 9
          19 8 18 8 4 5
          19 20 8 20 4 8
          20 16 4
        </DataArray>
        <DataArray type="Int64" Name="offsets" format="ascii" RangeMin="3" RangeMax="81">
          3 6 9 12 15 18
          21 24 27 30 33 36
          39 42 45 48 51 54
          57 60 63 66 69 72
          75 78 81
        </DataArray>
        <DataArray type="UInt8" Name="types" format="ascii" RangeMin="5" RangeMax="5">
          5 5 5 5 5 5
          5 5 5 5 5 5
          5 5 5 5 5 5
          5 5 5 5 5 5
          5 5 5
        </DataArray>
      </Cells>
    </Piece>
  </UnstructuredGrid>
</VTKFile>
