<?xml version="1.0"?>
<VTKFile type="UnstructuredGrid" version="0.1" byte_order="LittleEndian" header_type="UInt32" compressor="vtkZLibDataCompressor">
  <UnstructuredGrid>
    <Piece NumberOfPoints="18" NumberOfCells="20">
      <PointData>
        <DataArray type="Float64" Name="Velocity" NumberOfComponents="3" format="ascii" RangeMin="0" RangeMax="0.12009928702030342">
          0 0 0 0 0 0
          0 0 0 0.06173627136677823 0.02845692313069864 0
          0 0 0 0 0 0
          0.06004549138539489 -0.02982147284558083 0 0 0 0
          0.06071992521477637 0.000012381155918339548 0 0 0 0
          0.052214966488812506 -0.05220366002512096 0 0 0 0
          0.014494999782958762 0.03479751699582001 0 0 0 0
          0.019316005763285515 -0.027974738837004853 0 0.026248647283449 -0.0020331342375752744 0
          0.014010051302705384 -0.1192793242992296 0 0 0 0
          <InformationKey name="L2_NORM_RANGE" location="vtkDataArray" length="2">
            <Value index="0">
              0
            </Value>
            <Value index="1">
              0.12009928702
            </Value>
          </InformationKey>
        </DataArray>
        <DataArray type="Float64" Name="Pressure" format="ascii" RangeMin="2.1299662885842046" RangeMax="3.112385435074904">
          2.3672268610146823 2.327966464384876 2.598050249085792 2.584009325632421 2.286206432223852 2.8501585985006246
          2.5631603314875266 2.2523761430735973 2.5427898866696257 2.2053161426387384 2.521323586702873 2.1299662885842046
          2.8467816264202526 3.112385435074904 2.8410145379869918 2.833922776762663 2.826290692623275 2.5026434257202474
        </DataArray>
        <DataArray type="Float64" Name="Temperature" format="ascii" RangeMin="239.99999999979414" RangeMax="959.9999999991769">
          959.9999999991768 669.9347894943122 959.9999999991769 651.5934750257171 573.6032566234319 959.9999999991768
          590.4527702493259 601.4202753592117 600.6522421485942 568.2207673696864 580.0029668922969 239.99999999979417
          651.2108267233933 959.9999999991768 594.1820438882977 597.9929925667834 567.737996182392 239.99999999979414
        </DataArray>
        <DataArray type="Float64" Name="Density" format="ascii" RangeMin="0.36624261544265224" RangeMax="1.4649704617706096">
          0.3662426154426523 0.5248166184801928 0.36624261544265224 0.5395893671445499 0.6129548721433846 0.3662426154426523
          0.5954632250707882 0.5846043527791742 0.5853518661096829 0.6187611066244207 0.606191572964718 1.4649704617706094
          0.5399064272222035 0.3662426154426523 0.5917259103352202 0.5879549011360348 0.6192872648807034 1.4649704617706096
        </DataArray>
        <DataArray type="Float64" Name="stream" format="ascii" RangeMin="-0.008291007133771145" RangeMax="0.017408144295178916">
          0 0.0009927312094146867 -0.0002773279019673298 -0.0006006294351245848 0.004380799650640294 -0.002902364078669979
          -0.0007869656349825102 0.008245339663905466 0.002863037141711345 0.012869331530088226 0.008831423481356989 0.017408144295178916
          -0.006872819197295058 -0.002902364078669979 -0.008291007133771145 -0.005891397772653239 0.004042563654908533 0.015711645349485555
        </DataArray>
      </PointData>
      <CellData>
        <DataArray type="UInt8" Name="vtkGhostType" format="ascii" RangeMin="0" RangeMax="0">
          0 0 0 0 0 0
          0 0 0 0 0 0
          0 0 0 0 0 0
          0 0
        </DataArray>
      </CellData>
      <Points>
        <DataArray type="Float32" Name="Points" NumberOfComponents="3" format="ascii" RangeMin="0.4000000059604645" RangeMax="1.4142135623730951">
          0 1 0 0.20000000298023224 1 0
          0 0.800000011920929 0 0.20000000298023224 0.800000011920929 0
          0.4000000059604645 1 0 0 0.6000000238418579 0
          0.4000000059604645 0.800000011920929 0 0.6000000238418579 1 0
          0.6000000238418579 0.800000011920929 0 0.800000011920929 1 0
          0.800000011920929 0.800000011920929 0 1 1 0
          0.20000000298023224 0.6000000238418579 0 0 0.4000000059604645 0
          0.4000000059604645 0.6000000238418579 0 0.6000000238418579 0.6000000238418579 0
          0.800000011920929 0.6000000238418579 0 1 0.800000011920929 0
          <InformationKey name="L2_NORM_RANGE" location="vtkDataArray" length="2">
            <Value index="0">
              0.40000000596
            </Value>
            <Value index="1">
              1.4142135624
            </Value>
          </InformationKey>
        </DataArray>
      </Points>
      <Cells>
        <DataArray type="Int64" Name="connectivity" format="ascii" RangeMin="0" RangeMax="17">
          12 5 13 12 3 5
          3 2 5 14 6 12
          6 3 12 15 8 14
          8 6 14 10 8 15
          3 1 2 1 0 2
          6 4 3 4 1 3
          8 7 6 7 4 6
          10 9 8 9 7 8
          16 10 15 17 10 16
          17 11 10 11 9 10
        </DataArray>
        <DataArray type="Int64" Name="offsets" format="ascii" RangeMin="3" RangeMax="60">
          3 6 9 12 15 18
          21 24 27 30 33 36
          39 42 45 48 51 54
          57 60
        </DataArray>
        <DataArray type="UInt8" Name="types" format="ascii" RangeMin="5" RangeMax="5">
          5 5 5 5 5 5
          5 5 5 5 5 5
          5 5 5 5 5 5
          5 5
        </DataArray>
      </Cells>
    </Piece>
  </UnstructuredGrid>
</VTKFile>
