<?xml version="1.0"?>
<VTKFile type="UnstructuredGrid" version="0.1" byte_order="LittleEndian" header_type="UInt32" compressor="vtkZLibDataCompressor">
  <UnstructuredGrid>
    <Piece NumberOfPoints="32" NumberOfCells="40">
      <PointData>
        <DataArray type="Float64" Name="nsi_BC" NumberOfComponents="3" format="ascii" RangeMin="0" RangeMax="0">
          0 0 0 0 0 0
          0 0 0 0 0 0
          0 0 0 0 0 0
          0 0 0 0 0 0
          0 0 0 0 0 0
          0 0 0 0 0 0
          0 0 0 0 0 0
          0 0 0 0 0 0
          0 0 0 0 0 0
          0 0 0 0 0 0
          0 0 0 0 0 0
          0 0 0 0 0 0
          0 0 0 0 0 0
          0 0 0 0 0 0
          0 0 0 0 0 0
          0 0 0 0 0 0
          <InformationKey name="L2_NORM_RANGE" location="vtkDataArray" length="2">
            <Value index="0">
              0
            </Value>
            <Value index="1">
              0
            </Value>
          </InformationKey>
        </DataArray>
        <DataArray type="Float64" Name="nsi_FIXNO" NumberOfComponents="3" format="ascii" RangeMin="1.4142135623730951" RangeMax="1.4142135623730951">
          -1 -1 0 -1 -1 0
          -1 -1 0 -1 -1 0
          -1 -1 0 -1 -1 0
          -1 -1 0 -1 -1 0
          -1 -1 0 -1 -1 0
          1 1 0 -1 -1 0
          -1 -1 0 -1 -1 0
          1 1 0 -1 -1 0
          -1 -1 0 -1 -1 0
          -1 -1 0 -1 -1 0
          -1 -1 0 -1 -1 0
          -1 -1 0 1 1 0
          -1 -1 0 -1 -1 0
          -1 -1 0 -1 -1 0
          -1 -1 0 -1 -1 0
          -1 -1 0 -1 -1 0
          <InformationKey name="L2_NORM_RANGE" location="vtkDataArray" length="2">
            <Value index="0">
              1.4142135624
            </Value>
            <Value index="1">
              1.4142135624
            </Value>
          </InformationKey>
        </DataArray>
        <DataArray type="Float64" Name="Velocity" NumberOfComponents="3" format="ascii" RangeMin="0" RangeMax="0.15694159323376308">
          0.0012117752440244838 -0.00011898702339419029 0 0.0012756772412459833 -0.00007871608053680561 0
          0.00013616452729813284 0.000299817914061836 0 0.0018073465629961617 -0.00010290323474135897 0
          0.0009344700717679836 0.000019194558586947655 0 0.0016150464613975206 -0.00009734831812077282 0
          0.0046677659221548585 -0.0009403278961971632 0 -0.0009112015085746828 0.0006045690643543115 0
          -0.0009512256467737987 0.00047599786961121494 0 0.00013616452729813284 0.000299817914061836 0
          0 0 0 0.011199504562257316 -0.00022389737421025217 0
          0.007550950749398497 -0.0020688984995725604 0 0.013055650588231231 -0.0006979656288533983 0
          0 0 0 -0.04973989734946944 0.004799958210597057 0
          -0.008882600202387951 0.002791843878141824 0 0.007550950749398497 -0.0020688984995725604 0
          0.0012117752440244838 -0.00011898702339419029 0 0.0010898405972818226 -0.000004309577989758698 0
          0.0008653898340107974 0.00014567031221016205 0 0.0009729989325259771 0.000030495274198275253 0
          0.0010084222566081958 0.0000401590028480876 0 0 0 0
          -0.04955117209232177 0.007494912704820986 0 0.021577571959390664 -0.006475781610900911 0
          -0.03114679220345945 0.010635653007257943 0 0.15690771217740754 -0.0032609118362491194 0
          0.12397844594896852 -0.023647103816325826 0 0.0010084222566081958 0.0000401590028480876 0
          -0.008882600202387951 0.002791843878141824 0 0.12397844594896852 -0.023647103816325826 0
          <InformationKey name="L2_NORM_RANGE" location="vtkDataArray" length="2">
            <Value index="0">
              0
            </Value>
            <Value index="1">
              0.15694159323
            </Value>
          </InformationKey>
        </DataArray>
        <DataArray type="Float64" Name="Pressure" format="ascii" RangeMin="0.03948588837814575" RangeMax="0.26735601701165734">
          0.06143164284459011 0.07068181175587497 0.08353181046702692 0.08257798295128682 0.09180601206099408 0.0751211358361979
          0.10782357753906863 0.1112338752405486 0.1038125495750005 0.08353181046702692 0.13585690147061166 0.13143106850636227
          0.10821854453604593 0.1357188152314347 0.17216855806813716 0.1825637214322669 0.16194923453192547 0.10821854453604593
          0.06143164284459011 0.0503617541654445 0.06100251577353694 0.04800923119143793 0.03948588837814575 0.1715732917293697
          0.22830831495942738 0.13903655537483126 0.16305877844303818 0.26735601701165734 0.22562629289259362 0.03948588837814575
          0.16194923453192547 0.22562629289259362
        </DataArray>
      </PointData>
      <CellData>
        <DataArray type="UInt8" Name="vtkGhostType" format="ascii" RangeMin="0" RangeMax="1">
          0 0 1 1 1 1
          1 0 0 1 1 0
          0 0 0 0 0 0
          0 0 0 0 0 0
          0 0 0 1 0 0
          0 0 0 0 0 0
          0 0 1 1
        </DataArray>
      </CellData>
      <Points>
        <DataArray type="Float32" Name="Points" NumberOfComponents="3" format="ascii" RangeMin="2" RangeMax="14.422205101855956">
          10 8 0 9.0526123046875 5.597301006317139 0
          8 8 0 8 3.464102029800415 0
          7.214476108551025 5.006220817565918 0 8.865592002868652 1.8541419506072998 0
          5.868243217468262 6.172163009643555 0 5.61288595199585 4.4169921875 0
          6.193554878234863 2.464600086212158 0 8 0 0
          4.5 4 0 4.723260879516602 3.0721371173858643 0
          6 0 0 4.8942999839782715 1.5862879753112793 0
          3.75 3.5669870376586914 0 3.5546820163726807 2.3947041034698486 0
          4 0 0 6 8 0
          10 0 0 11 1.7320510149002075 0
          10 3.464102029800415 0 11.101200103759766 5.649384021759033 0
          12 8 0 3.75 4.433012962341309 0
          2.864197015762329 3.831125020980835 0 4.574699878692627 4.995409965515137 0
          3.80739688873291 6.614357948303223 0 1.6611889600753784 2.800034999847412 0
          2 0 0 12 0 0
          4 8 0 2 8 0
          <InformationKey name="L2_NORM_RANGE" location="vtkDataArray" length="2">
            <Value index="0">
              2
            </Value>
            <Value index="1">
              14.422205102
            </Value>
          </InformationKey>
        </DataArray>
      </Points>
      <Cells>
        <DataArray type="Int64" Name="connectivity" format="ascii" RangeMin="0" RangeMax="31">
          6 4 2 2 17 6
          5 18 19 20 21 1
          1 21 0 20 1 3
          19 20 5 3 1 4
          4 1 2 5 20 3
          22 0 21 0 2 1
          10 14 11 14 23 24
          23 10 25 11 14 15
          25 10 7 10 11 7
          11 15 13 25 7 6
          6 7 4 11 13 8
          25 6 26 8 13 12
          26 6 17 4 7 3
          11 8 7 9 18 5
          9 5 8 3 7 8
          5 3 8 12 9 8
          14 24 15 13 15 16
          24 27 15 13 16 12
          28 16 15 15 27 28
          30 26 17 30 31 26
        </DataArray>
        <DataArray type="Int64" Name="offsets" format="ascii" RangeMin="3" RangeMax="120">
          3 6 9 12 15 18
          21 24 27 30 33 36
          39 42 45 48 51 54
          57 60 63 66 69 72
          75 78 81 84 87 90
          93 96 99 102 105 108
          111 114 117 120
        </DataArray>
        <DataArray type="UInt8" Name="types" format="ascii" RangeMin="5" RangeMax="5">
          5 5 5 5 5 5
          5 5 5 5 5 5
          5 5 5 5 5 5
          5 5 5 5 5 5
          5 5 5 5 5 5
          5 5 5 5 5 5
          5 5 5 5
        </DataArray>
      </Cells>
    </Piece>
  </UnstructuredGrid>
</VTKFile>
