<?xml version="1.0"?>
<VTKFile type="UnstructuredGrid" version="0.1" byte_order="LittleEndian" header_type="UInt32" compressor="vtkZLibDataCompressor">
  <UnstructuredGrid>
    <Piece NumberOfPoints="26" NumberOfCells="29">
      <PointData>
        <DataArray type="Float64" Name="nsi_BC" NumberOfComponents="3" format="ascii" RangeMin="0" RangeMax="1.4142135623730951">
          0 0 0 0 0 0
          0 0 0 0 0 0
          0 0 0 0 0 0
          0 0 0 0 0 0
          0 0 0 0 0 0
          0 0 0 1 -1 0
          0 0 0 1 -1 0
          1 -1 0 1 -1 0
          1 -1 0 0 0 0
          0 0 0 0 0 0
          0 0 0 0 0 0
          0 0 0 0 0 0
          0 0 0 0 0 0
          <InformationKey name="L2_NORM_RANGE" location="vtkDataArray" length="2">
            <Value index="0">
              0
            </Value>
            <Value index="1">
              1.4142135624
            </Value>
          </InformationKey>
        </DataArray>
        <DataArray type="Float64" Name="nsi_FIXNO" NumberOfComponents="3" format="ascii" RangeMin="1.4142135623730951" RangeMax="1.4142135623730951">
          -1 -1 0 -1 -1 0
          -1 -1 0 -1 -1 0
          1 1 0 -1 -1 0
          -1 -1 0 -1 -1 0
          -1 -1 0 -1 -1 0
          -1 -1 0 1 1 0
          -1 -1 0 1 1 0
          1 1 0 1 1 0
          1 1 0 -1 -1 0
          -1 -1 0 1 1 0
          1 1 0 -1 -1 0
          -1 -1 0 -1 -1 0
          -1 -1 0 -1 -1 0
          <InformationKey name="L2_NORM_RANGE" location="vtkDataArray" length="2">
            <Value index="0">
              1.4142135624
            </Value>
            <Value index="1">
              1.4142135624
            </Value>
          </InformationKey>
        </DataArray>
        <DataArray type="Float64" Name="Velocity" NumberOfComponents="3" format="ascii" RangeMin="0" RangeMax="1.4142135623730954">
          0.014370184809538873 -0.003345399869591584 0 0.03485814520378511 -0.00989740504284053 0
          -0.007697293276023333 0.0033486186711285362 0 -0.0382091404245095 0.017411093317051325 0
          0 0 0 -0.05582350844138571 0.03722019584269539 0
          -0.05192092497110252 0.01856970238349215 0 0.17691967041867374 -0.033789413055510836 0
          0.22410714714342334 -0.09087563215130122 0 0.25506483639648014 -0.08670439005424489 0
          0.22339259597389843 -0.028561229502393218 0 1 -1 0
          0.17691967041867374 -0.033789413055510836 0 1 -1 0
          1 -1 0 1.0000000000000002 -1.0000000000000002 0
          1 -1 0 0.002004644442310963 0.0004558496166248875 0
          0.009595309546561952 -0.0017553156227831173 0 0 0 0
          0 0 0 0.002170467428197287 0.0006832784796810572 0
          -0.06299054884380965 0.010609752991236142 0 -0.007697293276023333 0.0033486186711285362 0
          0.014370184809538873 -0.003345399869591584 0 0.002004644442310963 0.0004558496166248875 0
          <InformationKey name="L2_NORM_RANGE" location="vtkDataArray" length="2">
            <Value index="0">
              0
            </Value>
            <Value index="1">
              1.4142135624
            </Value>
          </InformationKey>
        </DataArray>
        <DataArray type="Float64" Name="Pressure" format="ascii" RangeMin="0.18222313415641342" RangeMax="1.1282234945342178">
          0.24103985276458714 0.30814373421158686 0.3473038746314652 0.35398520913673087 0.3762560023084676 0.44177012743968536
          0.48243879493680963 0.5086291622223297 0.5763058653249239 0.6526881383317875 0.6045670482301461 1.1282234945342178
          0.5086291622223297 1.1012500302088057 1.0643763952385445 1.0898305240624524 1.1282234945342178 0.18222313415641342
          0.24158560806015228 0.37537468890453113 0.30510028072242423 0.24720514643893188 0.38957548185102536 0.3473038746314652
          0.24103985276458714 0.18222313415641342
        </DataArray>
      </PointData>
      <CellData>
        <DataArray type="UInt8" Name="vtkGhostType" format="ascii" RangeMin="0" RangeMax="1">
          1 1 1 0 1 0
          1 1 0 1 0 0
          0 0 1 0 0 0
          0 0 0 0 1 0
          0 0 1 0 1
        </DataArray>
      </CellData>
      <Points>
        <DataArray type="Float32" Name="Points" NumberOfComponents="3" format="ascii" RangeMin="0" RangeMax="11.313708498984761">
          6 8 0 4.574699878692627 4.995409965515137 0
          4 8 0 3.80739688873291 6.614357948303223 0
          3.75 4.433012962341309 0 3.0087170600891113 5.149643898010254 0
          2.864197015762329 3.831125020980835 0 2 8 0
          1.7273950576782227 6.389729976654053 0 1.5482569932937622 4.574378967285156 0
          1.6611889600753784 2.800034999847412 0 0 8 0
          2 0 0 0 6 0
          0 4 0 0 2 0
          0 0 0 8 8 0
          5.868243217468262 6.172163009643555 0 3.75 3.5669870376586914 0
          4.5 4 0 5.61288595199585 4.4169921875 0
          3.5546820163726807 2.3947041034698486 0 4 0 0
          6 0 0 8 0 0
          <InformationKey name="L2_NORM_RANGE" location="vtkDataArray" length="2">
            <Value index="0">
              0
            </Value>
            <Value index="1">
              11.313708499
            </Value>
          </InformationKey>
        </DataArray>
      </Points>
      <Cells>
        <DataArray type="Int64" Name="connectivity" format="ascii" RangeMin="0" RangeMax="23">
          17 0 18 19 4 6
          4 20 1 6 4 5
          1 20 21 4 1 5
          1 21 18 1 18 3
          8 5 3 3 18 0
          1 3 5 2 7 3
          2 3 0 7 8 3
          19 6 22 6 5 9
          9 5 8 6 9 10
          10 9 14 14 9 13
          9 8 13 13 8 11
          6 10 22 10 14 15
          10 15 12 16 12 15
          12 23 22 7 11 8
          22 10 12
        </DataArray>
        <DataArray type="Int64" Name="offsets" format="ascii" RangeMin="3" RangeMax="87">
          3 6 9 12 15 18
          21 24 27 30 33 36
          39 42 45 48 51 54
          57 60 63 66 69 72
          75 78 81 84 87
        </DataArray>
        <DataArray type="UInt8" Name="types" format="ascii" RangeMin="5" RangeMax="5">
          5 5 5 5 5 5
          5 5 5 5 5 5
          5 5 5 5 5 5
          5 5 5 5 5 5
          5 5 5 5 5
        </DataArray>
      </Cells>
    </Piece>
  </UnstructuredGrid>
</VTKFile>
