<?xml version="1.0"?>
<VTKFile type="UnstructuredGrid" version="0.1" byte_order="LittleEndian" header_type="UInt32" compressor="vtkZLibDataCompressor">
  <UnstructuredGrid>
    <Piece NumberOfPoints="163" NumberOfCells="2">
      <PointData>
        <DataArray type="Float64" Name="nsi_BC" NumberOfComponents="3" format="ascii" RangeMin="0" RangeMax="100">
          0 0 0 0 0 0
          0 0 0 0 0 0
          0 0 0 0 0 0
          0 0 0 0 0 0
          0 0 0 0 0 0
          0 0 0 0 0 0
          0 0 0 0 0 0
          0 0 0 0 0 0
          0 0 0 0 0 0
          0 0 0 0 0 0
          0 0 0 0 0 0
          0 0 0 0 0 0
          0 0 0 0 0 0
          0 0 0 0 0 0
          0 0 0 0 0 0
          0 0 0 0 0 0
          0 0 0 0 0 0
          0 0 0 0 0 0
          0 0 0 0 0 0
          0 0 0 0 0 0
          0 0 0 0 0 0
          0 0 0 0 0 0
          0 0 0 0 0 0
          0 0 0 0 0 0
          0 0 0 0 0 0
          0 0 0 0 0 0
          0 0 0 0 0 0
          0 0 0 0 0 0
          0 0 0 0 0 0
          0 0 0 0 0 0
          0 0 0 0 0 0
          0 0 0 0 0 0
          0 0 0 0 0 0
          0 0 0 0 0 0
          0 0 0 0 0 0
          0 0 0 0 0 0
          0 0 0 0 0 0
          0 0 0 0 0 0
          0 0 0 0 0 0
          0 0 0 0 0 0
          0 0 0 0 0 0
          0 0 0 0 0 0
          0 0 0 0 0 0
          0 0 0 0 0 0
          0 0 0 0 0 0
          0 0 0 0 0 0
          0 0 0 0 0 0
          0 0 0 0 0 0
          0 0 0 0 0 0
          0 0 0 0 0 0
          0 0 0 0 0 0
          0 0 0 0 0 0
          0 0 0 0 0 0
          0 0 0 0 0 0
          0 0 0 0 0 0
          0 0 0 0 0 0
          0 0 0 0 0 0
          0 0 0 0 0 0
          0 0 0 0 0 0
          0 0 0 0 0 0
          0 0 0 0 0 0
          0 0 0 0 0 0
          0 0 0 0 0 0
          0 0 0 0 0 0
          0 0 0 0 0 0
          0 0 0 0 0 0
          0 0 0 0 0 0
          0 0 0 0 0 0
          0 0 0 0 0 0
          0 0 0 0 0 0
          0 0 0 0 0 0
          0 0 0 0 0 0
          0 0 0 0 0 0
          0 0 0 0 0 0
          0 0 0 0 0 0
          0 0 0 100 0 0
          100 0 0 100 0 0
          0 0 0 100 0 0
          0 0 0 100 0 0
          0 0 0 100 0 0
          100 0 0 100 0 0
          100 0 0
          <InformationKey name="L2_NORM_RANGE" location="vtkDataArray" length="2">
            <Value index="0">
              0
            </Value>
            <Value index="1">
              100
            </Value>
          </InformationKey>
        </DataArray>
        <DataArray type="Float64" Name="nsi_FIXNO" NumberOfComponents="3" format="ascii" RangeMin="1" RangeMax="1.4142135623730951">
          0 1 0 1 0 0
          -1 -1 0 -1 -1 0
          1 0 0 -1 -1 0
          -1 -1 0 -1 -1 0
          -1 -1 0 1 0 0
          -1 -1 0 -1 -1 0
          -1 -1 0 -1 -1 0
          -1 -1 0 1 0 0
          -1 -1 0 -1 -1 0
          -1 -1 0 -1 -1 0
          -1 -1 0 -1 -1 0
          1 0 0 -1 -1 0
          -1 -1 0 -1 -1 0
          -1 -1 0 0 1 0
          -1 -1 0 1 0 0
          1 0 0 -1 -1 0
          -1 -1 0 -1 -1 0
          -1 -1 0 -1 -1 0
          1 0 0 -1 -1 0
          -1 -1 0 1 0 0
          -1 -1 0 1 0 0
          -1 -1 0 -1 -1 0
          1 0 0 -1 -1 0
          -1 -1 0 -1 -1 0
          1 0 0 -1 -1 0
          1 0 0 -1 -1 0
          -1 -1 0 -1 -1 0
          -1 -1 0 1 0 0
          1 0 0 -1 -1 0
          -1 -1 0 -1 -1 0
          -1 -1 0 1 0 0
          -1 -1 0 1 0 0
          -1 -1 0 1 0 0
          -1 -1 0 -1 -1 0
          -1 -1 0 -1 -1 0
          1 0 0 -1 -1 0
          1 0 0 -1 -1 0
          -1 -1 0 -1 -1 0
          -1 -1 0 -1 -1 0
          -1 -1 0 -1 -1 0
          1 0 0 1 0 0
          -1 -1 0 -1 -1 0
          -1 -1 0 -1 -1 0
          -1 -1 0 -1 -1 0
          -1 -1 0 -1 -1 0
          -1 -1 0 -1 -1 0
          -1 -1 0 -1 -1 0
          -1 -1 0 1 0 0
          1 0 0 -1 -1 0
          -1 -1 0 1 0 0
          1 0 0 -1 -1 0
          -1 -1 0 -1 -1 0
          -1 -1 0 -1 -1 0
          -1 -1 0 1 0 0
          -1 -1 0 1 0 0
          -1 -1 0 -1 -1 0
          -1 -1 0 1 0 0
          -1 -1 0 1 0 0
          1 0 0 -1 -1 0
          -1 -1 0 -1 -1 0
          -1 -1 0 -1 -1 0
          -1 -1 0 -1 -1 0
          1 0 0 -1 -1 0
          -1 -1 0 -1 -1 0
          -1 -1 0 -1 -1 0
          -1 -1 0 -1 -1 0
          1 0 0 -1 -1 0
          -1 -1 0 -1 -1 0
          -1 -1 0 -1 -1 0
          -1 -1 0 1 0 0
          -1 -1 0 -1 -1 0
          -1 -1 0 1 0 0
          -1 -1 0 -1 -1 0
          -1 -1 0 -1 -1 0
          -1 -1 0 -1 -1 0
          -1 -1 0 1 1 0
          1 1 0 1 1 0
          -1 -1 0 1 1 0
          1 0 0 1 1 0
          -1 -1 0 1 1 0
          1 1 0 1 1 0
          1 1 0
          <InformationKey name="L2_NORM_RANGE" location="vtkDataArray" length="2">
            <Value index="0">
              1
            </Value>
            <Value index="1">
              1.4142135624
            </Value>
          </InformationKey>
        </DataArray>
        <DataArray type="Float64" Name="Velocity" NumberOfComponents="3" format="ascii" RangeMin="0.368729582228019" RangeMax="169.38438780041983">
          99.99772285048974 0 0 99.99314130621002 -4.1630507918531616e-15 0
          99.99673342130423 -0.001420640587815214 0 99.995899785315 -0.001405862508871536 0
          99.9864012438447 4.83133541961578e-7 0 100.00009164586237 0.00011163890598808734 0
          99.99093003016472 -0.011230866896066782 0 99.99907836630598 -0.004892375840805485 0
          99.98685662369556 -0.0051388603771160835 0 99.9809962358474 -7.680929120714719e-14 0
          99.99426727876731 -0.011170552854566362 0 100.0054142297873 -0.01088314439550575 0
          99.98416957562611 -0.020113426601686024 0 99.97870943446998 -0.011568942875351818 0
          100.0026508133374 0.0018164613497670956 0 99.97179841326545 1.7136496471417416e-13 0
          100.0046338160701 -0.00435649435319263 0 100.00304759601865 -0.01672403136170897 0
          99.9966191633215 -0.02236246142080489 0 99.98029913672735 -0.02180939545931082 0
          99.97258408344456 -0.00900747410977365 0 100.00655084261602 -0.002676950063158934 0
          99.9671270313737 -9.599829543083046e-14 0 99.9956699856628 -0.025003051142891586 0
          99.97168602945938 -0.031614071156141677 0 100.00680828584464 -0.015194391741607305 0
          99.95930419810907 -0.027413011300499335 0 100.00455858032093 0 0
          100.01282094597572 -0.012211154303187755 0 100.0066689106278 1.873626296185862e-14 0
          99.9453950991433 2.1666878996087977e-13 0 99.99020884200702 -0.04294291974437714 0
          100.00834619179889 -0.037538098121695285 0 99.9664564347282 -0.038758596623455155 0
          99.93979183716945 0.0038433183715884667 0 100.02574398196985 -0.010757653617632812 0
          100.01244796969357 -4.831299476258128e-7 0 99.96418127842178 -0.05925000572604944 0
          100.01843976123898 -0.052174133247062215 0 99.96481498174731 -1.190354077765369e-13 0
          99.91157208938131 -0.05534747215222868 0 100.01993138165057 -2.1114903630343232e-13 0
          100.03415997547286 -0.024989076535346655 0 99.93435062468973 -0.05905345899506109 0
          100.02736286722588 2.274804259578003e-13 0 100.01396158057534 -0.11709524137674343 0
          99.95625773052758 -0.09294513037636642 0 100.06561324612031 -0.03693279166348873 0
          99.81869840656135 2.3101222084396815e-13 0 99.86338673855576 0.006734774910593266 0
          100.05199526252315 -1.6897260140472194e-13 0 99.96673887737394 0.13731739367201623 0
          99.99836730744602 -0.22517234481690274 0 100.09286697004117 -0.07887319012702854 0
          99.79279601005074 -0.1675429365769432 0 100.09041753773755 2.809608703598164e-13 0
          100.15344551701682 -7.694184444271835e-14 0 99.68437580908522 -0.051062931088940555 0
          99.95995718695777 -0.05429927219000952 0 100.21227428268449 -0.1279406094403841 0
          100.00623778290846 -0.4731029430408906 0 100.14522936705916 -2.2678887082894125e-13 0
          99.52185136602785 -0.07755100044113283 0 100.52071576749066 1.6084038564987649e-13 0
          100.13443582090588 0.8183290387202413 0 100.31386705549065 2.2957692022806806e-13 0
          100.26865993644402 -0.37141430515559826 0 100.18096592348695 0.673377944564505 0
          99.72580648594422 -0.9563598408605065 0 98.88081670545418 -0.6827678461749311 0
          99.98452505231703 -7.329070262881929e-15 0 99.6560920092119 0.617623158205252 0
          100.40831366762472 -1.8113675877181438e-13 0 100.71702977285287 -0.6676517721416477 0
          98.29966857470404 -1.6259648473032344 0 100.59962027861259 -0.036175005142574435 0
          99.72687901576141 -1.1034913473850203 0 96.62171842179905 3.0833834325739446 0
          101.79774922279051 0.510079299346458 0 102.32911664274756 5.759837658353809 0
          97.4637587517823 -1.5167232709215058e-13 0 100.91332533452844 -3.781574233336662e-15 0
          99.32161161260794 -2.348142436243421 0 92.17447225103196 -2.175065942539789 0
          101.19678213462419 -1.4526423131086652 0 98.98844022395869 -5.62038651403122 0
          100.68033904673429 -6.89761334530823 0 92.0931670158019 3.549419486422986 0
          100.14132833821476 -2.561653097460981 0 105.41676721071363 2.8744763174087877 0
          65.0056893705559 -7.356102129140873 0 94.24489044301913 -3.982183737846093 0
          97.75050354032854 10.304122908773895 0 103.68412752361132 -6.734505255515633 0
          103.49886433223774 45.71242039037447 0 101.32782564146729 1.2982246703412578e-13 0
          5.672421907393939e-16 -0.368729582228019 0 108.13886331761782 -3.551303158996446 0
          111.48432678078477 -46.03599618826831 0 93.10959779074862 53.75688835755275 0
          101.93877892250856 5.225138370668393e-14 0 101.4788878811622 -0.9143750036109806 0
          139.96223913108167 13.847095064587249 0 100.89043535431803 -9.659355037105334 0
          111.2593026695868 -3.2794005867382663 0 104.57073563349549 -1.0817115811063827 0
          103.8910060016274 -1.9630503807131774 0 98.30567585779121 -56.75684749361192 0
          134.9461195333305 -15.250902497423581 0 83.91346529296551 -48.447495129203496 0
          105.70413000552114 -3.5630261435898007 0 115.62612617567675 -21.75715606695698 0
          107.80063940128349 -7.940830327711123 0 75.21665677392855 43.42638693286565 0
          109.55185793034875 4.95891726947123 0 96.6289392196745 -9.9074504140555e-14 0
          -5.830901065029537e-15 -4.043001051830319 0 99.71785430220437 3.1536595125705764 0
          108.15380996470273 -11.510782272543935 0 86.01131190951426 -35.96278670040671 0
          101.97140654690493 2.471071315830054 0 100.02250623588003 -10.79590316946735 0
          72.53772306982198 26.438723354311925 0 110.55324590019194 24.437231235551078 0
          119.93448515974369 -5.924148245156234e-15 0 104.06851152427853 6.575765033139472 0
          90.7875316956847 8.596883556615314 0 90.36623816532105 13.737587692509798 0
          116.33903021458995 -2.861980899443586 0 102.40299636325356 2.8469068537869546 0
          125.14155818399317 6.553148037123179 0 116.79148818852133 -10.264500450066945 0
          107.33628619892458 6.421725579096293e-14 0 109.31230407812629 3.0740220207721265 0
          107.52631583824083 4.862859450623118 0 105.15705215149788 -1.8696873170404231 0
          109.56335485854541 9.191766013093881 0 166.48220945708022 -15.466791115407306 0
          109.70053961459863 5.978186944865566 0 77.4626281945634 -2.4613906594184027e-15 0
          145.74148923462212 12.566564099636732 0 53.9467253647133 -21.683254964438873 0
          169.33163978082217 4.226890069649414 0 137.36930727252053 -5.891502145560925e-14 0
          114.96667629057988 -3.146060293852308 0 55.99888433300677 -56.1808281436324 0
          112.97511080515298 -12.222728164655038 0 52.637821087009 37.7059450464604 0
          130.9506093840647 0.8601883774094148 0 5.848403678297643 31.03744318279296 0
          17.872762463525078 0.6264207666439603 0 100 0 0
          99.99999999999999 0 0 99.99999999999999 0 0
          34.39314362771205 10.274267077108654 0 100 0 0
          27.557837097787996 3.513632905800842e-15 0 100 0 0
          21.25249297414325 42.88734279375747 0 100 0 0
          99.99999999999999 0 0 100 0 0
          100.00000000000001 0 0
          <InformationKey name="L2_NORM_RANGE" location="vtkDataArray" length="2">
            <Value index="0">
              0.36872958223
            </Value>
            <Value index="1">
              169.3843878
            </Value>
          </InformationKey>
        </DataArray>
        <DataArray type="Float64" Name="Pressure" format="ascii" RangeMin="-232073.6391112971" RangeMax="2502321.878788417">
          -16.975858576246537 685.9924767535413 -4.147469519288279 486.4945835683029 1131.5323685138428 25.90899994771462
          1038.8126548410219 -40.77114271692699 1242.155307596433 1266.5324418938253 976.8766544186219 317.2063065494658
          1309.8895714699174 1287.8655451293162 -0.6779352844459936 1265.7717183655477 -451.6200275591109 161.8289068723534
          1087.4235178174567 1504.4105897625268 1351.745655964769 -926.1724642338231 1380.576747761399 1425.9707963773399
          1900.6108181272575 -163.00790608220268 1687.4228763908613 -15.323479987797327 -1439.7450900039403 -553.2805900082458
          1786.2429160639876 1916.3069721063657 -157.87238507604343 2485.70919998287 2145.2745242618257 -1885.7280066477251
          -1451.8632478104555 2397.4256216385693 -458.8478388180956 2183.5941381358425 3186.919568869809 -1993.1792899722932
          -2711.0183775474434 2377.713009076542 -2777.2433524272055 -697.8541484154994 2958.610266746604 -3692.057108757901
          1801.8870784994215 3556.1008660303196 -3868.169775433198 2589.4600591292838 -1116.1002574508602 -4994.442519292701
          3944.6183224591077 -5177.269076876459 4722.864878478111 4212.530470842525 8810.159111007175 -6729.16612414486
          -2196.187417267589 -6908.6343237761175 2368.0600108812796 19868.61241811997 10333.572712202382 -9661.196107357682
          -9741.013837123057 26215.637572644453 -6436.800595422508 1019.2296337663429 37226.49772941455 27599.664324198864
          -12893.238554867334 -13329.532926937507 -14866.842058520095 40050.11754341476 -17632.810512707976 7615.728878497437
          42932.738444489834 24956.102949929307 24099.81209147525 -15117.294878491404 30216.317506897438 -34805.28498763866
          -23591.116301571834 -40631.01577645728 47645.37336692444 -37707.82105501788 -43327.85879921348 35692.33503242236
          -66108.06297081191 -63808.688726509536 -34639.76194772714 -62945.807477416085 -42269.08804823452 -32265.020260034362
          -27185.725607690536 73306.21460196504 -67335.74377922852 -174870.59339363128 155998.38897981704 -72837.80708669696
          -165735.0658240875 -108309.93726556169 -35889.83447340512 -67308.41904571897 204518.6153180109 -172385.65619899955
          -169044.37361285184 -195608.27169401143 -76264.32637416966 -90792.71475017758 49704.1843570199 -168017.1756864269
          -129292.27035583873 -115866.86136643025 -76896.53463824045 -129848.3917956226 419377.1783864127 -133355.06424886873
          -61987.11645429475 -125081.23649305307 -100533.5048361592 -135145.9761786234 786795.2705264846 -71978.76172931009
          -157274.26885504898 -174247.1798359388 -29486.873509969155 -106956.84828807937 711984.1617449969 -232073.6391112971
          -128609.56635843399 11789.892849008553 -191269.04921042622 99456.01436876878 -107940.70205332756 -65723.08809205824
          123268.4078138087 1820777.9745992392 50160.51985080057 1677585.8145853044 283375.60896803346 389539.1960134314
          519982.7365585362 1161576.1173559264 665333.6586996948 956059.305110024 663892.6259771902 1302590.29888076
          1421823.1312856576 2215594.3289369633 2219616.033719496 2046960.271258429 1494906.899127513 1644136.7994947664
          1556572.2608758763 1840798.701094544 1749408.0862781964 1920516.9975415969 2066171.6274363678 2116272.103497171
          2502321.878788417
        </DataArray>
      </PointData>
      <CellData>
        <DataArray type="UInt8" Name="vtkGhostType" format="ascii" RangeMin="0" RangeMax="0">
          0 0 0 0 0 0
          0 0 0 0 0 0
          0 0 0 0 0 0
          0 0 0 0 0 0
          0 0 0 0 0 0
          0 0 0 0 0 0
          0 0 0 0 0 0
          0 0 0 0 0 0
          0 0 0 0 0 0
          0 0 0 0 0 0
          0 0 0 0 0 0
          0
        </DataArray>
      </CellData>
      <Points>
        <DataArray type="Float32" Name="Points" NumberOfComponents="3" format="ascii" RangeMin="0" RangeMax="21.540659228538015">
          20 0 0 18 0 0
          20 2 0 18 2 0
          16 0 0 20 4 0
          16 2 0 18 4 0
          15.295419692993164 1.1292860507965088 0 14.916139602661133 0 0
          15.295419692993164 3.129286050796509 0 16 4 0
          14.590840339660645 2.2585721015930176 0 14.211560249328613 1.1292860507965088 0
          20 6 0 13.832269668579102 0 0
          18 6 0 15.159649848937988 4.521406173706055 0
          14.455069541931152 3.6506919860839844 0 13.77322006225586 2.4042599201202393 0
          13.393939971923828 1.27497398853302 0 16 6 0
          12.74841022491455 0 0 13.637450218200684 3.796380043029785 0
          12.955599784851074 2.54994797706604 0 14.319310188293457 5.042811870574951 0
          12.310070037841797 1.27497398853302 0 20 8 0
          15.159649848937988 6.521406173706055 0 18 8 0
          11.66454029083252 0 0 12.629960060119629 3.9079220294952393 0
          13.311809539794922 5.154354095458984 0 11.965499877929688 2.6329140663146973 0
          11.319979667663574 1.3579399585723877 0 14.074970245361328 6.521406173706055 0
          16 8 0 11.639860153198242 3.9908881187438965 0
          12.304309844970703 5.265895843505859 0 10.580679893493652 0 0
          10.975410461425781 2.7158799171447754 0 14.91532039642334 8 0
          13.067469596862793 6.63294792175293 0 10.236109733581543 1.3579399585723877 0
          13.830639839172363 8 0 11.193989753723145 5.276315212249756 0
          10.529540061950684 4.001307010650635 0 11.982789993286133 6.63294792175293 0
          9.496814727783203 0 0 9.69417953491211 2.4835739135742188 0
          12.745949745178223 8 0 8.954882621765137 1.125633955001831 0
          10.083660125732422 5.286734104156494 0 10.872469902038574 6.643366813659668 0
          9.248306274414062 3.769001007080078 0 11.661270141601562 8 0
          8.412951469421387 0 0 8.412951469421387 2.2512669563293457 0
          7.871018886566162 1.125633955001831 0 9.787784576416016 6.643366813659668 0
          8.799636840820312 5.206761837005615 0 10.576589584350586 8 0
          7.964282035827637 3.6890289783477783 0 7.329086780548096 0 0
          7.283721923828125 2.2820630073547363 0 9.491908073425293 8 0
          8.50376033782959 6.563395023345947 0 6.741789817810059 1.1564290523529053 0
          7.515613079071045 5.126791000366211 0 6.835052967071533 3.7198240756988525 0
          6.1931471824646 0 0 6.154493808746338 2.3128581047058105 0
          8.407225608825684 8 0 7.4190778732299805 6.563395023345947 0
          6.4895339012146 4.672304153442383 0 5.605851173400879 1.1564290523529053 0
          6.619455814361572 5.481435775756836 0 5.808973789215088 3.2653369903564453 0
          5.441469192504883 1.9511979818344116 0 5.364596843719482 2.658724069595337 0
          5.057207107543945 0 0 7.322544097900391 8 0
          4.892826080322266 0.7947694063186646 0 5.4634552001953125 4.2178168296813965 0
          6.522921085357666 6.918041229248047 0 5.593377113342285 5.026949882507324 0
          4.728445053100586 1.5895390510559082 0 5.019076824188232 3.611203908920288 0
          5.723298072814941 5.8360819816589355 0 4.651572227478027 2.297065019607544 0
          4.981727123260498 4.1089091300964355 0 5.019076824188232 4.6066131591796875 0
          4.574699878692627 3.0045900344848633 0 5.148999214172363 5.415746212005615 0
          4.537350177764893 3.5022950172424316 0 6.185208797454834 8 0
          4.5 4 0 4.054769992828369 2.0480599403381348 0
          4.537350177764893 4.497704982757568 0 4.25 3.5669870376586914 0
          3.838850975036621 0 0 5.385585784912109 6.918041229248047 0
          4.162350177764893 3.2857890129089355 0 4.574699878692627 4.995409965515137 0
          3.977897882461548 2.755584955215454 0 4.978107929229736 6.251728057861328 0
          3.674468994140625 0.7947694063186646 0 4.25 4.433012962341309 0
          4.162350177764893 4.7142109870910645 0 3.75 3.5669870376586914 0
          4.403809070587158 5.83139181137085 0 3.5655479431152344 3.0367839336395264 0
          3.3810958862304688 2.5065810680389404 0 3.75 4.433012962341309 0
          3.8271689414978027 5.076944828033447 0 5.0478739738464355 8 0
          3.5 4 0 4.6403961181640625 7.333686828613281 0
          3.0007948875427246 1.253290057182312 0 3.314276933670044 3.7099781036376953 0
          4.232917785644531 6.667374134063721 0 3.129826068878174 3.179774045944214 0
          3.314276933670044 4.1429901123046875 0 3.4148190021514893 4.795746803283691 0
          2.6204938888549805 0 0 3.656277894973755 5.912927150726318 0
          2.8785550594329834 3.8529679775238037 0 2.979095935821533 4.50572395324707 0
          2.5717179775238037 2.692473888397217 0 3.079637050628662 5.158480167388916 0
          2.1914169788360596 1.439182996749878 0 2.3204469680786133 3.3656671047210693 0
          3.8300790786743164 8 0 3.4226009845733643 7.333686828613281 0
          2.2134060859680176 4.213673114776611 0 2.877134084701538 6.474040985107422 0
          2.3139469623565674 4.866429805755615 0 1.7623389959335327 2.8783669471740723 0
          2.300493001937866 5.7195940017700195 0 1.3102469444274902 0 0
          1.6552979946136475 3.7263729572296143 0 1.3102469444274902 1.0974390506744385 0
          1.5482569932937622 4.574378967285156 0 2.6122829914093018 8 0
          1.534803032875061 5.4275431632995605 0 0.8811694979667664 2.5366220474243164 0
          2.0668160915374756 7.140354156494141 0 0.8811694979667664 3.492302894592285 0
          1.5213489532470703 6.280706882476807 0 0.7741286158561707 4.340309143066406 0
          0.7741286158561707 5.2238640785217285 0 0 0 0
          0 1.0974390506744385 0 0 2.194878101348877 0
          0.7606747150421143 6.077027797698975 0 0 3.1505589485168457 0
          1.306141972541809 8 0 0 4.106238842010498 0
          0.7606747150421143 7.140354156494141 0 0 4.98979377746582 0
          0 5.873348236083984 0 0 6.936674118041992 0
          0 8 0
          <InformationKey name="L2_NORM_RANGE" location="vtkDataArray" length="2">
            <Value index="0">
              0
            </Value>
            <Value index="1">
              21.540659229
            </Value>
          </InformationKey>
        </DataArray>
      </Points>
      <Cells>
        <DataArray type="Int64" Name="connectivity" format="ascii" RangeMin="0" RangeMax="36">
          27 36 11 5 29 21
          7 14 16 5 11 4
          0 7 6 1 2 3
        </DataArray>
        <DataArray type="Int64" Name="offsets" format="ascii" RangeMin="9" RangeMax="18">
          9 18
        </DataArray>
        <DataArray type="UInt8" Name="types" format="ascii" RangeMin="28" RangeMax="28">
          28 28
        </DataArray>
      </Cells>
    </Piece>
  </UnstructuredGrid>
</VTKFile>
