<?xml version="1.0"?>
<VTKFile type="UnstructuredGrid" version="0.1" byte_order="LittleEndian" header_type="UInt32" compressor="vtkZLibDataCompressor">
  <UnstructuredGrid>
    <Piece NumberOfPoints="163" NumberOfCells="2">
      <PointData>
        <DataArray type="Float64" Name="nsi_BC" NumberOfComponents="3" format="ascii" RangeMin="0" RangeMax="100">
          0 0 0 0 0 0
          0 0 0 0 0 0
          0 0 0 0 0 0
          0 0 0 0 0 0
          0 0 0 0 0 0
          0 0 0 0 0 0
          0 0 0 0 0 0
          0 0 0 0 0 0
          0 0 0 0 0 0
          0 0 0 0 0 0
          0 0 0 0 0 0
          0 0 0 0 0 0
          0 0 0 0 0 0
          0 0 0 0 0 0
          0 0 0 0 0 0
          0 0 0 0 0 0
          0 0 0 0 0 0
          0 0 0 0 0 0
          0 0 0 0 0 0
          0 0 0 0 0 0
          0 0 0 0 0 0
          0 0 0 0 0 0
          0 0 0 0 0 0
          0 0 0 0 0 0
          0 0 0 0 0 0
          0 0 0 0 0 0
          0 0 0 0 0 0
          0 0 0 0 0 0
          0 0 0 0 0 0
          0 0 0 0 0 0
          0 0 0 0 0 0
          0 0 0 0 0 0
          0 0 0 0 0 0
          0 0 0 0 0 0
          0 0 0 0 0 0
          0 0 0 0 0 0
          0 0 0 0 0 0
          0 0 0 0 0 0
          0 0 0 0 0 0
          0 0 0 0 0 0
          0 0 0 0 0 0
          0 0 0 0 0 0
          0 0 0 0 0 0
          0 0 0 0 0 0
          0 0 0 0 0 0
          0 0 0 0 0 0
          0 0 0 0 0 0
          0 0 0 0 0 0
          0 0 0 0 0 0
          0 0 0 0 0 0
          0 0 0 0 0 0
          0 0 0 0 0 0
          0 0 0 0 0 0
          0 0 0 0 0 0
          0 0 0 0 0 0
          0 0 0 0 0 0
          0 0 0 0 0 0
          0 0 0 0 0 0
          0 0 0 0 0 0
          0 0 0 0 0 0
          0 0 0 0 0 0
          0 0 0 0 0 0
          0 0 0 0 0 0
          0 0 0 0 0 0
          0 0 0 0 0 0
          0 0 0 0 0 0
          0 0 0 0 0 0
          0 0 0 0 0 0
          0 0 0 0 0 0
          0 0 0 0 0 0
          0 0 0 0 0 0
          0 0 0 0 0 0
          0 0 0 0 0 0
          0 0 0 0 0 0
          0 0 0 0 0 0
          0 0 0 100 0 0
          100 0 0 100 0 0
          0 0 0 100 0 0
          0 0 0 100 0 0
          0 0 0 100 0 0
          100 0 0 100 0 0
          100 0 0
          <InformationKey name="L2_NORM_RANGE" location="vtkDataArray" length="2">
            <Value index="0">
              0
            </Value>
            <Value index="1">
              100
            </Value>
          </InformationKey>
        </DataArray>
        <DataArray type="Float64" Name="nsi_FIXNO" NumberOfComponents="3" format="ascii" RangeMin="1" RangeMax="1.4142135623730951">
          0 1 0 1 0 0
          -1 -1 0 -1 -1 0
          1 0 0 -1 -1 0
          -1 -1 0 -1 -1 0
          -1 -1 0 1 0 0
          -1 -1 0 -1 -1 0
          -1 -1 0 -1 -1 0
          -1 -1 0 1 0 0
          -1 -1 0 -1 -1 0
          -1 -1 0 -1 -1 0
          -1 -1 0 -1 -1 0
          1 0 0 -1 -1 0
          -1 -1 0 -1 -1 0
          -1 -1 0 0 1 0
          -1 -1 0 1 0 0
          1 0 0 -1 -1 0
          -1 -1 0 -1 -1 0
          -1 -1 0 -1 -1 0
          1 0 0 -1 -1 0
          -1 -1 0 1 0 0
          -1 -1 0 1 0 0
          -1 -1 0 -1 -1 0
          1 0 0 -1 -1 0
          -1 -1 0 -1 -1 0
          1 0 0 -1 -1 0
          1 0 0 -1 -1 0
          -1 -1 0 -1 -1 0
          -1 -1 0 1 0 0
          1 0 0 -1 -1 0
          -1 -1 0 -1 -1 0
          -1 -1 0 1 0 0
          -1 -1 0 1 0 0
          -1 -1 0 1 0 0
          -1 -1 0 -1 -1 0
          -1 -1 0 -1 -1 0
          1 0 0 -1 -1 0
          1 0 0 -1 -1 0
          -1 -1 0 -1 -1 0
          -1 -1 0 -1 -1 0
          -1 -1 0 -1 -1 0
          1 0 0 1 0 0
          -1 -1 0 -1 -1 0
          -1 -1 0 -1 -1 0
          -1 -1 0 -1 -1 0
          -1 -1 0 -1 -1 0
          -1 -1 0 -1 -1 0
          -1 -1 0 -1 -1 0
          -1 -1 0 1 0 0
          1 0 0 -1 -1 0
          -1 -1 0 1 0 0
          1 0 0 -1 -1 0
          -1 -1 0 -1 -1 0
          -1 -1 0 -1 -1 0
          -1 -1 0 1 0 0
          -1 -1 0 1 0 0
          -1 -1 0 -1 -1 0
          -1 -1 0 1 0 0
          -1 -1 0 1 0 0
          1 0 0 -1 -1 0
          -1 -1 0 -1 -1 0
          -1 -1 0 -1 -1 0
          -1 -1 0 -1 -1 0
          1 0 0 -1 -1 0
          -1 -1 0 -1 -1 0
          -1 -1 0 -1 -1 0
          -1 -1 0 -1 -1 0
          1 0 0 -1 -1 0
          -1 -1 0 -1 -1 0
          -1 -1 0 -1 -1 0
          -1 -1 0 1 0 0
          -1 -1 0 -1 -1 0
          -1 -1 0 1 0 0
          -1 -1 0 -1 -1 0
          -1 -1 0 -1 -1 0
          -1 -1 0 -1 -1 0
          -1 -1 0 1 1 0
          1 1 0 1 1 0
          -1 -1 0 1 1 0
          1 0 0 1 1 0
          -1 -1 0 1 1 0
          1 1 0 1 1 0
          1 1 0
          <InformationKey name="L2_NORM_RANGE" location="vtkDataArray" length="2">
            <Value index="0">
              1
            </Value>
            <Value index="1">
              1.4142135624
            </Value>
          </InformationKey>
        </DataArray>
        <DataArray type="Float64" Name="Velocity" NumberOfComponents="3" format="ascii" RangeMin="2.490029089666905" RangeMax="373.1606445125408">
          99.95940661962652 0 0 99.96415801168723 -4.161844119819086e-15 0
          99.97564171202424 0.0007985664108307589 0 99.96912963059594 -0.02047570947161148 0
          99.97320095105962 4.830697582457042e-7 0 100.0074393843648 -0.00005468543828435202 0
          99.96499798373782 -0.02541088000990044 0 99.99381772314128 -0.03594017688334361 0
          99.97914875729111 -0.00720339632803757 0 99.97420098012066 -7.68040708273191e-14 0
          99.95768408120449 -0.04360839724569132 0 99.96813779852886 -0.07816024913836372 0
          99.97102845614438 -0.009025347762840141 0 99.98124438379523 -0.006480019972173068 0
          100.0243997339671 -0.0011780255512672255 0 99.98304608253693 1.7138424471591883e-13 0
          100.02777939301424 -0.015074389528422216 0 99.96808730067579 -0.11139619314784 0
          99.95784609448128 -0.07234215039727587 0 99.95505370452736 0.0025889378317032197 0
          99.95633456247242 0.00409638619075281 0 100.03071258354089 -0.053848645822199614 0
          99.9374350640162 -9.596978227516666e-14 0 99.92581349882983 -0.07775891395579038 0
          99.91997581390592 0.026483638273674615 0 99.98296088272787 -0.15760668286145574 0
          99.9233184344348 0.010654049166987534 0 100.02555030584821 0 0
          100.0488418767244 -0.06560098912336798 0 100.04158451373466 1.8742804404828457e-14 0
          99.90459709204424 2.1658034511735095e-13 0 99.94624478643095 -0.1311383146299363 0
          100.00270606682307 -0.23703345456226543 0 99.90989981238886 0.02808847392276448 0
          99.8970814792292 0.01700080627040279 0 100.08085155985088 -0.09809660971973244 0
          100.06901487880577 -4.834032052891491e-7 0 99.90209232023949 -0.1738214310301487 0
          100.0312029433245 -0.3369047256833255 0 99.954775713034 -1.190234532858965e-13 0
          99.87369575581033 0.05214180406335345 0 100.06781792888319 -2.1125012813743374e-13 0
          100.11768555483013 -0.14528437424405638 0 99.95486359693223 0.03303556223386295 0
          100.13811566161667 2.277322979668372e-13 0 100.04676819927579 -0.4860399762735028 0
          99.90384357484436 -0.271105635034786 0 100.17150625479326 -0.1912610166380091 0
          100.05251654692324 2.3155335039926053e-13 0 99.83658096864701 0.12491627922145199 0
          100.14323923294455 -1.691266985919309e-13 0 99.82259622991842 0.14482968560317033 0
          100.04945185041379 -0.6867480533603612 0 100.21358021068613 -0.27865371210737067 0
          99.78361006323757 -0.24897915812459814 0 100.24168270336213 2.8138548236198913e-13 0
          99.2513519243837 -7.624882040825958e-14 0 99.66919516888947 0.2373780778053458 0
          99.02217363762065 -0.059161110758509494 0 100.40000798226129 -0.40066295168696797 0
          100.21250638875767 -1.0541975960986747 0 100.32314516337078 -2.2719177891356157e-13 0
          99.93258631975186 -0.49978544388350343 0 98.11862916289328 1.569968740622601e-13 0
          98.76791691096378 -0.09740598694531855 0 100.6513743551327 2.303493347374544e-13 0
          100.61401263799598 -0.6867258797037721 0 98.21190977944752 -0.3484333826989783 0
          100.39897425717527 -1.4271431258516714 0 99.12732968441242 -0.9069104451305066 0
          99.97984137831281 -7.328726939994239e-15 0 97.7502322552823 -0.16227579984592921 0
          100.73367199772565 -1.8172370572073913e-13 0 100.82949353240292 -0.9788990800956299 0
          100.41911216214498 -2.5840183233269727 0 100.14011717044832 0.624299806828958 0
          101.96056479710887 -1.9967184567166214 0 97.67511613386978 -2.611005722944867 0
          100.36567537240876 -0.14210085076933865 0 103.15688814326336 0.7953840442446847 0
          103.17714471149202 -1.6056345293403124e-13 0 101.04449769556186 -3.786489719165372e-15 0
          102.5537704261269 1.6922859048481769 0 100.45863300050655 -4.169963445181111 0
          103.22665563295595 -0.9866794289789595 0 101.38295577952294 -4.272304760656652 0
          99.56611684481686 1.0558203432672144 0 99.99782558952393 1.703917767679286 0
          104.78144715327608 -3.5524328052458714 0 107.52850464060612 -2.2733271422425787 0
          77.13954448160416 -4.8125637444259155 0 101.26040546099898 -10.397174736217949 0
          111.02229198568102 -3.598648149357359 0 109.14642345343191 -6.233458294604361 0
          87.0232706788388 8.533870732338073 0 105.43063418328211 1.3507903622718966e-13 0
          -3.830583777121598e-15 2.490029089666905 0 97.12159921580042 -13.034568145734852 0
          89.72939807795638 -19.32477367379215 0 323.1665422193857 186.58041859471973 0
          70.17219680360972 3.596859232062814e-14 0 108.93438537165275 -2.346455282910995 0
          136.7985470998301 -5.880908082872338 0 111.35606587098346 -5.0200250157670325 0
          112.46289542130717 -21.92183877415414 0 102.7751143227556 -4.243751831355951 0
          69.7675337832834 -5.23247910970349 0 313.481575557389 -180.98879663577216 0
          126.45060396614554 -8.591658558646031 0 94.89691217331746 -54.78879550787257 0
          108.93915122284852 1.1067112122136677 0 115.82032586976129 -39.89080382430774 0
          103.79226712320451 -37.996560894553625 0 92.87329628959495 53.62045952832868 0
          111.58467061302508 10.531719331342401 0 112.76583199165998 -1.156198027091255e-13 0
          2.5549255945055797e-14 17.71521545423775 0 105.23536801325281 -4.772544582984892 0
          70.48043488696658 -23.333904767307217 0 98.05388216548408 -36.63665539038044 0
          99.6483188368311 -3.40303998233901 0 109.14746308902704 -25.145253201209044 0
          91.59801426775948 22.475109587353472 0 114.36776608644277 28.741345824278824 0
          35.8973796809496 -1.7731463853732784e-15 0 99.68203452459193 7.100068596496953 0
          112.73097600695519 -1.807862726469466 0 109.9942154179057 12.010380339711674 0
          109.89599198047426 -56.555706687969234 0 104.61277312236689 22.959978910243308 0
          59.70697729406356 -49.300948656281435 0 111.99212851931998 -12.818557844948828 0
          86.62541057397084 5.182633334747896e-14 0 74.70513271099662 -8.734058097866864 0
          80.37928935565697 17.31945118724593 0 77.68768134582479 22.562789927097697 0
          73.42374445314135 34.91380002104643 0 113.3204652596446 -62.45946957658202 0
          75.6764688039193 26.439644393450976 0 21.357840467651158 -6.786496954426144e-16 0
          50.208010960257525 10.314137455628952 0 -24.34893849209675 -49.93143784278709 0
          44.89398503646271 28.706898679515234 0 58.158888365874645 -2.494321492873477e-14 0
          19.292825218862617 23.441058489370562 0 -78.29534240140856 -152.90027703187206 0
          44.47094718591006 24.286418018537034 0 -77.02644282156189 72.09327489109091 0
          47.14554497716745 24.086837753723444 0 -132.06762274285165 54.05827370403449 0
          -112.70033013630336 15.67939228355408 0 100 0 0
          100 0 0 100.00000000000001 0 0
          -104.16284485022106 9.3656983433753 0 100 0 0
          -74.34319751674457 -9.478781088311616e-15 0 99.99999999999999 0 0
          -63.952319600672126 112.1008652094147 0 100 0 0
          100.00000000000001 0 0 100 0 0
          100.00000000000001 0 0
          <InformationKey name="L2_NORM_RANGE" location="vtkDataArray" length="2">
            <Value index="0">
              2.4900290897
            </Value>
            <Value index="1">
              373.16064451
            </Value>
          </InformationKey>
        </DataArray>
        <DataArray type="Float64" Name="Pressure" format="ascii" RangeMin="-17.21596318454249" RangeMax="18720839.15963061">
          8.031011631770525 1999227.8808242625 2.5497685014852323 1999444.3738121 3998588.793206595 -17.21596318454249
          3998773.262521489 2000031.045567913 4703006.487950347 5082167.72542672 4703492.145076651 3999697.702815038
          5407548.767676302 5786640.5026341425 0.8360445671132766 6165811.452341234 2000522.1196575677 4840276.34190868
          5543775.518413881 6224873.978125442 6604021.2502466105 4001112.5202333475 7249234.593602171 6361052.235451711
          7041970.616360188 5681062.135912073 7687221.350676433 12.470092478964943 4842093.633576188 2000655.5261628218
          8332263.223431062 7368003.470022054 6688681.08231915 8031233.461178515 8676436.558393031 5927416.083163314
          4001710.6741495 8357507.425027303 7696666.1612537205 9415296.07821202 9020189.357097581 5087095.555538709
          6936039.628190864 9759494.786705364 6172817.669868788 8807431.335943468 9466799.861520715 8022195.168006023
          10499083.945687577 10299895.660382189 7259010.07617135 11039658.656317336 9918431.743323399 9134678.463181587
          10745562.753246218 8345696.75130835 11579696.669564933 11578427.295241846 12117256.863025589 10222483.351990297
          11203345.180518847 9433310.78012446 12027418.454913054 12650367.315412682 12699394.445206843 10522914.876104726
          11512473.799473507 13230973.637958068 12490230.499349002 13151265.644008683 13773453.302480863 13809465.290947756
          11615135.879842008 12604836.073917866 13512507.887713226 14357535.367494298 13400643.192297721 14155923.759864368
          14519821.574467422 14597469.341274465 14923686.767560717 12709282.627543136 15081569.586690523 14520770.925128588
          13521745.849119179 14430953.894261353 15246114.312076148 14945469.4899365 14332577.958957348 15334879.499172991
          14978688.503415834 14993504.977397636 15434880.167859228 14918371.738942558 15388860.58496684 13880205.329232253
          15273019.231210003 15928525.227250256 15414592.616799 15765392.079212291 15995306.98462592 14725670.360926973
          16020888.765101619 15531478.16820553 16128541.8980209 15131108.583024811 16129944.206402943 15772633.619563092
          16042284.704090536 16696195.820828123 15731136.25117055 16692721.848451674 16708611.179151613 16645759.09041518
          16407213.52007675 15115183.229923867 17057535.79118084 15538201.184229568 16663046.938431729 17154515.42388607
          15905243.929408167 17226700.01310666 17159634.19298505 16915924.517623466 16641399.381584637 16513576.075694503
          17598318.856982037 17449730.463058516 17658413.848369047 17206067.49903631 17282603.133066908 18182817.736585945
          16338013.444840614 16644324.055812128 18228053.89511443 17127103.575097315 17984918.037997298 18674616.597293727
          17745328.306947093 16797520.44050673 18720839.15963061 17008425.5617968 18487237.002021316 17195542.007423997
          18218737.222720988 18237293.050885603 17481764.994666252 18598754.078080434 18044210.19533202 18026924.96699486
          17789282.309312947 16936250.672417052 16795346.739693776 16988327.33359912 17704924.798880626 17835632.949573226
          17034972.004596263 17100365.101135764 17155136.847682923 16890010.019264575 16794530.708142083 16687759.67645682
          15681827.8154293
        </DataArray>
      </PointData>
      <CellData>
        <DataArray type="UInt8" Name="vtkGhostType" format="ascii" RangeMin="0" RangeMax="0">
          0 0 0 0 0 0
          0 0 0 0 0 0
          0 0 0 0 0 0
          0 0 0 0 0 0
          0 0 0 0 0 0
          0 0 0 0 0 0
          0 0 0 0 0 0
          0 0 0 0 0 0
          0 0 0 0 0 0
          0 0 0 0 0 0
          0 0 0 0 0 0
          0
        </DataArray>
      </CellData>
      <Points>
        <DataArray type="Float32" Name="Points" NumberOfComponents="3" format="ascii" RangeMin="0" RangeMax="21.540659228538015">
          20 0 0 18 0 0
          20 2 0 18 2 0
          16 0 0 20 4 0
          16 2 0 18 4 0
          15.295419692993164 1.1292860507965088 0 14.916139602661133 0 0
          15.295419692993164 3.129286050796509 0 16 4 0
          14.590840339660645 2.2585721015930176 0 14.211560249328613 1.1292860507965088 0
          20 6 0 13.832269668579102 0 0
          18 6 0 15.159649848937988 4.521406173706055 0
          14.455069541931152 3.6506919860839844 0 13.77322006225586 2.4042599201202393 0
          13.393939971923828 1.27497398853302 0 16 6 0
          12.74841022491455 0 0 13.637450218200684 3.796380043029785 0
          12.955599784851074 2.54994797706604 0 14.319310188293457 5.042811870574951 0
          12.310070037841797 1.27497398853302 0 20 8 0
          15.159649848937988 6.521406173706055 0 18 8 0
          11.66454029083252 0 0 12.629960060119629 3.9079220294952393 0
          13.311809539794922 5.154354095458984 0 11.965499877929688 2.6329140663146973 0
          11.319979667663574 1.3579399585723877 0 14.074970245361328 6.521406173706055 0
          16 8 0 11.639860153198242 3.9908881187438965 0
          12.304309844970703 5.265895843505859 0 10.580679893493652 0 0
          10.975410461425781 2.7158799171447754 0 14.91532039642334 8 0
          13.067469596862793 6.63294792175293 0 10.236109733581543 1.3579399585723877 0
          13.830639839172363 8 0 11.193989753723145 5.276315212249756 0
          10.529540061950684 4.001307010650635 0 11.982789993286133 6.63294792175293 0
          9.496814727783203 0 0 9.69417953491211 2.4835739135742188 0
          12.745949745178223 8 0 8.954882621765137 1.125633955001831 0
          10.083660125732422 5.286734104156494 0 10.872469902038574 6.643366813659668 0
          9.248306274414062 3.769001007080078 0 11.661270141601562 8 0
          8.412951469421387 0 0 8.412951469421387 2.2512669563293457 0
          7.871018886566162 1.125633955001831 0 9.787784576416016 6.643366813659668 0
          8.799636840820312 5.206761837005615 0 10.576589584350586 8 0
          7.964282035827637 3.6890289783477783 0 7.329086780548096 0 0
          7.283721923828125 2.2820630073547363 0 9.491908073425293 8 0
          8.50376033782959 6.563395023345947 0 6.741789817810059 1.1564290523529053 0
          7.515613079071045 5.126791000366211 0 6.835052967071533 3.7198240756988525 0
          6.1931471824646 0 0 6.154493808746338 2.3128581047058105 0
          8.407225608825684 8 0 7.4190778732299805 6.563395023345947 0
          6.4895339012146 4.672304153442383 0 5.605851173400879 1.1564290523529053 0
          6.619455814361572 5.481435775756836 0 5.808973789215088 3.2653369903564453 0
          5.441469192504883 1.9511979818344116 0 5.364596843719482 2.658724069595337 0
          5.057207107543945 0 0 7.322544097900391 8 0
          4.892826080322266 0.7947694063186646 0 5.4634552001953125 4.2178168296813965 0
          6.522921085357666 6.918041229248047 0 5.593377113342285 5.026949882507324 0
          4.728445053100586 1.5895390510559082 0 5.019076824188232 3.611203908920288 0
          5.723298072814941 5.8360819816589355 0 4.651572227478027 2.297065019607544 0
          4.981727123260498 4.1089091300964355 0 5.019076824188232 4.6066131591796875 0
          4.574699878692627 3.0045900344848633 0 5.148999214172363 5.415746212005615 0
          4.537350177764893 3.5022950172424316 0 6.185208797454834 8 0
          4.5 4 0 4.054769992828369 2.0480599403381348 0
          4.537350177764893 4.497704982757568 0 4.25 3.5669870376586914 0
          3.838850975036621 0 0 5.385585784912109 6.918041229248047 0
          4.162350177764893 3.2857890129089355 0 4.574699878692627 4.995409965515137 0
          3.977897882461548 2.755584955215454 0 4.978107929229736 6.251728057861328 0
          3.674468994140625 0.7947694063186646 0 4.25 4.433012962341309 0
          4.162350177764893 4.7142109870910645 0 3.75 3.5669870376586914 0
          4.403809070587158 5.83139181137085 0 3.5655479431152344 3.0367839336395264 0
          3.3810958862304688 2.5065810680389404 0 3.75 4.433012962341309 0
          3.8271689414978027 5.076944828033447 0 5.0478739738464355 8 0
          3.5 4 0 4.6403961181640625 7.333686828613281 0
          3.0007948875427246 1.253290057182312 0 3.314276933670044 3.7099781036376953 0
          4.232917785644531 6.667374134063721 0 3.129826068878174 3.179774045944214 0
          3.314276933670044 4.1429901123046875 0 3.4148190021514893 4.795746803283691 0
          2.6204938888549805 0 0 3.656277894973755 5.912927150726318 0
          2.8785550594329834 3.8529679775238037 0 2.979095935821533 4.50572395324707 0
          2.5717179775238037 2.692473888397217 0 3.079637050628662 5.158480167388916 0
          2.1914169788360596 1.439182996749878 0 2.3204469680786133 3.3656671047210693 0
          3.8300790786743164 8 0 3.4226009845733643 7.333686828613281 0
          2.2134060859680176 4.213673114776611 0 2.877134084701538 6.474040985107422 0
          2.3139469623565674 4.866429805755615 0 1.7623389959335327 2.8783669471740723 0
          2.300493001937866 5.7195940017700195 0 1.3102469444274902 0 0
          1.6552979946136475 3.7263729572296143 0 1.3102469444274902 1.0974390506744385 0
          1.5482569932937622 4.574378967285156 0 2.6122829914093018 8 0
          1.534803032875061 5.4275431632995605 0 0.8811694979667664 2.5366220474243164 0
          2.0668160915374756 7.140354156494141 0 0.8811694979667664 3.492302894592285 0
          1.5213489532470703 6.280706882476807 0 0.7741286158561707 4.340309143066406 0
          0.7741286158561707 5.2238640785217285 0 0 0 0
          0 1.0974390506744385 0 0 2.194878101348877 0
          0.7606747150421143 6.077027797698975 0 0 3.1505589485168457 0
          1.306141972541809 8 0 0 4.106238842010498 0
          0.7606747150421143 7.140354156494141 0 0 4.98979377746582 0
          0 5.873348236083984 0 0 6.936674118041992 0
          0 8 0
          <InformationKey name="L2_NORM_RANGE" location="vtkDataArray" length="2">
            <Value index="0">
              0
            </Value>
            <Value index="1">
              21.540659229
            </Value>
          </InformationKey>
        </DataArray>
      </Points>
      <Cells>
        <DataArray type="Int64" Name="connectivity" format="ascii" RangeMin="0" RangeMax="36">
          27 36 11 5 29 21
          7 14 16 5 11 4
          0 7 6 1 2 3
        </DataArray>
        <DataArray type="Int64" Name="offsets" format="ascii" RangeMin="9" RangeMax="18">
          9 18
        </DataArray>
        <DataArray type="UInt8" Name="types" format="ascii" RangeMin="28" RangeMax="28">
          28 28
        </DataArray>
      </Cells>
    </Piece>
  </UnstructuredGrid>
</VTKFile>
