<?xml version="1.0"?>
<VTKFile type="UnstructuredGrid" version="0.1" byte_order="LittleEndian" header_type="UInt32" compressor="vtkZLibDataCompressor">
  <UnstructuredGrid>
    <Piece NumberOfPoints="36" NumberOfCells="50">
      <PointData>
        <DataArray type="Float64" Name="Velocity" NumberOfComponents="3" format="ascii" RangeMin="0" RangeMax="0.011819940003198939">
          0 0 0 0 0 0
          0 0 0 0 0 0
          0 0 0 0.0005197743016031665 -0.009360095313915733 0
          0.0014330762288632753 -0.007589111965299802 0 0.0018712366450968484 -0.0046013696089875445 0
          0.0015140043803333503 -0.0015197268619286512 0 0 0 0
          0.0016281047499068597 -0.011698702936161664 0 0.004413438893727685 -0.009479095536318202 0
          0.005729223457505367 -0.005739334918816723 0 0.004591658335281898 -0.0018826325674552867 0
          0 0 0 0.002704025168882825 -0.009021787299698053 0
          0.007307991596254134 -0.007307434283500541 0 0.00947586204076977 -0.004420400143852187 0
          0.007581493027550687 -0.0014427242425978173 0 0 0 0
          0.0033492179927059394 -0.0033393819403164924 0 0.009036807746845121 -0.0027021770866876493 0
          0.011707255267283756 -0.0016282370177217067 0 0.00935810094878352 -0.0005199204618267538 0
          0 0 0 0 0 0
          -0.0005486759444668809 -0.009351666137224914 0 -0.0016460034940472257 -0.011692288867534963 0
          -0.002712818495247718 -0.009018232146525106 0 -0.0033397451600800285 -0.003342325890238426 0
          0.003346408769060015 0.003344870807164288 0 0.009021472733017608 0.002718703353558808 0
          0.011696817561821619 0.0016535350552642873 0 0.00935309030097754 0.0005530914175241173 0
          0 0 0 -0.0033344985941054684 0.003345373878974247 0
          <InformationKey name="L2_NORM_RANGE" location="vtkDataArray" length="2">
            <Value index="0">
              0
            </Value>
            <Value index="1">
              0.011819940003
            </Value>
          </InformationKey>
        </DataArray>
        <DataArray type="Float64" Name="Pressure" format="ascii" RangeMin="10" RangeMax="10.01880956910989">
          10 10 10 10 10 10.001192731737328
          10.000813547218442 10.000425193421867 10.000120455961028 10 10.004210153338207 10.00284645523829
          10.0014745326246 10.000416063431368 10 10.008128896523457 10.005488628252415 10.002843834219345
          10.00080943556984 10 10.012049290429301 10.008132755718702 10.004222597852833 10.001218968193776
          10 10 10.001511625528442 10.005277913056654 10.010171047710534 10.01505510308129
          10.015050693452132 10.01014719461934 10.005248117360322 10.00149073248751 10 10.01880956910989
        </DataArray>
        <DataArray type="Float64" Name="Temperature" format="ascii" RangeMin="0.03056139305585406" RangeMax="0.03424657534246575">
          0.03424657534246575 0.03424657534246575 0.03424657534246575 0.03424657534246575 0.03424657534246575 0.03265786345817659
          0.03280917729179906 0.033117359580028205 0.03359164101455322 0.03424657534246575 0.031566696904203405 0.03181255694709115
          0.03232056992922643 0.033117348032492604 0.03424657534246575 0.03088510168166731 0.031185334702663364 0.0318125547514109
          0.03280917175098223 0.03424657534246575 0.03056139305585406 0.030885106334809006 0.03156671061165375 0.03265789071062986
          0.03424657534246575 0.03424657534246575 0.03265886090281813 0.03157003365749604 0.03089138182932354 0.030570578679510567
          0.030570574954775193 0.030891361720948453 0.03157000955207162 0.03265884662111005 0.03424657534246575 0.030582058347828133
        </DataArray>
        <DataArray type="Float64" Name="Density" format="ascii" RangeMin="1" RangeMax="1.1219331518380808">
          1 1 1 1 1 1.0487722224713065
          1.0438957721636555 1.0341413662994776 1.0195092239775692 1 1.0853525086830862 1.076817670890669
          1.059746940933596 1.0341407827591989 1 1.10973939417316 1.098765568536183 1.0768174630562137
          1.0438955192784818 1 1.1219331518380808 1.1097396549023066 1.0853533874818146 1.0487740985649832
          1 1 1.0487736312709273 1.0853536223280036 1.1097401821338178 1.1219327666064012
          1.121932409316194 1.109738260120888 1.0853512188714545 1.0487718990226378 1 1.1219320584897963
        </DataArray>
        <DataArray type="Float64" Name="Momentum" NumberOfComponents="3" format="ascii" RangeMin="0" RangeMax="0.01282881192230378">
          0 0 0 0 0 0
          0 0 0 0 0 0
          0 0 0 0.0005451248494758241 -0.009816607964918664 0
          0.0014959822164986082 -0.007922241895053073 0 0.0019351232208301055 -0.004758466654287272 0
          0.0015435414308922946 -0.0015493755536627456 0 0 0 0
          0.0017670675747102588 -0.012697216580101247 0 0.0047524689901621365 -0.010207257577568301 0
          0.006071527033016313 -0.00608224262320939 0 0.004748421145011222 -0.0019469071169561703 0
          0 0 0 0.0030007632527450025 -0.010011832772326026 0
          0.008029769541115821 -0.008029157185051268 0 0.010203773723012378 -0.004759964068596234 0
          0.007914286600901214 -0.0015060533724023028 0 0 0 0
          0.003757598698749385 -0.003746563305490448 0 0.010028503910402397 -0.002998713067665672 0
          0.012706509162460742 -0.0017672125628075419 0 0.00981453388684055 -0.0005452791136778435 0
          0 0 0 0 0 0
          -0.0005754368626695363 -0.009807780853170738 0 -0.001786495854628707 -0.012690268075684463 0
          -0.003010523691012192 -0.01000789458480982 0 -0.0037469695272089247 -0.0037498649329354003 0
          0.0037544444528283412 0.003752718963533232 0 0.010011473454466993 0.003017049129363175 0
          0.012695155197640128 0.0017946662876777721 0 0.009809258276686428 0.0005800667362898911 0
          0 0 0 -0.00374108087171608 0.0037532822024555716 0
          <InformationKey name="L2_NORM_RANGE" location="vtkDataArray" length="2">
            <Value index="0">
              0
            </Value>
            <Value index="1">
              0.012828811922
            </Value>
          </InformationKey>
        </DataArray>
        <DataArray type="Float64" Name="Energy" format="ascii" RangeMin="24.58904109589041" RangeMax="24.6353045380549">
          24.58904109589041 24.58904109589041 24.58904109589041 24.58904109589041 24.58904109589041 24.59201999272501
          24.591072663807836 24.590099364011476 24.589339631326077 24.58904109589041 24.599469168203726 24.59609912152422
          24.59270167680205 24.590076890190787 24.58904109589041 24.609078492340924 24.60259578346969 24.59609267678832
          24.591062507803734 24.58904109589041 24.61868169375616 24.609088126707196 24.5994998769975 24.592084486241866
          24.58904109589041 24.58904109589041 24.59280405552468 24.602094637424756 24.614099937165175 24.626072674324277
          24.626061866004996 24.614041334788894 24.602021443464256 24.592752697984434 24.58904109589041 24.6353045380549
        </DataArray>
      </PointData>
      <CellData>
        <DataArray type="UInt8" Name="vtkGhostType" format="ascii" RangeMin="0" RangeMax="1">
          0 0 0 0 0 0
          0 0 0 0 0 0
          0 0 0 0 0 0
          0 0 0 0 0 0
          0 0 0 0 0 0
          0 0 1 1 1 1
          1 1 1 1 0 0
          0 0 0 0 0 0
          1 0
        </DataArray>
      </CellData>
      <Points>
        <DataArray type="Float32" Name="Points" NumberOfComponents="3" format="ascii" RangeMin="0" RangeMax="0.7856742387822515">
          0 0.4444444477558136 0 0 0.3333333432674408 0
          0 0.2222222238779068 0 0 0.1111111119389534 0
          0 0 0 0.1111111119389534 0.4444444477558136 0
          0.1111111119389534 0.3333333432674408 0 0.1111111119389534 0.2222222238779068 0
          0.1111111119389534 0.1111111119389534 0 0.1111111119389534 0 0
          0.2222222238779068 0.4444444477558136 0 0.2222222238779068 0.3333333432674408 0
          0.2222222238779068 0.2222222238779068 0 0.2222222238779068 0.1111111119389534 0
          0.2222222238779068 0 0 0.3333333432674408 0.4444444477558136 0
          0.3333333432674408 0.3333333432674408 0 0.3333333432674408 0.2222222238779068 0
          0.3333333432674408 0.1111111119389534 0 0.3333333432674408 0 0
          0.4444444477558136 0.4444444477558136 0 0.4444444477558136 0.3333333432674408 0
          0.4444444477558136 0.2222222238779068 0 0.4444444477558136 0.1111111119389534 0
          0.4444444477558136 0 0 0 0.5555555820465088 0
          0.1111111119389534 0.5555555820465088 0 0.2222222238779068 0.5555555820465088 0
          0.3333333432674408 0.5555555820465088 0 0.4444444477558136 0.5555555820465088 0
          0.5555555820465088 0.4444444477558136 0 0.5555555820465088 0.3333333432674408 0
          0.5555555820465088 0.2222222238779068 0 0.5555555820465088 0.1111111119389534 0
          0.5555555820465088 0 0 0.5555555820465088 0.5555555820465088 0
          <InformationKey name="L2_NORM_RANGE" location="vtkDataArray" length="2">
            <Value index="0">
              0
            </Value>
            <Value index="1">
              0.78567423878
            </Value>
          </InformationKey>
        </DataArray>
      </Points>
      <Cells>
        <DataArray type="Int64" Name="connectivity" format="ascii" RangeMin="0" RangeMax="35">
          0 1 5 1 6 5
          1 2 6 2 7 6
          2 3 7 3 8 7
          3 4 8 4 9 8
          5 6 10 6 11 10
          6 7 11 7 12 11
          7 8 12 8 13 12
          8 9 13 9 14 13
          10 11 15 11 16 15
          11 12 16 12 17 16
          12 13 17 13 18 17
          13 14 18 14 19 18
          15 16 20 16 21 20
          16 17 21 17 22 21
          17 18 22 18 23 22
          18 19 23 19 24 23
          0 26 25 0 5 26
          5 27 26 5 10 27
          10 28 27 10 15 28
          15 29 28 15 20 29
          21 30 20 21 31 30
          22 31 21 22 32 31
          23 32 22 23 33 32
          24 33 23 24 34 33
          20 35 29 20 30 35
        </DataArray>
        <DataArray type="Int64" Name="offsets" format="ascii" RangeMin="3" RangeMax="150">
          3 6 9 12 15 18
          21 24 27 30 33 36
          39 42 45 48 51 54
          57 60 63 66 69 72
          75 78 81 84 87 90
          93 96 99 102 105 108
          111 114 117 120 123 126
          129 132 135 138 141 144
          147 150
        </DataArray>
        <DataArray type="UInt8" Name="types" format="ascii" RangeMin="5" RangeMax="5">
          5 5 5 5 5 5
          5 5 5 5 5 5
          5 5 5 5 5 5
          5 5 5 5 5 5
          5 5 5 5 5 5
          5 5 5 5 5 5
          5 5 5 5 5 5
          5 5 5 5 5 5
          5 5
        </DataArray>
      </Cells>
    </Piece>
  </UnstructuredGrid>
</VTKFile>
