<?xml version="1.0"?>
<VTKFile type="UnstructuredGrid" version="0.1" byte_order="LittleEndian" header_type="UInt32" compressor="vtkZLibDataCompressor">
  <UnstructuredGrid>
    <Piece NumberOfPoints="36" NumberOfCells="49">
      <PointData>
        <DataArray type="Float64" Name="Velocity" NumberOfComponents="3" format="ascii" RangeMin="0" RangeMax="0.01181145103131816">
          0 0 0 0 0 0
          0 0 0 0 0 0
          0 0 0 0 0 0
          -0.0015038940396717262 -0.0014945445732234607 0 -0.0018795089761602162 -0.004570783367226663 0
          -0.0014527935287674324 -0.007569077415969055 0 -0.0005486759444668809 -0.009351666137224914 0
          0 0 0 -0.004571127151010967 -0.0018907570897813064 0
          -0.005739809178681391 -0.005734065990448897 0 -0.004429821735662993 -0.009470708891815349 0
          -0.0016460034940472257 -0.011692288867534963 0 0 0 0
          -0.007562090191050533 -0.0014579857984166847 0 -0.009471169802783484 -0.004437673649759713 0
          -0.007318883371318098 -0.007313754198024511 0 -0.002712818495247718 -0.009018232146525106 0
          0 0 0 -0.009349850591464072 -0.0005440486202052728 0
          -0.011692705894626412 -0.0016484105660610627 0 -0.009019883105584305 -0.0027211405772721844 0
          -0.0033397451600800285 -0.003342325890238426 0 0 0 0
          0.0005197743016031665 -0.009360095313915733 0 0.0016281047499068597 -0.011698702936161664 0
          0.002704025168882825 -0.009021787299698053 0 0.0033492179927059394 -0.0033393819403164924 0
          0 0 0 -0.009349076503068864 0.0005228082801975748 0
          -0.011688243210744695 0.001628133556007059 0 -0.009013680179715548 0.002701989652824215 0
          -0.0033344985941054684 0.003345373878974247 0 0.003346408769060015 0.003344870807164288 0
          <InformationKey name="L2_NORM_RANGE" location="vtkDataArray" length="2">
            <Value index="0">
              0
            </Value>
            <Value index="1">
              0.011811451031
            </Value>
          </InformationKey>
        </DataArray>
        <DataArray type="Float64" Name="Pressure" format="ascii" RangeMin="10" RangeMax="10.02032264522393">
          10 10 10 10 10 10
          10.00096726262546 10.001472335490583 10.001620983765477 10.001511625528442 10 10.003378979726808
          10.005167008388241 10.005693256759324 10.005277913056654 10 10.006507739221439 10.009956749170833
          10.010977917437891 10.010171047710534 10 10.009621359154387 10.014739802825423 10.016248086343035
          10.01505510308129 10 10.001192731737328 10.004210153338207 10.008128896523457 10.012049290429301
          10 10.012058948119847 10.01844907634184 10.02032264522393 10.01880956910989 10.015050693452132
        </DataArray>
        <DataArray type="Float64" Name="Temperature" format="ascii" RangeMin="0.03056139305585406" RangeMax="0.03424657534246575">
          0.03424657534246575 0.03424657534246575 0.03424657534246575 0.03424657534246575 0.03424657534246575 0.03424657534246575
          0.033594476602677635 0.033120839119132994 0.03281183437555713 0.03265886090281813 0.03424657534246575 0.033127134565458675
          0.03233249244515612 0.031821605536738316 0.03157003365749604 0.03424657534246575 0.032827851399856535 0.03183517736273585
          0.03120243881631469 0.03089138182932354 0.03424657534246575 0.03268539339680539 0.03159994159688522 0.03091017977802277
          0.030570578679510567 0.03424657534246575 0.03265786345817659 0.031566696904203405 0.03088510168166731 0.03056139305585406
          0.03424657534246575 0.03269328325273808 0.03161159707948998 0.030922731438548165 0.030582058347828133 0.030570574954775193
        </DataArray>
        <DataArray type="Float64" Name="Density" format="ascii" RangeMin="1" RangeMax="1.1219331518380808">
          1 1 1 1 1 1
          1.0195094952892867 1.0341409969746298 1.043895512353521 1.0487736312709273 1 1.0341415772967533
          1.059747269246029 1.076817848098849 1.0853536223280036 1 1.0438959803738823 1.0768174277130598
          1.0987657455866475 1.1097401821338178 1 1.0487719938513556 1.08535181984785 1.109738594861441
          1.1219327666064012 1 1.0487722224713065 1.0853525086830862 1.10973939417316 1.1219331518380808
          1 1.0487742342955981 1.0853534867120125 1.10973940030955 1.1219320584897963 1.121932409316194
        </DataArray>
        <DataArray type="Float64" Name="Momentum" NumberOfComponents="3" format="ascii" RangeMin="0" RangeMax="0.01281958800802859">
          0 0 0 0 0 0
          0 0 0 0 0 0
          0 0 0 0 0 0
          -0.0015332342533542881 -0.0015237023835343927 0 -0.0019436772864290918 -0.004726834468338837 0
          -0.0015165646450565585 -0.007901325947186481 0 -0.0005754368626695363 -0.009807780853170738 0
          0 0 0 -0.004727192641970496 -0.001955310519111459 0
          -0.006082747103100897 -0.006076660775054745 0 -0.004770111108858132 -0.01019822836885524 0
          -0.001786495854628707 -0.012690268075684463 0 0 0 0
          -0.007894035553662415 -0.0015219855144093827 0 -0.010198720704466918 -0.00477856432456428 0
          -0.008041738344348046 -0.008036102584429876 0 -0.003010523691012192 -0.01000789458480982 0
          0 0 0 -0.00980586144702205 -0.0005705829561647629 0
          -0.01269069962167846 -0.001789105407730799 0 -0.010009712403405579 -0.0030197547206424844 0
          -0.0037469695272089247 -0.0037498649329354003 0 0 0 0
          0.0005451248494758241 -0.009816607964918664 0 0.0017670675747102588 -0.012697216580101247 0
          0.0030007632527450025 -0.010011832772326026 0 0.003757598698749385 -0.003746563305490448 0
          0 0 0 -0.009805070550877017 0.0005483078537476101 0
          -0.012685875522319763 0.001767100431845089 0 -0.010002836037219609 0.0029985043769677534 0
          -0.00374108087171608 0.0037532822024555716 0 0.0037544444528283412 0.003752718963533232 0
          <InformationKey name="L2_NORM_RANGE" location="vtkDataArray" length="2">
            <Value index="0">
              0
            </Value>
            <Value index="1">
              0.012819588008
            </Value>
          </InformationKey>
        </DataArray>
        <DataArray type="Float64" Name="Energy" format="ascii" RangeMin="24.58904109589041" RangeMax="24.639061663895617">
          24.58904109589041 24.58904109589041 24.58904109589041 24.58904109589041 24.58904109589041 24.58904109589041
          24.591421793466694 24.592674056926537 24.593057944034463 24.59280405552468 24.58904109589041 24.597362335834802
          24.601781152941307 24.60309912592984 24.602094637424756 24.58904109589041 24.605073959827184 24.613582687106994
          24.616093557505202 24.614099937165175 24.58904109589041 24.61274509233713 24.625360526531644 24.62904283397871
          24.626072674324277 24.58904109589041 24.59201999272501 24.599469168203726 24.609078492340924 24.61868169375616
          24.58904109589041 24.61873887048692 24.63448118186246 24.639061663895617 24.6353045380549 24.626061866004996
        </DataArray>
      </PointData>
      <CellData>
        <DataArray type="UInt8" Name="vtkGhostType" format="ascii" RangeMin="0" RangeMax="0">
          0 0 0 0 0 0
          0 0 0 0 0 0
          0 0 0 0 0 0
          0 0 0 0 0 0
          0 0 0 0 0 0
          0 0 0 0 0 0
          0 0 0 0 0 0
          0 0 0 0 0 0
          0
        </DataArray>
      </CellData>
      <Points>
        <DataArray type="Float32" Name="Points" NumberOfComponents="3" format="ascii" RangeMin="0.4444444477558136" RangeMax="1.1439589174192555">
          0 1 0 0 0.8888888955116272 0
          0 0.7777777910232544 0 0 0.6666666865348816 0
          0 0.5555555820465088 0 0.1111111119389534 1 0
          0.1111111119389534 0.8888888955116272 0 0.1111111119389534 0.7777777910232544 0
          0.1111111119389534 0.6666666865348816 0 0.1111111119389534 0.5555555820465088 0
          0.2222222238779068 1 0 0.2222222238779068 0.8888888955116272 0
          0.2222222238779068 0.7777777910232544 0 0.2222222238779068 0.6666666865348816 0
          0.2222222238779068 0.5555555820465088 0 0.3333333432674408 1 0
          0.3333333432674408 0.8888888955116272 0 0.3333333432674408 0.7777777910232544 0
          0.3333333432674408 0.6666666865348816 0 0.3333333432674408 0.5555555820465088 0
          0.4444444477558136 1 0 0.4444444477558136 0.8888888955116272 0
          0.4444444477558136 0.7777777910232544 0 0.4444444477558136 0.6666666865348816 0
          0.4444444477558136 0.5555555820465088 0 0 0.4444444477558136 0
          0.1111111119389534 0.4444444477558136 0 0.2222222238779068 0.4444444477558136 0
          0.3333333432674408 0.4444444477558136 0 0.4444444477558136 0.4444444477558136 0
          0.5555555820465088 1 0 0.5555555820465088 0.8888888955116272 0
          0.5555555820465088 0.7777777910232544 0 0.5555555820465088 0.6666666865348816 0
          0.5555555820465088 0.5555555820465088 0 0.5555555820465088 0.4444444477558136 0
          <InformationKey name="L2_NORM_RANGE" location="vtkDataArray" length="2">
            <Value index="0">
              0.44444444776
            </Value>
            <Value index="1">
              1.1439589174
            </Value>
          </InformationKey>
        </DataArray>
      </Points>
      <Cells>
        <DataArray type="Int64" Name="connectivity" format="ascii" RangeMin="0" RangeMax="34">
          0 1 5 1 6 5
          1 2 6 2 7 6
          2 3 7 3 8 7
          3 4 8 4 9 8
          5 6 10 6 11 10
          6 7 11 7 12 11
          7 8 12 8 13 12
          8 9 13 9 14 13
          10 11 15 11 16 15
          11 12 16 12 17 16
          12 13 17 13 18 17
          13 14 18 14 19 18
          15 16 20 16 21 20
          16 17 21 17 22 21
          17 18 22 18 23 22
          18 19 23 19 24 23
          25 9 4 25 26 9
          26 14 9 26 27 14
          27 19 14 27 28 19
          28 24 19 28 29 24
          21 30 20 21 31 30
          22 31 21 22 32 31
          23 32 22 23 33 32
          24 33 23 24 34 33
          29 34 24
        </DataArray>
        <DataArray type="Int64" Name="offsets" format="ascii" RangeMin="3" RangeMax="147">
          3 6 9 12 15 18
          21 24 27 30 33 36
          39 42 45 48 51 54
          57 60 63 66 69 72
          75 78 81 84 87 90
          93 96 99 102 105 108
          111 114 117 120 123 126
          129 132 135 138 141 144
          147
        </DataArray>
        <DataArray type="UInt8" Name="types" format="ascii" RangeMin="5" RangeMax="5">
          5 5 5 5 5 5
          5 5 5 5 5 5
          5 5 5 5 5 5
          5 5 5 5 5 5
          5 5 5 5 5 5
          5 5 5 5 5 5
          5 5 5 5 5 5
          5 5 5 5 5 5
          5
        </DataArray>
      </Cells>
    </Piece>
  </UnstructuredGrid>
</VTKFile>
