<?xml version="1.0"?>
<VTKFile type="UnstructuredGrid" version="0.1" byte_order="LittleEndian" header_type="UInt32" compressor="vtkZLibDataCompressor">
  <UnstructuredGrid>
    <Piece NumberOfPoints="36" NumberOfCells="49">
      <PointData>
        <DataArray type="Float64" Name="Velocity" NumberOfComponents="3" format="ascii" RangeMin="0" RangeMax="0.011808546619545236">
          0.003352431263908721 0.00334696973204967 0 0.00899860565970908 0.002742317646848056 0
          0.011664643129287458 0.0016960006840992061 0 0.009315270014919408 0.0006005974655370696 0
          0 0 0 0.002750660385072358 0.00902402599675434 0
          0.007323855477083861 0.007311499398253065 0 0.00944325448234415 0.004463753895516594 0
          0.0075357536413203875 0.0015088502769209308 0 0 0 0
          0.0016949827517026455 0.011686265731079528 0 0.004475541574332424 0.009465466124638368 0
          0.005739382909047013 0.005720102133376037 0 0.004522966933485508 0.0018876962597682604 0
          0 0 0 0.0005931372993440818 0.009318376756488484 0
          0.0015132916668934803 0.007550999680758769 0 0.0019196624965879727 0.004557695453936257 0
          0.0014604567094801241 0.0014679326164241246 0 0 0 0
          0 0 0 0 0 0
          0 0 0 0 0 0
          0 0 0 -0.0033024775946748604 0.0033440619405321883 0
          -0.002661435511394589 0.00902174470674623 0 -0.0015947128672183072 0.011676408910991216 0
          -0.0005031394002813959 0.009316403579471142 0 0 0 0
          0.003359055560490427 -0.0033217657760019207 0 0.009043864562182525 -0.0026787367571790358 0
          0.01170012803204539 -0.0015950556405861579 0 0.009335305503268216 -0.0004801451107543958 0
          0 0 0 -0.0033229727008676235 -0.003335441847604437 0
          <InformationKey name="L2_NORM_RANGE" location="vtkDataArray" length="2">
            <Value index="0">
              0
            </Value>
            <Value index="1">
              0.01180854662
            </Value>
          </InformationKey>
        </DataArray>
        <DataArray type="Float64" Name="Pressure" format="ascii" RangeMin="10" RangeMax="10.020303551365899">
          10.015048750074556 10.010118859065523 10.005204116147603 10.001443842317624 10 10.01629615030023
          10.010978670925944 10.005700854353009 10.00164036004592 10 10.01479363917933 10.009958934480151
          10.005164173981738 10.001494246563308 10 10.009665079127725 10.006492754269882 10.003361915339536
          10.00096835165515 10 10 10 10 10
          10 10.01879537795636 10.020303551365899 10.018409110971865 10.011999689931745 10
          10.012060689893318 10.008148773388521 10.004255667534999 10.001260766136612 10 10.015058617907888
        </DataArray>
        <DataArray type="Float64" Name="Temperature" format="ascii" RangeMin="0.030561403366324288" RangeMax="0.03424657534246575">
          0.030570573784979245 0.030891338404373643 0.03156997429598299 0.03265881012095914 0.03424657534246575 0.030910220766915283
          0.031202440633118236 0.031821620733853584 0.03281187019780269 0.03424657534246575 0.0315999825967693 0.03183517210342139
          0.03233249053137837 0.033120870845865825 0.03424657534246575 0.03268542061299204 0.03282781905587173 0.03312710714597996
          0.03359447803907758 0.03424657534246575 0.03424657534246575 0.03424657534246575 0.03424657534246575 0.03424657534246575
          0.03424657534246575 0.03058204586065995 0.030922711741564694 0.03161155472140246 0.03269322122562823 0.03424657534246575
          0.030561403366324288 0.03088512281105574 0.03156674553517523 0.032657935871463706 0.03424657534246575 0.03057058185453295
        </DataArray>
        <DataArray type="Float64" Name="Density" format="ascii" RangeMin="1" RangeMax="1.121934050736657">
          1.1219322345412386 1.1097359564242413 1.0853476577711243 1.048768154169701 1 1.1097424484617775
          1.0987657643094468 1.0768181514973332 1.0438963950354057 1 1.08535624617232 1.076817840692058
          1.059747031752699 1.0341422719412625 1 1.048775701386993 1.0438954456270724 1.0341406691565
          1.0195095627149617 1 1 1 1 1
          1 1.1219309274311773 1.109737992560886 1.0853506113644313 1.0487700167067355 1
          1.121934050736657 1.1097408389898522 1.0853557744232802 1.0487770313935436 1 1.1219330438309494
        </DataArray>
        <DataArray type="Float64" Name="Momentum" NumberOfComponents="3" format="ascii" RangeMin="0" RangeMax="0.012816479831740456">
          0.0037612006990630203 0.003755073230420377 0 0.009986076258261848 0.0030432484966440025 0
          0.01266019309910818 0.0018407503700652978 0 0.00976955853913939 0.0006298874953303131 0
          0 0 0 0.003052524590617014 0.010014344704620894 0
          0.008047201660969977 0.00803362522456959 0 0.010168667835796735 0.004806651218509199 0
          0.007866546060049284 0.0015750833647259332 0 0 0 0
          0.0018396601167148129 0.0126837615056567 0 0.004819343014000175 0.010192582793476911 0
          0.006082294001954743 0.006061861257167536 0 0.004677391300509909 0.0019521464988117726 0
          0 0 0 0.0006220679871383763 0.009772887118574462 0
          0.0015797182789755047 0.007882454176675557 0 0.0019852010587761235 0.004713298226545179 0
          0.0014889495812462133 0.001496571339865589 0 0 0 0
          0 0 0 0 0 0
          0 0 0 0 0 0
          0 0 0 -0.00370515175061425 0.0037518065143285805 0
          -0.002953496101745286 0.010011772860261359 0 -0.001730822585386115 0.01267299755008541 0
          -0.0005276775172389365 0.00977076473768864 0 0 0 0
          0.003768638811630517 -0.00372680213266823 0 0.010036345846947028 -0.0029727035763448192 0
          0.012698801521072153 -0.0017312028500366108 0 0.00979065399286945 -0.0005035651638951195 0
          0 0 0 -0.0037281528768515638 -0.0037421424246039717 0
          <InformationKey name="L2_NORM_RANGE" location="vtkDataArray" length="2">
            <Value index="0">
              0
            </Value>
            <Value index="1">
              0.012816479832
            </Value>
          </InformationKey>
        </DataArray>
        <DataArray type="Float64" Name="Energy" format="ascii" RangeMin="24.58904109589041" RangeMax="24.639014673882375">
          24.62605711793454 24.613971503189177 24.601912917746695 24.592637057891093 24.58904109589041 24.629161149916836
          24.616095432142018 24.603117690600303 24.59310541240757 24.58904109589041 24.62549290806404 24.613588184169373
          24.601774096056612 24.592727725278586 24.58904109589041 24.61285231688502 24.605037111538913 24.597320369681842
          24.59142436546093 24.58904109589041 24.58904109589041 24.58904109589041 24.58904109589041 24.58904109589041
          24.58904109589041 24.63526951921559 24.639014673882375 24.634382702146297 24.618592829718835 24.58904109589041
          24.618709695149033 24.609127513484992 24.59958104376552 24.59218701919018 24.58904109589041 24.62608122847319
        </DataArray>
      </PointData>
      <CellData>
        <DataArray type="UInt8" Name="vtkGhostType" format="ascii" RangeMin="0" RangeMax="1">
          0 0 0 0 0 0
          0 0 0 0 0 0
          0 0 0 0 0 0
          0 0 0 0 0 0
          0 0 0 0 0 0
          0 0 1 1 1 1
          1 1 1 1 1 1
          1 1 1 1 1 1
          1
        </DataArray>
      </CellData>
      <Points>
        <DataArray type="Float32" Name="Points" NumberOfComponents="3" format="ascii" RangeMin="0.4444444477558136" RangeMax="1.1439589174192555">
          0.5555555820465088 0.4444444477558136 0 0.5555555820465088 0.3333333432674408 0
          0.5555555820465088 0.2222222238779068 0 0.5555555820465088 0.1111111119389534 0
          0.5555555820465088 0 0 0.6666666865348816 0.4444444477558136 0
          0.6666666865348816 0.3333333432674408 0 0.6666666865348816 0.2222222238779068 0
          0.6666666865348816 0.1111111119389534 0 0.6666666865348816 0 0
          0.7777777910232544 0.4444444477558136 0 0.7777777910232544 0.3333333432674408 0
          0.7777777910232544 0.2222222238779068 0 0.7777777910232544 0.1111111119389534 0
          0.7777777910232544 0 0 0.8888888955116272 0.4444444477558136 0
          0.8888888955116272 0.3333333432674408 0 0.8888888955116272 0.2222222238779068 0
          0.8888888955116272 0.1111111119389534 0 0.8888888955116272 0 0
          1 0.4444444477558136 0 1 0.3333333432674408 0
          1 0.2222222238779068 0 1 0.1111111119389534 0
          1 0 0 0.5555555820465088 0.5555555820465088 0
          0.6666666865348816 0.5555555820465088 0 0.7777777910232544 0.5555555820465088 0
          0.8888888955116272 0.5555555820465088 0 1 0.5555555820465088 0
          0.4444444477558136 0.4444444477558136 0 0.4444444477558136 0.3333333432674408 0
          0.4444444477558136 0.2222222238779068 0 0.4444444477558136 0.1111111119389534 0
          0.4444444477558136 0 0 0.4444444477558136 0.5555555820465088 0
          <InformationKey name="L2_NORM_RANGE" location="vtkDataArray" length="2">
            <Value index="0">
              0.44444444776
            </Value>
            <Value index="1">
              1.1439589174
            </Value>
          </InformationKey>
        </DataArray>
      </Points>
      <Cells>
        <DataArray type="Int64" Name="connectivity" format="ascii" RangeMin="0" RangeMax="34">
          0 1 5 1 6 5
          1 2 6 2 7 6
          2 3 7 3 8 7
          3 4 8 4 9 8
          5 6 10 6 11 10
          6 7 11 7 12 11
          7 8 12 8 13 12
          8 9 13 9 14 13
          10 11 15 11 16 15
          11 12 16 12 17 16
          12 13 17 13 18 17
          13 14 18 14 19 18
          15 16 20 16 21 20
          16 17 21 17 22 21
          17 18 22 18 23 22
          18 19 23 19 24 23
          0 26 25 0 5 26
          5 27 26 5 10 27
          10 28 27 10 15 28
          15 29 28 15 20 29
          31 0 30 31 1 0
          32 1 31 32 2 1
          33 2 32 33 3 2
          34 3 33 34 4 3
          30 0 25
        </DataArray>
        <DataArray type="Int64" Name="offsets" format="ascii" RangeMin="3" RangeMax="147">
          3 6 9 12 15 18
          21 24 27 30 33 36
          39 42 45 48 51 54
          57 60 63 66 69 72
          75 78 81 84 87 90
          93 96 99 102 105 108
          111 114 117 120 123 126
          129 132 135 138 141 144
          147
        </DataArray>
        <DataArray type="UInt8" Name="types" format="ascii" RangeMin="5" RangeMax="5">
          5 5 5 5 5 5
          5 5 5 5 5 5
          5 5 5 5 5 5
          5 5 5 5 5 5
          5 5 5 5 5 5
          5 5 5 5 5 5
          5 5 5 5 5 5
          5 5 5 5 5 5
          5
        </DataArray>
      </Cells>
    </Piece>
  </UnstructuredGrid>
</VTKFile>
