<?xml version="1.0"?>
<VTKFile type="UnstructuredGrid" version="0.1" byte_order="LittleEndian" header_type="UInt32" compressor="vtkZLibDataCompressor">
  <UnstructuredGrid>
    <Piece NumberOfPoints="36" NumberOfCells="49">
      <PointData>
        <DataArray type="Float64" Name="Velocity" NumberOfComponents="3" format="ascii" RangeMin="0" RangeMax="0.011778486933943193">
          0 0 0 0 0 0
          0 0 0 0 0 0
          0 0 0 0 0 0
          -0.001509608391778544 -0.0014837184110923973 0 -0.0018957935240593487 -0.004521152550771637 0
          -0.0014741866990580295 -0.007517387217109952 0 -0.0005834000677791675 -0.009309555469765102 0
          0 0 0 -0.004526008520816896 -0.0019275277176268625 0
          -0.005742341041993379 -0.005728906290545231 0 -0.004443999854783539 -0.009433139736600458 0
          -0.0016686827457957226 -0.011647244849744123 0 0 0 0
          -0.0074933553117849895 -0.001493222598264434 0 -0.009436895821141933 -0.004467838621893706 0
          -0.007321300604846823 -0.0073084818401243186 0 -0.002721346045070322 -0.00898118444409829 0
          0 0 0 -0.009298847985490084 -0.0005703581223384022 0
          -0.011645871453678859 -0.0016784390690362983 0 -0.0089865452218945 -0.0027488890292678993 0
          -0.0033229727008676235 -0.003335441847604437 0 0 0 0
          0.00047952946745941733 -0.00934138440371435 0 0.0015945316253681769 -0.011670056698609961 0
          0.002687359200132602 -0.008990965905360566 0 0.003359055560490427 -0.0033217657760019207 0
          0 0 0 -0.009303597497142085 0.0004911398502467522 0
          -0.011632668543024005 0.0015943290182232484 0 -0.008961490828558549 0.0026790074059790834 0
          -0.0033024775946748604 0.0033440619405321883 0 0.003352431263908721 0.00334696973204967 0
          <InformationKey name="L2_NORM_RANGE" location="vtkDataArray" length="2">
            <Value index="0">
              0
            </Value>
            <Value index="1">
              0.011778486934
            </Value>
          </InformationKey>
        </DataArray>
        <DataArray type="Float64" Name="Pressure" format="ascii" RangeMin="10" RangeMax="10.02033702752202">
          10 10 10 10 10 10
          10.000973882961537 10.001475132268375 10.001613609131738 10.001529437345914 10 10.003384160334392
          10.005181426193586 10.005704122478752 10.005296007097746 10 10.006514339561766 10.009957233963313
          10.01099259542803 10.010193646806702 10 10.00958220539827 10.014698537631388 10.016216634452846
          10.015058617907888 10 10.00115730524979 10.004180874613011 10.008114702139174 10.012060689893318
          10 10.012102661840471 10.018482019210703 10.02033702752202 10.01879537795636 10.015048750074556
        </DataArray>
        <DataArray type="Float64" Name="Temperature" format="ascii" RangeMin="0.030561403366324288" RangeMax="0.03424657534246575">
          0.03424657534246575 0.03424657534246575 0.03424657534246575 0.03424657534246575 0.03424657534246575 0.03424657534246575
          0.03359448335768493 0.033120834130233125 0.03281181508471025 0.03265886629586721 0.03424657534246575 0.033127147369911146
          0.032332505955713436 0.03182160971663436 0.0315700428911457 0.03424657534246575 0.03282786982737829 0.031835183003529624
          0.031202451869307188 0.030891399487865092 0.03424657534246575 0.032685367339307096 0.03159991007179901 0.03091015360774624
          0.03057058185453295 0.03424657534246575 0.03265782614600309 0.0315666659201701 0.03088508698684997 0.030561403366324288
          0.03424657534246575 0.03269332796600874 0.031611630247192116 0.030922745577487216 0.03058204586065995 0.030570573784979245
        </DataArray>
        <DataArray type="Float64" Name="Density" format="ascii" RangeMin="1" RangeMax="1.121934050736657">
          1 1 1 1 1 1
          1.019509965175654 1.0341414419281587 1.0438953563741433 1.048775325857835 1 1.034141713142743
          1.0597483535501508 1.0768188760286594 1.0853552676890579 1 1.0438960829540789 1.0768172890659278
          1.0987668969355426 1.109742053132633 1 1.0487687275631008 1.0853484304917498 1.1097360497499609
          1.1219330438309494 1 1.048769705720315 1.085350397563441 1.10973834824807 1.121934050736657
          1 1.0487773789860557 1.085355916810122 1.1097404857211828 1.1219309274311773 1.1219322345412386
        </DataArray>
        <DataArray type="Float64" Name="Momentum" NumberOfComponents="3" format="ascii" RangeMin="0" RangeMax="0.01278378547645104">
          0 0 0 0 0 0
          0 0 0 0 0 0
          0 0 0 0 0 0
          -0.0015390607989310186 -0.0015126657056232866 0 -0.0019605186485688003 -0.004675511218032153 0
          -0.0015388966495752036 -0.007847365608007422 0 -0.0006118555961905793 -0.009763632071394485 0
          0 0 0 -0.004680534205416238 -0.001993336816036765 0
          -0.006085436464775941 -0.006071199009048411 0 -0.004785382928699536 -0.01015778292858739 0
          -0.0018111136082512287 -0.012641398551734033 0 0 0 0
          -0.00782228425815549 -0.0015587692213067548 0 -0.010161812575319638 -0.004811045872811631 0
          -0.008044402747119855 -0.008030317912783162 0 -0.00301999214734071 -0.009966798064556501 0
          0 0 0 -0.009752340969545139 -0.0005981737622201255 0
          -0.012639828303959022 -0.00182169120925458 0 -0.009972693195444587 -0.003050541252540763 0
          -0.0037281528768515638 -0.0037421424246039717 0 0 0 0
          0.0005029159784716324 -0.009796960972103837 0 0.0017306255335208308 -0.01266610067742422 0
          0.0029822655599044084 -0.009977619652969548 0 0.003768638811630517 -0.00372680213266823 0
          0 0 0 -0.009757402598193904 0.0005150963648573926 0
          -0.012625585631462084 0.0017304144332706754 0 -0.009944929184870489 0.002973002979961874 0
          -0.00370515175061425 0.0037518065143285805 0 0.0037612006990630203 0.003755073230420377 0
          <InformationKey name="L2_NORM_RANGE" location="vtkDataArray" length="2">
            <Value index="0">
              0
            </Value>
            <Value index="1">
              0.012783785476
            </Value>
          </InformationKey>
        </DataArray>
        <DataArray type="Float64" Name="Energy" format="ascii" RangeMin="24.58904109589041" RangeMax="24.63909643948547">
          24.58904109589041 24.58904109589041 24.58904109589041 24.58904109589041 24.58904109589041 24.58904109589041
          24.591438064581315 24.59268073240632 24.59303943616915 24.59284746168111 24.58904109589041 24.597374934818983
          24.601816589042237 24.603125529108425 24.602138599326576 24.58904109589041 24.60508970358246 24.613583674874537
          24.61612962642511 24.61415516196282 24.58904109589041 24.612648333477864 24.62525852018384 24.628965247819103
          24.62608122847319 24.58904109589041 24.5919326776959 24.59939675248312 24.60904323175697 24.618709695149033
          24.58904109589041 24.61884589679228 24.63456142293249 24.63909643948547 24.63526951921559 24.62605711793454
        </DataArray>
      </PointData>
      <CellData>
        <DataArray type="UInt8" Name="vtkGhostType" format="ascii" RangeMin="0" RangeMax="0">
          0 0 0 0 0 0
          0 0 0 0 0 0
          0 0 0 0 0 0
          0 0 0 0 0 0
          0 0 0 0 0 0
          0 0 0 0 0 0
          0 0 0 0 0 0
          0 0 0 0 0 0
          0
        </DataArray>
      </CellData>
      <Points>
        <DataArray type="Float32" Name="Points" NumberOfComponents="3" format="ascii" RangeMin="0.4444444477558136" RangeMax="1.1439589174192555">
          0 1 0 0 0.8888888955116272 0
          0 0.7777777910232544 0 0 0.6666666865348816 0
          0 0.5555555820465088 0 0.1111111119389534 1 0
          0.1111111119389534 0.8888888955116272 0 0.1111111119389534 0.7777777910232544 0
          0.1111111119389534 0.6666666865348816 0 0.1111111119389534 0.5555555820465088 0
          0.2222222238779068 1 0 0.2222222238779068 0.8888888955116272 0
          0.2222222238779068 0.7777777910232544 0 0.2222222238779068 0.6666666865348816 0
          0.2222222238779068 0.5555555820465088 0 0.3333333432674408 1 0
          0.3333333432674408 0.8888888955116272 0 0.3333333432674408 0.7777777910232544 0
          0.3333333432674408 0.6666666865348816 0 0.3333333432674408 0.5555555820465088 0
          0.4444444477558136 1 0 0.4444444477558136 0.8888888955116272 0
          0.4444444477558136 0.7777777910232544 0 0.4444444477558136 0.6666666865348816 0
          0.4444444477558136 0.5555555820465088 0 0 0.4444444477558136 0
          0.1111111119389534 0.4444444477558136 0 0.2222222238779068 0.4444444477558136 0
          0.3333333432674408 0.4444444477558136 0 0.4444444477558136 0.4444444477558136 0
          0.5555555820465088 1 0 0.5555555820465088 0.8888888955116272 0
          0.5555555820465088 0.7777777910232544 0 0.5555555820465088 0.6666666865348816 0
          0.5555555820465088 0.5555555820465088 0 0.5555555820465088 0.4444444477558136 0
          <InformationKey name="L2_NORM_RANGE" location="vtkDataArray" length="2">
            <Value index="0">
              0.44444444776
            </Value>
            <Value index="1">
              1.1439589174
            </Value>
          </InformationKey>
        </DataArray>
      </Points>
      <Cells>
        <DataArray type="Int64" Name="connectivity" format="ascii" RangeMin="0" RangeMax="34">
          0 1 5 1 6 5
          1 2 6 2 7 6
          2 3 7 3 8 7
          3 4 8 4 9 8
          5 6 10 6 11 10
          6 7 11 7 12 11
          7 8 12 8 13 12
          8 9 13 9 14 13
          10 11 15 11 16 15
          11 12 16 12 17 16
          12 13 17 13 18 17
          13 14 18 14 19 18
          15 16 20 16 21 20
          16 17 21 17 22 21
          17 18 22 18 23 22
          18 19 23 19 24 23
          25 9 4 25 26 9
          26 14 9 26 27 14
          27 19 14 27 28 19
          28 24 19 28 29 24
          21 30 20 21 31 30
          22 31 21 22 32 31
          23 32 22 23 33 32
          24 33 23 24 34 33
          29 34 24
        </DataArray>
        <DataArray type="Int64" Name="offsets" format="ascii" RangeMin="3" RangeMax="147">
          3 6 9 12 15 18
          21 24 27 30 33 36
          39 42 45 48 51 54
          57 60 63 66 69 72
          75 78 81 84 87 90
          93 96 99 102 105 108
          111 114 117 120 123 126
          129 132 135 138 141 144
          147
        </DataArray>
        <DataArray type="UInt8" Name="types" format="ascii" RangeMin="5" RangeMax="5">
          5 5 5 5 5 5
          5 5 5 5 5 5
          5 5 5 5 5 5
          5 5 5 5 5 5
          5 5 5 5 5 5
          5 5 5 5 5 5
          5 5 5 5 5 5
          5 5 5 5 5 5
          5
        </DataArray>
      </Cells>
    </Piece>
  </UnstructuredGrid>
</VTKFile>
